/*--------------------------------*- C++ -*----------------------------------*\
| =========                 |                                                 |
| \\      /  F ield         | OpenFOAM: The Open Source CFD Toolbox           |
|  \\    /   O peration     | Version:  3.0.0                                 |
|   \\  /    A nd           | Web:      www.OpenFOAM.org                      |
|    \\/     M anipulation  |                                                 |
\*---------------------------------------------------------------------------*/
FoamFile
{
    version     2.0;
    format      ascii;
    class       surfaceScalarField;
    location    "1.5";
    object      phi;
}
// * * * * * * * * * * * * * * * * * * * * * * * * * * * * * * * * * * * * * //

dimensions      [0 3 -1 0 0 0 0];

internalField   nonuniform List<scalar> 
11520
(
-0.000167799
0.000111103
0.000144282
-8.43189e-05
0.000129061
0.000131066
1.33113e-05
0.000149568
9.83747e-05
0.000109057
0.000172418
5.19296e-05
0.000183376
0.000197589
4.51196e-07
0.000218856
0.000222905
-4.83139e-05
0.000206952
0.000242544
-8.95969e-05
0.000151826
0.000247986
-0.000120234
6.8726e-05
0.000232206
-0.000136382
-2.33004e-05
0.000195016
-0.00013391
-0.000108834
0.000145886
-0.000110904
-0.000178776
9.96279e-05
-6.97528e-05
-0.00022858
6.85833e-05
-1.67991e-05
-0.000255154
5.70575e-05
3.90542e-05
-0.000255532
6.19153e-05
8.80536e-05
7.55652e-05
0.000119832
-0.000177754
4.59888e-05
0.000140551
-9.72598e-05
7.71131e-05
0.000103191
-4.03967e-06
0.000107774
4.37316e-05
8.49177e-05
0.000138764
-2.87021e-05
0.00015017
0.00017027
-0.00010079
0.000176332
0.000198618
-0.000160128
0.000158511
0.000214723
-0.000198599
0.000104463
0.000207057
-0.000212705
3.01685e-05
0.000169226
-0.000202042
-4.82881e-05
0.000107068
-0.00016855
-0.00012063
3.83371e-05
-0.000116775
-0.000181764
-1.66451e-05
-5.36827e-05
-0.000228296
-4.50889e-05
1.23365e-05
-0.000255809
-4.60581e-05
7.22863e-05
-0.000259099
-2.68845e-05
0.000117054
1.62454e-06
0.000137619
-0.000193265
-3.08849e-05
0.00011754
-0.000111173
1.08971e-05
5.86655e-05
-1.67536e-05
5.06307e-05
-2.09098e-05
7.20904e-05
8.99368e-05
-0.000109267
0.000136402
0.000128441
-0.000189982
0.00016278
0.000159944
-0.000248016
0.000148612
0.000171662
-0.000274122
0.000102269
0.000149945
-0.000266101
3.74593e-05
9.09558e-05
-0.000227669
-3.39835e-05
7.68614e-06
-0.0001668
-0.000104913
-7.4827e-05
-9.36357e-05
-0.000170711
-0.000133038
-1.84922e-05
-0.000225554
-0.000156325
4.97891e-05
-0.000261676
-0.000147741
0.000103471
-0.00027134
-0.000117856
0.000135452
-7.85347e-05
0.000139301
-0.000211068
-0.000110492
7.79055e-05
-0.000123087
-6.25739e-05
1.56424e-06
-2.17063e-05
-1.68681e-05
-8.95957e-05
7.45643e-05
2.93592e-05
-0.000182683
0.00014695
7.45043e-05
-0.000259843
0.000182687
0.00010947
-0.000305694
0.000179036
0.000118164
-0.00031182
0.000142442
8.588e-05
-0.000278567
8.31645e-05
1.21226e-05
-0.000214165
9.9979e-06
-8.37078e-05
-0.000132016
-7.06134e-05
-0.00017159
-4.65864e-05
-0.000151301
-0.000227985
3.0426e-05
-0.000222025
-0.000245697
9.11255e-05
-0.000271199
-0.000231306
0.000129952
-0.000288935
-0.000196938
0.000142448
-0.000153395
0.000125914
-0.000226678
-0.000182305
2.52215e-05
-0.000130985
-0.000133826
-6.18295e-05
-1.92922e-05
-8.60171e-05
-0.000156025
8.91119e-05
-3.55628e-05
-0.000242871
0.000175292
1.48104e-05
-0.000305711
0.000225736
5.36295e-05
-0.000330893
0.000235573
6.23462e-05
-0.000312283
0.000207887
2.5737e-05
-0.0002535
0.0001496
-5.38744e-05
-0.000167317
6.8078e-05
-0.000152675
-7.17234e-05
-2.84668e-05
-0.000238334
1.6213e-05
-0.000128675
-0.000289467
8.54809e-05
-0.000217825
-0.000302659
0.000130255
-0.000280941
-0.00028695
0.000147831
-0.00030658
-0.000254419
0.000136788
-0.00021315
9.87874e-05
-0.000237326
-0.000235508
-3.54158e-05
-0.000134182
-0.000191098
-0.000125671
-1.24047e-05
-0.000145242
-0.000213219
0.00010855
-9.39981e-05
-0.000284145
0.000209505
-4.07455e-05
-0.000324359
0.000275539
1.72111e-06
-0.000323461
0.000298752
1.34614e-05
-0.000278626
0.000278398
-2.11186e-05
-0.000197146
0.00021852
-9.81771e-05
-9.5971e-05
0.000126412
-0.000191593
3.19877e-06
1.26265e-05
-0.000269626
8.42946e-05
-0.000106672
-0.000313643
0.000137171
-0.000212785
-0.000323783
0.000159879
-0.000288028
-0.00031034
0.000152605
-0.000320065
-0.000284242
0.000117115
-0.000250162
5.96046e-05
-0.000242018
-0.000260593
-9.68614e-05
-0.000133358
-0.000223781
-0.000181257
-4.11256e-06
-0.000183208
-0.00025319
0.000126579
-0.000134557
-0.000300526
0.000239662
-8.13022e-05
-0.000312884
0.000319002
-3.64207e-05
-0.000283983
0.000353795
-2.01613e-05
-0.000214866
0.000339617
-4.8361e-05
-0.000116598
0.000277999
-0.000116764
-9.78457e-06
0.000175921
-0.000199389
8.35382e-05
4.72491e-05
-0.000266054
0.000147545
-8.79706e-05
-0.000301963
0.000177472
-0.00020744
-0.000309995
0.000174484
-0.000291611
-0.000300767
0.000141737
-0.000327872
-0.000283341
8.41315e-05
-0.000258983
1.16693e-05
-0.000241664
-0.000252063
-0.000149541
-0.000129739
-0.000225008
-0.000218906
3.66878e-06
-0.000191988
-0.000267628
0.000140192
-0.000148633
-0.000286495
0.00026137
-9.81684e-05
-0.000269394
0.000350512
-5.29622e-05
-0.000214385
0.000394573
-3.25992e-05
-0.000126456
0.000385907
-5.26494e-05
-2.03041e-05
0.000323122
-0.000109403
8.19186e-05
0.000213303
-0.000177905
0.000158281
7.29e-05
-0.000231248
0.000197988
-7.43133e-05
-0.000258487
0.000200856
-0.000203064
-0.000264668
0.000171547
-0.000292614
-0.000260034
0.000115941
-0.00033059
-0.000251538
4.16908e-05
-0.000237957
-3.74063e-05
-0.000237846
-0.000209792
-0.00018318
-0.000124477
-0.000193452
-0.000229863
1.03739e-05
-0.00016905
-0.000250488
0.000149438
-0.000132609
-0.000239625
0.000275205
-8.70755e-05
-0.000195416
0.000370989
-4.38076e-05
-0.000119944
0.000422234
-2.10631e-05
-2.20138e-05
0.000418006
-3.37084e-05
8.18055e-05
0.000354432
-7.79857e-05
0.000168024
0.000238299
-0.000131162
0.000218915
8.8754e-05
-0.000170415
0.0002295
-6.6924e-05
-0.000188794
0.000204572
-0.000201141
-0.000192989
0.000151769
-0.000292666
-0.000192377
7.92296e-05
-0.00033014
-0.000191881
-3.25962e-06
-0.000188608
-8.03205e-05
-0.000231783
-0.000139445
-0.000189758
-0.000118199
-0.000133654
-0.000209375
1.64127e-05
-0.000117717
-0.000201088
0.000156064
-8.85714e-05
-0.000163472
0.000284292
-4.91429e-05
-9.83752e-05
0.000384544
-9.51805e-06
-1.15236e-05
0.000440718
1.31072e-05
8.66244e-05
0.000439204
6.30372e-06
0.000176603
0.000373667
-2.61689e-05
0.000237636
0.000251342
-6.41367e-05
0.000257602
9.44263e-05
-8.96184e-05
0.000238246
-6.65941e-05
-9.96563e-05
0.00018871
-0.000202643
-0.000102019
0.000118788
-0.000292946
-0.000104868
3.81055e-05
-0.000327831
-0.0001111
-4.24748e-05
-0.000117064
-0.000108231
-0.000223975
-5.21524e-05
-0.000166348
-0.000110952
-5.54827e-05
-0.00015923
2.26339e-05
-4.67151e-05
-0.000126099
0.00016203
-2.41451e-05
-6.90187e-05
0.000291687
9.1302e-06
7.1893e-06
0.000394652
4.35367e-05
9.56284e-05
0.000453159
6.46459e-05
0.000182501
0.000451141
6.20115e-05
0.000249584
0.000380989
4.03148e-05
0.000279788
0.000251793
1.65541e-05
0.000268191
8.92288e-05
3.37521e-06
0.000222817
-7.37293e-05
3.43077e-08
0.000155919
-0.000207788
-1.5387e-06
7.83723e-05
-0.00029365
-7.80972e-06
2.7519e-08
-0.000324087
-1.99155e-05
-6.83136e-05
-3.35591e-05
-0.000115204
-0.000214263
3.72545e-05
-0.000116519
-0.000102459
2.73206e-05
-8.82115e-05
2.96559e-05
3.09775e-05
-3.90904e-05
0.000168422
4.84131e-05
2.63444e-05
0.000298256
7.59948e-05
0.000102554
0.000401474
0.000105175
0.000180629
0.000458436
0.000123949
0.000247351
0.000451358
0.000124858
0.000286068
0.000373516
0.000113181
0.000285307
0.000237417
0.000101983
0.000247268
7.21664e-05
9.82748e-05
0.000184667
-8.82161e-05
9.8576e-05
0.000111197
-0.000215864
9.55945e-05
3.75676e-05
-0.000294243
8.51478e-05
-2.72638e-05
-0.000318438
6.8103e-05
-7.53554e-05
4.8756e-05
-9.93068e-05
-0.000202645
0.000112779
-4.96917e-05
-9.2901e-05
9.9806e-05
-1.00733e-05
3.69987e-05
0.000100898
4.27105e-05
0.000173787
0.000114848
0.000103588
0.000301421
0.000137825
0.000166849
0.000400741
0.000162435
0.000224593
0.000450614
0.000179485
0.000265024
0.000433551
0.00018444
0.000275172
0.00034618
0.000182066
0.000249568
0.000205448
0.000180502
0.000195779
4.26922e-05
0.000181787
0.000128673
-0.000109187
0.000181232
6.15766e-05
-0.000225558
0.000174005
3.63158e-06
-0.000293439
0.00015873
-3.8818e-05
-0.00031023
0.000137998
-6.16354e-05
0.000115828
-6.29522e-05
-0.000190122
0.000161232
2.15075e-05
-8.37341e-05
0.000149607
6.04422e-05
4.23001e-05
0.000151025
0.000103536
0.000174515
0.000163477
0.000146538
0.000295676
0.000183404
0.000185638
0.000385208
0.000205029
0.000215441
0.000421889
0.000221955
0.000227784
0.000391206
0.000231476
0.000214704
0.000295169
0.000236147
0.000175701
0.000154989
0.00023866
0.000120642
1.89642e-06
0.000238063
6.35964e-05
-0.000134612
0.000231353
1.57255e-05
-0.000235046
0.000217313
-1.68838e-05
-0.000290297
0.000197768
-3.17595e-05
-0.000299359
0.000176234
-2.91345e-05
0.000155431
-1.23659e-05
-0.00018003
0.000175717
8.50659e-05
-7.82656e-05
0.000170208
0.00011203
4.20035e-05
0.000175126
0.000133908
0.000166362
0.000188445
0.000148549
0.000276015
0.000207588
0.000155494
0.000349796
0.000228706
0.000153504
0.000368644
0.000247324
0.000139779
0.000323637
0.000260324
0.000111911
0.000222779
0.000266301
7.2707e-05
9.03111e-05
0.000264257
3.13668e-05
-4.53114e-05
0.000253108
-1.86236e-06
-0.000160854
0.000234483
-2.01769e-05
-0.000242625
0.000212491
-2.18173e-05
-0.000285166
0.000191356
-8.38304e-06
-0.000287894
0.000173988
1.56533e-05
0.00016022
4.35052e-05
-0.000177782
0.000132948
-8.11191e-05
0.000140487
3.24866e-05
0.00013426
0.000146918
0.00011504
0.000241788
8.63501e-05
0.000296526
5.19303e-05
0.000296533
1.47475e-05
0.000240172
-2.19326e-05
0.000141363
-5.27494e-05
2.38278e-05
-7.04686e-05
-8.92434e-05
-7.0289e-05
-0.000182065
-5.20933e-05
-0.000246713
-1.9749e-05
-0.000279826
2.05103e-05
-0.00027987
6.16096e-05
9.46087e-05
-0.000175027
8.65747e-06
0.00013021
-9.75308e-05
7.10587e-06
8.26101e-05
-9.63176e-06
2.46044e-05
2.81259e-05
7.28216e-05
6.3696e-05
-2.13877e-05
0.000132408
0.000122873
-5.49786e-05
0.00015601
0.000194382
-6.79732e-05
0.000139108
0.000264274
-6.29686e-05
8.70991e-05
0.00031585
-4.62377e-05
1.30233e-05
0.000335409
-2.2909e-05
-6.7473e-05
0.000318055
5.32396e-06
-0.000141325
0.00027035
3.84116e-05
-0.000200616
0.000206788
7.50441e-05
-0.0002415
0.000142602
0.000111032
-0.000261701
8.77969e-05
0.000139831
-0.000258897
4.62745e-05
0.000154242
1.85963e-05
0.000148369
-0.000164136
-6.21498e-05
0.000154968
-8.84844e-05
-4.83233e-05
8.2969e-05
-4.07515e-06
-1.87634e-05
2.69006e-06
7.25757e-05
2.95152e-05
-7.11721e-05
0.000124429
9.45665e-05
-0.000124337
0.000139863
0.000167103
-0.000148283
0.000116953
0.000230968
-0.000142383
6.39596e-05
0.000267906
-0.000111768
-4.62956e-06
0.000265471
-6.35154e-05
-7.46663e-05
0.000223809
-4.26764e-06
-0.000137013
0.00015649
5.94311e-05
-0.000187816
8.33362e-05
0.000120573
-0.000225095
2.06466e-05
0.000171571
-0.000245735
-2.41833e-05
0.000204907
-0.00024511
-5.12847e-05
0.000213987
-6.2872e-05
0.000194504
-0.000158801
-0.000148462
0.000145744
-8.04102e-05
-0.000121301
5.32522e-05
6.12652e-06
-8.07213e-05
-4.54887e-05
8.32722e-05
-2.34094e-05
-0.000133488
0.000134346
4.77489e-05
-0.000194239
0.000149497
0.000121429
-0.000217493
0.000128899
0.000179097
-0.000201653
8.1682e-05
0.000201367
-0.000152345
2.08567e-05
0.000177954
-7.93264e-05
-4.30134e-05
0.000114893
5.98668e-06
-0.00010396
3.22652e-05
9.15362e-05
-0.000159171
-4.62341e-05
0.000166288
-0.000204707
-0.000105171
0.000221143
-0.000233987
-0.000140648
0.000249216
-0.000239472
-0.00015602
0.000245671
-0.000154989
0.000208856
-0.000158975
-0.000237007
0.000104835
-7.44825e-05
-0.000201394
-2.83433e-06
1.91885e-05
-0.000153158
-0.00011083
0.000103623
-8.88305e-05
-0.000201697
0.000162383
-1.2466e-05
-0.000258388
0.000186153
6.27125e-05
-0.000270747
0.000175075
0.000116042
-0.000237688
0.000136802
0.000127478
-0.000166405
8.13708e-05
8.91246e-05
-6.99042e-05
1.64268e-05
1.21851e-05
3.56362e-05
-5.36082e-05
-7.80595e-05
0.000133773
-0.000123716
-0.000156774
0.000211074
-0.000185629
-0.000210901
0.000258769
-0.00022839
-0.000240021
0.000272087
-0.000241695
-0.000249367
0.0002491
-0.000242015
0.000191835
-0.000162918
-0.00031449
3.73958e-05
-7.12864e-05
-0.000276419
-7.84369e-05
3.17458e-05
-0.000225558
-0.000186657
0.000127603
-0.000157982
-0.000269577
0.000199824
-7.84345e-05
-0.000311964
0.000238375
-1.42728e-06
-0.000305304
0.000241261
5.0925e-05
-0.000250053
0.000212846
5.79141e-05
-0.000155521
0.000159656
1.32492e-05
-3.82521e-05
8.72097e-05
-6.81613e-05
8.10696e-05
1.15854e-06
-0.000158392
0.000182597
-8.93204e-05
-0.000233032
0.000252217
-0.000170656
-0.000282463
0.000283153
-0.000227784
-0.000308944
0.000273881
-0.000248619
-0.000318071
0.000226327
-0.000310822
0.000147202
-0.000168698
-0.000369292
-4.86174e-05
-7.12269e-05
-0.000334502
-0.000165059
4.0352e-05
-0.000286263
-0.000264092
0.00014792
-0.000219928
-0.000329767
0.000235135
-0.000140092
-0.000349917
0.00029052
-6.14501e-05
-0.000318823
0.000308776
-6.81167e-06
-0.000239146
0.000289919
2.28875e-06
-0.000122663
0.000236804
-4.01089e-05
1.05022e-05
0.000153711
-0.000117585
0.000135716
4.94345e-05
-0.000201082
0.000231261
-6.1746e-05
-0.000268727
0.000284047
-0.000161048
-0.000314093
0.000290811
-0.000230354
-0.000340967
0.000253934
-0.000256978
-0.000354197
0.000179865
-0.000352025
8.05312e-05
-0.000175458
-0.000393454
-0.000142197
-7.43869e-05
-0.000366461
-0.000250369
4.31387e-05
-0.000325224
-0.000331754
0.000159994
-0.000264142
-0.000373166
0.000260237
-0.000186934
-0.000366285
0.000331007
-0.000107516
-0.000308686
0.000363502
-4.85937e-05
-0.00020558
0.000353078
-3.25201e-05
-7.13658e-05
0.000298781
-6.60733e-05
7.04772e-05
0.000204988
-0.000132774
0.00019252
8.37592e-05
-0.000205049
0.00027274
-4.48883e-05
-0.000263846
0.000301238
-0.000157918
-0.000305593
0.000279014
-0.000235536
-0.000334667
0.000213055
-0.000265465
-0.000354483
0.000114346
-0.000360803
-6.11948e-08
-0.000183193
-0.000383684
-0.000229532
-8.0515e-05
-0.000367562
-0.000320482
4.01588e-05
-0.000336172
-0.000377354
0.000162963
-0.000282972
-0.000390469
0.000272604
-0.000210519
-0.00035545
0.000355267
-0.000131473
-0.000273091
0.000399127
-6.78011e-05
-0.000151109
0.000395154
-4.23865e-05
-6.46478e-06
0.000339158
-6.30522e-05
0.000134893
0.000235625
-0.000114943
0.000243982
0.000100723
-0.000173071
0.000300912
-4.05669e-05
-0.000221956
0.000300255
-0.000162169
-0.000260313
0.000247869
-0.000243837
-0.000292331
0.000155274
-0.000274634
-0.000319723
3.77269e-05
-0.000336229
-8.32005e-05
-0.000191933
-0.000341728
-0.000296119
-8.88734e-05
-0.000337977
-0.000362508
3.28409e-05
-0.000317461
-0.000390913
0.000158633
-0.000273018
-0.000375372
0.000273963
-0.000206236
-0.00031503
0.000364471
-0.000128532
-0.000213393
0.00041591
-6.0943e-05
-8.03107e-05
0.00041579
-2.58305e-05
6.53699e-05
0.00035709
-3.21787e-05
0.00019585
0.000245173
-6.73259e-05
0.000283215
0.00010022
-0.000110077
0.00031146
-4.87559e-05
-0.000148873
0.000280464
-0.000173928
-0.000184181
0.000200809
-0.00025568
-0.000219508
8.81579e-05
-0.00028503
-0.000254837
-3.87957e-05
-0.000282396
-0.000156266
-0.000201035
-0.000273699
-0.000329787
-9.82008e-05
-0.000282272
-0.000367914
2.32376e-05
-0.000271922
-0.000368066
0.000149901
-0.000235498
-0.000327655
0.000267933
-0.000174134
-0.000248509
0.000362428
-9.84801e-05
-0.00013607
0.000417687
-2.79301e-05
-1.64697e-06
0.000418099
1.57613e-05
0.000134598
0.000355173
2.3442e-05
0.000244941
0.000235892
5.14555e-06
0.000304412
8.42294e-05
-2.26264e-05
0.000302458
-6.78901e-05
-5.23371e-05
0.000244294
-0.000192193
-8.56238e-05
0.000144534
-0.000270632
-0.000124814
2.18506e-05
-0.000296486
-0.000168237
-0.000103221
-0.000206931
-0.00020715
-0.000209208
-0.000189244
-0.000323828
-0.000106971
-0.000208633
-0.000335106
1.34003e-05
-0.00020638
-0.000312013
0.000139542
-0.000176138
-0.00025452
0.000257866
-0.000119249
-0.00016602
0.000353351
-4.54645e-05
-5.28728e-05
0.000408395
2.68734e-05
7.26542e-05
0.000405748
7.78131e-05
0.000190179
0.000336722
9.83781e-05
0.000273878
0.000210907
9.55647e-05
0.000303587
5.57166e-05
8.06832e-05
0.000274698
-9.53382e-05
5.76005e-05
0.000197036
-0.000214787
2.42347e-05
8.79629e-05
-0.000287093
-1.99384e-05
-3.2542e-05
-0.000307722
-7.13562e-05
-0.000144565
-0.000120337
-0.000227287
-0.000214888
-0.000100539
-0.000278857
-0.000113689
-0.000128023
-0.000270021
4.98627e-06
-0.000131071
-0.000233075
0.000129373
-0.000104784
-0.000169398
0.000246143
-5.08304e-05
-8.26338e-05
0.000339295
2.13259e-05
2.06869e-05
0.000390116
9.49861e-05
0.000128417
0.000380723
0.000152183
0.000221091
0.000304011
0.000184125
0.000276272
0.000173039
0.000194216
0.000279589
1.79156e-05
0.000188538
0.000231935
-0.000127785
0.000168224
0.000146275
-0.000238917
0.000132073
4.08608e-05
-0.000302539
8.16428e-05
-6.52228e-05
-0.000316713
2.26643e-05
-0.000155202
-3.46968e-05
-0.000213139
-0.000216647
-2.11409e-05
-0.000202565
-0.000117177
-5.30873e-05
-0.00018448
-1.08017e-06
-5.84387e-05
-0.000146018
0.000120192
-3.38577e-05
-8.86098e-05
0.000232796
1.84733e-05
-1.50588e-05
0.000319871
8.96455e-05
6.91985e-05
0.000362135
0.000164689
0.000153057
0.000342734
0.000227545
0.000219212
0.00025794
0.000268941
0.000249546
0.000124609
0.0002881
0.000235225
-2.58414e-05
0.000286538
0.000181123
-0.000161669
0.000264295
0.000101333
-0.000261048
0.000222334
1.27491e-05
-0.000314262
0.000165013
-6.89741e-05
-0.000321329
0.000100021
-0.000131925
3.75018e-05
-0.000166357
-0.000213576
3.58661e-05
-0.000107816
-0.000116841
3.87907e-06
-9.32592e-05
-4.62595e-06
-7.54121e-07
-6.6363e-05
0.000111322
2.40834e-05
-2.73515e-05
0.000216326
7.60604e-05
2.30476e-05
0.000292855
0.000147026
8.15307e-05
0.00032226
0.00022365
0.000139418
0.000290746
0.000291114
0.00018265
0.000199326
0.000338606
0.000197456
6.8114e-05
0.000361106
0.000178848
-7.21114e-05
0.000357236
0.000133124
-0.000193284
0.000328164
7.30294e-05
-0.000277974
0.000278325
1.18159e-05
-0.000319701
0.000215064
-4.00842e-05
-0.000319792
0.000147385
-7.64073e-05
8.44866e-05
-9.32511e-05
-0.000205874
6.08416e-05
-1.00647e-05
-0.000113069
3.40245e-05
-1.09198e-05
-6.4749e-06
3.3279e-05
-6.71913e-06
0.00010144
6.03477e-05
4.36971e-06
0.000194734
0.000113141
2.51191e-05
0.000256059
0.000184517
5.46878e-05
0.000269183
0.000262138
8.81673e-05
0.000225399
0.000331083
0.000115726
0.000130963
0.000378208
0.000127541
7.83308e-06
0.000395495
0.000120107
-0.000116138
0.000381548
9.77966e-05
-0.000218355
0.000341286
6.89181e-05
-0.000286506
0.0002836
4.10588e-05
-0.000316924
0.000218249
1.88507e-05
-0.000311381
0.000153833
3.66228e-06
9.72966e-05
-4.65618e-06
-0.000195139
7.49742e-05
-0.000107476
5.07032e-05
-8.10572e-06
2.59142e-05
8.90116e-05
5.43807e-06
0.00016695
-5.47623e-06
0.00020944
-4.36833e-06
0.000204872
7.45292e-06
0.000151667
2.45191e-05
6.09386e-05
4.1381e-05
-4.63472e-05
5.55203e-05
-0.000148257
6.73547e-05
-0.000229236
7.78778e-05
-0.000281755
8.68217e-05
-0.000303808
9.24391e-05
-0.000295928
9.2295e-05
8.43435e-05
-0.000142023
-9.34019e-05
0.000116227
-8.18789e-05
-0.000116327
4.34423e-05
-1.92658e-05
-0.00010441
-2.54387e-05
3.27107e-05
-5.29182e-05
-7.36158e-05
6.22402e-05
3.49362e-05
-8.9906e-05
6.33255e-05
0.000146535
-7.36447e-05
3.72478e-05
0.000261694
-3.35222e-05
-9.1211e-06
0.000357478
1.78622e-05
-6.59955e-05
0.000414246
6.95935e-05
-0.000123079
0.000421585
0.000115614
-0.000171907
0.000381591
0.000154317
-0.000207292
0.000306895
0.00018547
-0.000227261
0.000214485
0.000207231
-0.000231456
0.000119498
0.000215199
-0.000219388
3.27328e-05
0.000203663
-3.73544e-05
0.000168868
-0.000113495
-0.000155624
0.000168081
-5.43781e-05
-0.000162361
6.98857e-05
5.85098e-06
-0.000137859
-2.40902e-05
5.42451e-05
-7.76386e-05
-9.48457e-05
7.95558e-05
1.43491e-05
-0.00012906
7.63183e-05
0.000124472
-0.000122983
4.63846e-05
0.000231499
-8.22535e-05
-2.06763e-06
0.000311988
-1.78264e-05
-5.75797e-05
0.000347686
5.85569e-05
-0.000109369
0.000332136
0.000136971
-0.000150817
0.000273021
0.000209449
-0.000179914
0.000187849
0.000268715
-0.000196885
9.54988e-05
0.000307528
-0.000201254
9.57995e-06
0.000319194
-0.000190668
-6.25954e-05
0.000298729
-0.000115879
0.000244965
-9.16009e-05
-0.000234156
0.000173381
-2.92084e-05
-0.000225928
5.44269e-05
3.43346e-05
-0.000189636
-5.72546e-05
8.51479e-05
-0.000121157
-0.000140784
0.000111984
-2.54257e-05
-0.0001813
0.000110265
8.27735e-05
-0.000174075
8.30023e-05
0.000181061
-0.000123952
3.90123e-05
0.000245665
-4.20311e-05
-1.09437e-05
0.000260138
5.81781e-05
-5.83129e-05
0.000222597
0.000162895
-9.91741e-05
0.00014659
0.000258828
-0.000132935
5.41201e-05
0.000333779
-0.000158569
-3.54545e-05
0.00037773
-0.000172342
-0.000111306
0.000383875
-0.000168544
-0.000169685
0.000348963
-0.000207775
0.000274705
-7.89056e-05
-0.000314923
0.000132463
-1.08993e-05
-0.000296461
-3.07053e-07
6.00956e-05
-0.000251671
-0.00011979
0.000119327
-0.0001772
-0.000204885
0.000155263
-7.88995e-05
-0.00024085
0.000163168
2.73965e-05
-0.000223275
0.000145548
0.00011835
-0.000157358
0.000110009
0.00017006
-5.52614e-05
6.52352e-05
0.000167988
6.70191e-05
1.72039e-05
0.000114614
0.000191651
-3.18022e-05
2.8556e-05
0.000300814
-7.99335e-05
-6.58033e-05
0.000379128
-0.000122332
-0.00015041
0.000416123
-0.000150688
-0.000217834
0.000406971
-0.000155999
-0.000266866
0.000351592
-0.000295253
0.000255358
-7.58893e-05
-0.000384187
5.20746e-05
-2.13336e-06
-0.000361726
-8.69279e-05
7.77611e-05
-0.000313896
-0.000204327
0.000148796
-0.000237523
-0.000280288
0.000199045
-0.000138936
-0.000302176
0.000222491
-3.43559e-05
-0.000266998
0.000219356
5.23629e-05
-0.000180931
0.000194295
9.71073e-05
-5.75059e-05
0.000152962
8.66066e-05
8.44623e-05
9.92147e-05
2.64767e-05
0.000222954
3.57256e-05
-6.14607e-05
0.000336102
-3.22277e-05
-0.00015248
0.000406848
-9.45625e-05
-0.000231089
0.000426168
-0.000138447
-0.000293061
0.000392993
-0.000152689
-0.000338168
0.00031187
-0.000363192
0.000192926
-8.13475e-05
-0.000431132
-5.63051e-05
-3.529e-06
-0.000410954
-0.000193649
8.40099e-05
-0.000365917
-0.00029961
0.000166703
-0.000292471
-0.000357512
0.000232359
-0.000196468
-0.000358041
0.000273181
-9.36183e-05
-0.000300382
0.000286124
-7.73837e-06
-0.000191988
0.000271887
3.66626e-05
-4.79816e-05
0.000232616
2.65077e-05
0.000109873
0.000170593
-3.11559e-05
0.000255371
9.03972e-05
-0.00011343
0.000363426
2.05931e-06
-0.000196984
0.000416889
-7.85285e-05
-0.000269641
0.000409951
-0.000135527
-0.000328899
0.000346771
-0.000156845
-0.000374567
0.000237582
-0.000401568
9.80429e-05
-9.39514e-05
-0.000449526
-0.000177494
-1.41615e-05
-0.00043677
-0.000304343
7.84294e-05
-0.000399508
-0.000390755
0.000170154
-0.000333145
-0.000424217
0.000248842
-0.000242226
-0.000399214
0.000305108
-0.000141255
-0.000317315
0.000332656
-5.35068e-05
-0.000187359
0.000328012
-3.91899e-06
-2.61403e-05
0.000289677
-6.32803e-06
0.000141648
0.00021902
-5.39422e-05
0.000285963
0.000123421
-0.000124841
0.00037975
1.83274e-05
-0.000198362
0.000407709
-7.61511e-05
-0.000265175
0.000369026
-0.000141985
-0.000323877
0.000273866
-0.000167547
-0.000373196
0.000138537
-0.000406149
-1.5385e-05
-0.000112238
-0.000438064
-0.000293789
-3.20094e-05
-0.000436349
-0.000401133
6.30727e-05
-0.000410148
-0.000461796
0.000160287
-0.000353284
-0.000467545
0.000247794
-0.000268723
-0.00041646
0.0003152
-0.000169544
-0.000312209
0.000353653
-7.81928e-05
-0.000164876
0.000355926
-1.9865e-05
7.20835e-06
0.000317353
-9.47142e-06
0.000176609
0.000238801
-4.18958e-05
0.000310488
0.000131017
-9.78125e-05
0.000381668
1.42703e-05
-0.000159992
0.000378632
-8.8086e-05
-0.000221578
0.000306629
-0.000157813
-0.000281174
0.000182297
-0.000184524
-0.000336128
2.73705e-05
-0.000378027
-0.000130812
-0.000134094
-0.00039991
-0.000387085
-5.40864e-05
-0.00041118
-0.000467685
4.14307e-05
-0.000397158
-0.00049942
0.000140725
-0.000350103
-0.000477848
0.00023249
-0.000271637
-0.00040388
0.000305911
-0.000173658
-0.0002827
0.000350427
-7.77194e-05
-0.0001253
0.000356033
-8.86135e-06
4.87608e-05
0.000315591
1.68322e-05
0.000209987
0.000230239
2.22633e-06
0.000324445
0.000114187
-3.72936e-05
0.000366993
-8.46641e-06
-8.82857e-05
0.000331411
-0.000112968
-0.000145715
0.000229447
-0.000181822
-0.000207682
8.35191e-05
-0.000206859
-0.000270119
-7.97668e-05
-0.000323038
-0.000231209
-0.000156583
-0.000341482
-0.00044204
-7.70809e-05
-0.000365929
-0.000492666
1.73376e-05
-0.000363113
-0.00049653
0.000115885
-0.000324317
-0.000451987
0.000207897
-0.000250397
-0.000361761
0.000282508
-0.000152525
-0.000231815
0.000328191
-5.13825e-05
-7.36669e-05
0.000333119
2.84561e-05
9.23529e-05
0.000288819
7.01479e-05
0.000235926
0.000197757
7.35409e-05
0.000324159
7.72884e-05
4.96872e-05
0.000335946
-4.60072e-05
8.1641e-06
0.00027114
-0.000147455
-4.71568e-05
0.000147424
-0.000211368
-0.000113381
-8.53725e-06
-0.000231956
-0.000184844
-0.000167907
-0.000250127
-0.000301609
-0.000176561
-0.000271152
-0.000449454
-9.78991e-05
-0.000307281
-0.000472416
-5.78216e-06
-0.000313093
-0.000454149
8.989e-05
-0.000279816
-0.000394693
0.000179013
-0.000208201
-0.00029734
0.000250829
-0.00010899
-0.000168224
0.000293256
-2.16084e-06
-1.89946e-05
0.000293607
8.83989e-05
0.000129885
0.000243652
0.000145206
0.000248774
0.000147949
0.000164939
0.000307892
2.66543e-05
0.000153979
0.000291701
-9.26744e-05
0.000118581
0.000205947
-0.000186715
6.23279e-05
7.25193e-05
-0.000242345
-1.03794e-05
-7.9914e-05
-0.000256242
-9.20311e-05
-0.000223482
-0.00016974
-0.000332057
-0.000191431
-0.000198179
-0.000408402
-0.000114109
-0.000243126
-0.000411498
-2.51946e-05
-0.00025417
-0.000380911
6.60723e-05
-0.000223338
-0.000317142
0.000150009
-0.000151699
-0.000223072
0.000215808
-4.97909e-05
-0.00010431
0.000251192
6.31186e-05
2.77535e-05
0.000243729
0.000163773
0.00015318
0.000186827
0.000233854
0.000244527
8.79427e-05
0.000266632
0.000276781
-3.07211e-05
0.000264119
0.00024046
-0.000142114
0.000230308
0.000145941
-0.000225401
0.000169534
1.69415e-05
-0.000270377
8.83489e-05
-0.000118976
-0.000276117
-3.70835e-06
-0.000237784
-9.2329e-05
-0.000318663
-0.000199358
-0.000132143
-0.000325948
-0.000123915
-0.000182134
-0.000320915
-3.88952e-05
-0.000194925
-0.000290284
4.68424e-05
-0.000163809
-0.000233877
0.00012368
-9.03226e-05
-0.000153273
0.000180701
1.52062e-05
-5.28202e-05
0.000205959
0.000134237
5.66803e-05
0.000188399
0.000243895
0.000156649
0.000124356
0.000324563
0.000222881
2.44443e-05
0.000365964
0.000235804
-8.81771e-05
0.000366529
0.000191334
-0.000188364
0.000329405
0.000102423
-0.000258568
0.000260826
-8.33895e-06
-0.000291638
0.000170068
-0.000117623
-0.000288817
6.88953e-05
-0.00020735
-2.7623e-05
-0.000263176
-0.000198978
-8.25385e-05
-0.000215072
-0.000125921
-0.000133148
-0.000215301
-4.54202e-05
-0.000144486
-0.000197303
3.36488e-05
-0.000111039
-0.00015919
0.000101492
-3.47283e-05
-0.000100389
0.000147313
7.45718e-05
-2.36566e-05
0.000160157
0.000198873
6.19388e-05
0.000131499
0.000315485
0.000139718
6.13406e-05
0.000403031
0.000189146
-3.69304e-05
0.000447763
0.00019532
-0.000140378
0.000445669
0.000157431
-0.000226815
0.000400667
8.82046e-05
-0.000282501
0.000322085
6.24373e-06
-0.000303372
0.000222334
-7.14785e-05
-0.000292335
0.000115103
-0.000133652
1.55125e-05
-0.000172091
-0.000189278
-5.72369e-05
-9.2749e-05
-0.000119204
-0.000103492
-0.00011065
-4.40112e-05
-0.000110416
-0.000115982
2.68827e-05
-7.32027e-05
-0.00010436
8.34704e-05
6.31285e-06
-7.25098e-05
0.000115458
0.000118302
-2.10294e-05
0.000114107
0.000245196
4.31952e-05
7.45744e-05
0.000364137
0.000106607
7.73966e-07
0.000452004
0.000152368
-9.214e-05
0.000492585
0.000168198
-0.000182814
0.000481378
0.000152762
-0.000253049
0.00042507
0.000114749
-0.00029338
0.000337002
6.64725e-05
-0.000302664
0.000232334
1.81346e-05
-0.000284845
0.000125286
-2.43395e-05
2.95505e-05
-5.68787e-05
-0.00016982
2.07114e-05
-0.000103724
-2.35341e-05
-3.48397e-05
-5.80249e-05
2.6182e-05
-7.56166e-05
6.83435e-05
-7.08632e-05
8.2759e-05
-4.24306e-05
6.50849e-05
5.2601e-06
1.65585e-05
6.19738e-05
-5.45699e-05
0.000114639
-0.000133781
0.000152525
-0.000204959
0.000171243
-0.000256156
0.000172209
-0.000282237
0.000159188
-0.000283557
0.000135423
-0.000263141
0.000102942
6.44748e-05
-7.49134e-05
-0.000167078
0.00010435
-4.20931e-05
-0.000211629
2.08653e-05
-1.68782e-05
-0.000207565
-5.1846e-05
-6.9196e-06
-0.000149493
-9.39871e-05
-1.61055e-05
-4.3444e-05
-9.58697e-05
-4.2343e-05
9.37708e-05
-6.09693e-05
-7.88748e-05
0.000238223
-1.96772e-06
-0.000117622
0.000364269
6.59051e-05
-0.000151845
0.00044969
0.000129688
-0.000177062
0.000480592
0.000181569
-0.000190736
0.00045467
0.0002192
-0.000192144
0.000380723
0.00024343
-0.000182495
0.000274325
0.000254771
-0.000164358
0.000152505
0.000250909
-0.000139968
3.05945e-05
0.000226601
-7.72958e-05
0.000176737
-3.34478e-05
-0.000210498
0.000176054
-1.00318e-06
-0.000239144
6.49565e-05
2.26324e-05
-0.000222799
-3.24919e-05
3.1157e-05
-0.000157477
-9.53859e-05
2.10695e-05
-4.96926e-05
-0.000112724
-5.84617e-06
8.35498e-05
-8.58463e-05
-4.38014e-05
0.000218675
-2.47507e-05
-8.48039e-05
0.000330551
5.68946e-05
-0.000120829
0.000398353
0.00014592
-0.000145712
0.000410697
0.000231749
-0.00015659
0.000368677
0.000306319
-0.000154308
0.000284472
0.000362684
-0.00014214
0.000175815
0.00039387
-0.000123427
5.98348e-05
0.000393151
-9.96181e-05
-5.00177e-05
0.000355533
-0.000142632
0.000279577
3.44812e-07
-0.000268538
0.000194882
3.59417e-05
-0.000281343
6.10288e-05
6.39597e-05
-0.000253287
-5.47846e-05
7.67033e-05
-0.000181344
-0.00012966
7.04534e-05
-7.28054e-05
-0.000151937
4.70095e-05
5.53113e-05
-0.000122393
1.25226e-05
0.000179659
-5.04488e-05
-2.48447e-05
0.000275697
5.01898e-05
-5.71782e-05
0.000324004
0.000164861
-7.93284e-05
0.000316188
0.000279553
-9.02325e-05
0.000257524
0.000380886
-9.23012e-05
0.000164293
0.000456026
-8.84996e-05
5.60848e-05
0.000493659
-7.96495e-05
-5.10121e-05
0.000485871
-6.36133e-05
-0.000146536
0.000429446
-0.000222302
0.000326956