/*--------------------------------*- C++ -*----------------------------------*\
| =========                 |                                                 |
| \\      /  F ield         | OpenFOAM: The Open Source CFD Toolbox           |
|  \\    /   O peration     | Version:  3.0.0                                 |
|   \\  /    A nd           | Web:      www.OpenFOAM.org                      |
|    \\/     M anipulation  |                                                 |
\*---------------------------------------------------------------------------*/
FoamFile
{
    version     2.0;
    format      ascii;
    class       volVectorField;
    location    "1.5";
    object      U;
}
// * * * * * * * * * * * * * * * * * * * * * * * * * * * * * * * * * * * * * //

dimensions      [0 1 -1 0 0 0 0];

internalField   nonuniform List<vector> 
4096
(
(-0.0531342 0.0349635 0.0383355)
(-0.0331753 0.037576 0.0395171)
(-0.00947098 0.0412983 0.0343239)
(0.0162818 0.045976 0.0232793)
(0.039216 0.0515809 0.00813021)
(0.0542111 0.0576845 -0.0089672)
(0.0575577 0.0631207 -0.0259144)
(0.0484645 0.0661229 -0.040569)
(0.0296209 0.0649491 -0.0505334)
(0.00596266 0.0589195 -0.0537273)
(-0.0176668 0.049334 -0.0492519)
(-0.0380699 0.0390905 -0.037892)
(-0.0536601 0.0311134 -0.0217414)
(-0.0636457 0.0268655 -0.00357566)
(-0.0674607 0.026133 0.0136418)
(-0.0631488 0.0274865 0.0267183)
(-0.0554066 0.0214193 0.0340391)
(-0.0361003 0.0277842 0.0291922)
(-0.0132582 0.0343731 0.0170691)
(0.0111479 0.0412689 -0.000919753)
(0.0320594 0.0485602 -0.0217653)
(0.0445504 0.0555827 -0.0419395)
(0.0456612 0.0604577 -0.0583153)
(0.0357258 0.0605211 -0.0685837)
(0.0181905 0.0538508 -0.0713265)
(-0.00230142 0.0410095 -0.0661789)
(-0.0221767 0.0255033 -0.0541045)
(-0.0396219 0.0120512 -0.037098)
(-0.0537245 0.00405915 -0.0176955)
(-0.0635622 0.00229562 0.001417)
(-0.0680077 0.00539568 0.0175622)
(-0.0645183 0.0109169 0.0279211)
(-0.0597579 0.00243432 0.0265098)
(-0.0398999 0.011996 0.0160148)
(-0.0166279 0.0211528 -0.00159546)
(0.00797968 0.0302215 -0.0241388)
(0.0287355 0.0392233 -0.0476544)
(0.0410063 0.0469266 -0.0677121)
(0.0424689 0.0505104 -0.0807268)
(0.0339903 0.0466671 -0.0847389)
(0.0188655 0.0339976 -0.0796059)
(0.000757667 0.0149141 -0.0668389)
(-0.0179214 -0.00498301 -0.0490092)
(-0.0358924 -0.0198486 -0.028945)
(-0.0518843 -0.0265799 -0.0091705)
(-0.0640953 -0.025453 0.00811622)
(-0.0706005 -0.0188572 0.0208411)
(-0.0682527 -0.00981471 0.026871)
(-0.0651977 -0.01828 0.0164667)
(-0.0437947 -0.00646402 0.00124341)
(-0.0188425 0.00472183 -0.0198894)
(0.00765351 0.0158242 -0.044121)
(0.030397 0.0266033 -0.0670043)
(0.0448747 0.0350856 -0.0838522)
(0.0489134 0.0375265 -0.0912505)
(0.043192 0.0302493 -0.0880415)
(0.0302681 0.0127078 -0.075534)
(0.0127763 -0.0108517 -0.0568921)
(-0.00746023 -0.0331998 -0.0358553)
(-0.0288402 -0.0481494 -0.0154841)
(-0.0490627 -0.0533652 0.00212455)
(-0.0651771 -0.0501384 0.0154412)
(-0.0745126 -0.0414846 0.023089)
(-0.0733311 -0.0304271 0.023824)
(-0.070307 -0.0383609 0.00471077)
(-0.0469291 -0.025672 -0.0137229)
(-0.019675 -0.0134116 -0.036038)
(0.00971477 -0.000819244 -0.059017)
(0.0358152 0.0115277 -0.0782592)
(0.0540255 0.020939 -0.0894639)
(0.0618451 0.0229231 -0.0899151)
(0.0592255 0.0136429 -0.0795472)
(0.0477559 -0.00659484 -0.0611039)
(0.0293247 -0.0321082 -0.0390327)
(0.00574845 -0.0547531 -0.0175733)
(-0.0205055 -0.0686807 0.000549637)
(-0.0458535 -0.0725404 0.0139765)
(-0.0662658 -0.0684085 0.021888)
(-0.0784966 -0.0594715 0.0235979)
(-0.0782892 -0.0482178 0.0188468)
(-0.0740204 -0.0550308 -0.00770988)
(-0.0488101 -0.0428516 -0.0273111)
(-0.0193591 -0.0306074 -0.0482871)
(0.0129162 -0.017365 -0.0673375)
(0.042555 -0.00394585 -0.0806034)
(0.0647911 0.00647243 -0.084683)
(0.0765577 0.00890217 -0.0779353)
(0.0768396 -0.000596255 -0.0615138)
(0.0662357 -0.0211415 -0.0393937)
(0.0461542 -0.0461978 -0.0167404)
(0.018745 -0.0674388 0.00240134)
(-0.0124647 -0.0796954 0.0161735)
(-0.0426458 -0.0825876 0.0240637)
(-0.0668817 -0.0786599 0.0259035)
(-0.0815411 -0.0709148 0.0216438)
(-0.0819856 -0.0609967 0.0120149)
(-0.0759387 -0.0655097 -0.0193084)
(-0.0493628 -0.0549145 -0.0376781)
(-0.0183219 -0.0436702 -0.0548452)
(0.0161039 -0.0307013 -0.0678104)
(0.0485526 -0.0169128 -0.0736489)
(0.0741702 -0.00566021 -0.0701845)
(0.0893621 -0.00214327 -0.057044)
(0.0921666 -0.010397 -0.0365716)
(0.0822397 -0.0293226 -0.0136014)
(0.0605499 -0.052142 0.00666454)
(0.0296967 -0.0708328 0.0211167)
(-0.00571968 -0.0810987 0.0290159)
(-0.0398012 -0.0833665 0.0306915)
(-0.0669407 -0.0803673 0.0265259)
(-0.0832906 -0.0746885 0.0170296)
(-0.084025 -0.0670623 0.00382859)
(-0.076313 -0.0677654 -0.0280832)
(-0.0488503 -0.0594775 -0.042795)
(-0.0169385 -0.0499612 -0.0540397)
(0.0186822 -0.0380731 -0.0595349)
(0.0528805 -0.0246761 -0.0575389)
(0.0808624 -0.0130407 -0.0472176)
(0.0986984 -0.00830891 -0.0294636)
(0.103637 -0.0145384 -0.00761722)
(0.0943912 -0.030693 0.01315)
(0.0714698 -0.0501819 0.0283578)
(0.0378831 -0.06563 0.0363102)
(-0.000790068 -0.0737256 0.0375258)
(-0.0376966 -0.0755191 0.0330276)
(-0.0667126 -0.0737175 0.0236261)
(-0.0839318 -0.0703817 0.010325)
(-0.0846363 -0.0654723 -0.00457813)
(-0.0755906 -0.0610472 -0.0319924)
(-0.047632 -0.0554552 -0.0409988)
(-0.0154315 -0.0480867 -0.0449456)
(0.0205962 -0.0378362 -0.0426039)
(0.0556392 -0.0254805 -0.0334808)
(0.0850819 -0.0140558 -0.0180029)
(0.104846 -0.00844037 0.00185184)
(0.111512 -0.0125759 0.0220937)
(0.102872 -0.0255297 0.0378108)
(0.078954 -0.0411582 0.0458875)
(0.0431633 -0.0530342 0.0463548)
(0.00205259 -0.0588564 0.040882)
(-0.0366901 -0.0601588 0.0309987)
(-0.0666085 -0.0594817 0.0178481)
(-0.083932 -0.0583484 0.0027925)
(-0.0842875 -0.0561904 -0.0115515)
(-0.0741398 -0.0460969 -0.0296131)
(-0.0459696 -0.0432942 -0.0317347)
(-0.0138487 -0.0381734 -0.0281269)
(0.0221161 -0.0298013 -0.0187582)
(0.0574706 -0.0189092 -0.00425234)
(0.0878012 -0.00826277 0.0139396)
(0.108909 -0.00233212 0.0330584)
(0.116777 -0.00475394 0.048904)
(0.108342 -0.014564 0.0574055)
(0.0832597 -0.0262337 0.057262)
(0.0455107 -0.0344853 0.0502514)
(0.0026355 -0.0380529 0.0389616)
(-0.0370175 -0.0388272 0.0252356)
(-0.0669125 -0.0390837 0.0104144)
(-0.0836303 -0.0398336 -0.00396959)
(-0.0833441 -0.0402087 -0.0154553)
(-0.0720789 -0.0251328 -0.0208928)
(-0.0439623 -0.0249095 -0.016171)
(-0.0121108 -0.0218308 -0.00607417)
(0.0235976 -0.0152675 0.00837105)
(0.0590362 -0.00598274 0.0257083)
(0.0899162 0.00348769 0.0438247)
(0.111809 0.00915027 0.0595464)
(0.120087 0.00795228 0.0688973)
(0.111013 0.00101113 0.069121)
(0.0842751 -0.00685671 0.0609047)
(0.0447185 -0.0117003 0.0475304)
(0.000809768 -0.0132635 0.0321842)
(-0.0387521 -0.0136365 0.0168255)
(-0.0676771 -0.0147356 0.00281544)
(-0.0831169 -0.0170888 -0.00845703)
(-0.081917 -0.019662 -0.0152182)
(-0.0693425 -0.00157934 -0.0073645)
(-0.041578 -0.00342831 0.00282015)
(-0.0101127 -0.00194748 0.0171055)
(0.0252633 0.00309847 0.0337593)
(0.06062 0.0108449 0.0509239)
(0.0916092 0.0189462 0.0662224)
(0.113464 0.0239955 0.0764694)
(0.120971 0.0236981 0.0783311)
(0.110139 0.0193922 0.0706382)
(0.0812879 0.0150103 0.0558741)
(0.0403621 0.0130583 0.0383535)
(-0.00351236 0.0129171 0.0215002)
(-0.0417608 0.0125289 0.00717368)
(-0.0687276 0.010477 -0.00352076)
(-0.0822616 0.00672356 -0.00968928)
(-0.0799172 0.00238389 -0.0107037)
(-0.0659002 0.0204841 0.00822802)
(-0.0388429 0.0173351 0.0214211)
(-0.0079356 0.0178022 0.0367611)
(0.0268936 0.0217235 0.0522884)
(0.0617386 0.02811 0.0661873)
(0.092026 0.0348902 0.0762764)
(0.112545 0.039343 0.0798195)
(0.117778 0.0399871 0.0745136)
(0.104174 0.0382241 0.0607323)
(0.0732669 0.0368224 0.0421983)
(0.0320497 0.0368651 0.0236421)
(-0.0102352 0.0371685 0.00833506)
(-0.0457144 0.036068 -0.00220645)
(-0.0697052 0.0328169 -0.00746162)
(-0.0808154 0.0278814 -0.0074035)
(-0.0772265 0.0223627 -0.00273545)
(-0.0620153 0.0370109 0.022784)
(-0.0360591 0.0335603 0.0360452)
(-0.00604328 0.0336798 0.0491241)
(0.0277485 0.0369088 0.0602801)
(0.0612431 0.0422485 0.0681726)
(0.0895137 0.0479861 0.0712953)
(0.107037 0.0521682 0.0678818)
(0.108562 0.0540014 0.05693)
(0.0917414 0.0545538 0.0400134)
(0.0596372 0.0551879 0.0212927)
(0.0198771 0.0558498 0.0052297)
(-0.0188859 0.0553413 -0.00545152)
(-0.0500702 0.0527806 -0.00990397)
(-0.0702361 0.0482301 -0.00847643)
(-0.078655 0.0425575 -0.00217403)
(-0.0739249 0.0367069 0.00710423)
(-0.0586316 0.0450153 0.0339583)
(-0.0340607 0.042425 0.0446065)
(-0.00529938 0.0429408 0.0526205)
(0.0268438 0.0459995 0.0567936)
(0.0579472 0.0507618 0.0566386)
(0.0827282 0.0559847 0.0517779)
(0.0957313 0.0603734 0.0418811)
(0.0927063 0.063381 0.027362)
(0.0730718 0.0652738 0.0105649)
(0.0413284 0.0661524 -0.0047079)
(0.00511969 0.0654592 -0.014928)
(-0.0282981 0.0627409 -0.0184214)
(-0.0541115 0.058255 -0.0153475)
(-0.0701563 0.052832 -0.00702635)
(-0.076133 0.0474376 0.0046313)
(-0.0706886 0.0425308 0.0168979)
(-0.0573223 0.045423 0.0408815)
(-0.0341394 0.0452154 0.0471545)
(-0.00677473 0.0471685 0.0483307)
(0.0233799 0.0508453 0.0439097)
(0.051419 0.0559131 0.0344939)
(0.0717947 0.0617747 0.0211519)
(0.0795838 0.0674146 0.00523766)
(0.0721799 0.0715922 -0.0114073)
(0.0510579 0.07306 -0.025824)
(0.0216467 0.0709769 -0.0348805)
(-0.00928902 0.0655201 -0.0366561)
(-0.0364458 0.0581931 -0.03116)
(-0.056913 0.0509959 -0.0198727)
(-0.0695469 0.0453652 -0.0049999)
(-0.0740725 0.041814 0.0109547)
(-0.06877 0.0397818 0.0248711)
(-0.0545858 0.00959007 0.0351491)
(-0.0355272 0.00710577 0.026962)
(-0.0138065 0.0098624 0.0154211)
(0.00894055 0.0184948 0.00287644)
(0.0280623 0.0326414 -0.00801546)
(0.0393233 0.0504011 -0.0155926)
(0.0402887 0.0684179 -0.0196459)
(0.0309893 0.0827538 -0.020773)
(0.0139147 0.0900484 -0.0193241)
(-0.00689378 0.08869 -0.0150646)
(-0.0274229 0.0794936 -0.00775171)
(-0.044908 0.0652644 0.00216223)
(-0.0579553 0.0494561 0.0133558)
(-0.0659629 0.0347614 0.0239016)
(-0.0685722 0.0226339 0.031672)
(-0.0638494 0.0136409 0.0346255)
(-0.0515593 -0.00528526 0.0376914)
(-0.032987 -0.00372073 0.0233345)
(-0.0118224 0.0022863 0.00509043)
(0.00979733 0.0134646 -0.0138567)
(0.0271702 0.0294376 -0.0298323)
(0.0362725 0.0481055 -0.0401335)
(0.035196 0.0656319 -0.0437658)
(0.0247952 0.0774346 -0.0411418)
(0.0082883 0.0799605 -0.0332692)
(-0.0102432 0.0724291 -0.0212809)
(-0.0276532 0.0573987 -0.00654915)
(-0.0424157 0.0394092 0.00921934)
(-0.053952 0.0227018 0.0240422)
(-0.0617005 0.00964609 0.0358344)
(-0.06476 0.000760944 0.0425818)
(-0.0608052 -0.00427113 0.0425502)
(-0.0505343 -0.0263984 0.0333923)
(-0.0313357 -0.0209335 0.0137414)
(-0.00942168 -0.01181 -0.00934828)
(0.0125921 0.00179477 -0.0320356)
(0.0298973 0.0192818 -0.0500054)
(0.0387544 0.0380359 -0.0600384)
(0.0378177 0.0535976 -0.0608953)
(0.0284403 0.0611018 -0.0532028)
(0.0138164 0.0575856 -0.0387917)
(-0.00269623 0.0438247 -0.0201316)
(-0.0189958 0.0241944 2.51071e-05)
(-0.034218 0.00441398 0.0190398)
(-0.0475989 -0.0113229 0.0346714)
(-0.0577353 -0.0215281 0.0450642)
(-0.0628028 -0.026694 0.0486626)
(-0.0599734 -0.027728 0.044386)
(-0.0513008 -0.0497238 0.0230113)
(-0.0307222 -0.041312 -0.000665079)
(-0.00703968 -0.0296465 -0.0263901)
(0.0168606 -0.0138665 -0.0499467)
(0.0360849 0.0051236 -0.0668893)
(0.0470186 0.0241543 -0.0740039)
(0.0484385 0.0381759 -0.0702218)
(0.0415634 0.0421273 -0.0566484)
(0.0290081 0.03371 -0.0360427)
(0.0131901 0.0152063 -0.0121354)
(-0.00448677 -0.00745368 0.0112024)
(-0.0230345 -0.0279033 0.0308185)
(-0.0407385 -0.0424138 0.0446118)
(-0.0549244 -0.0504568 0.0512562)
(-0.0628072 -0.053229 0.0499092)
(-0.0610907 -0.0517122 0.0404583)
(-0.0530988 -0.0718042 0.00764598)
(-0.0309699 -0.0619584 -0.0184606)
(-0.00517546 -0.0489068 -0.0444565)
(0.0213918 -0.0317271 -0.0661384)
(0.0438384 -0.011591 -0.0794189)
(0.0584891 0.00788269 -0.0815333)
(0.0637686 0.0211779 -0.0718721)
(0.0601784 0.0230867 -0.0521635)
(0.0493797 0.0118667 -0.026144)
(0.0329281 -0.00902197 0.00129384)
(0.012016 -0.0326214 0.0254732)
(-0.0115661 -0.0525077 0.0431745)
(-0.0346824 -0.0657494 0.0528308)
(-0.0533606 -0.0726438 0.0538764)
(-0.0640807 -0.0746649 0.0463708)
(-0.0632323 -0.0723963 0.0313938)
(-0.0551921 -0.0893451 -0.0111475)
(-0.0318366 -0.0796574 -0.0376855)
(-0.00427005 -0.0666339 -0.0616236)
(0.0248542 -0.0491986 -0.0790593)
(0.0507607 -0.0286015 -0.0866464)
(0.0696475 -0.00865129 -0.0823848)
(0.0793182 0.00485097 -0.0663199)
(0.0792117 0.00650844 -0.0409012)
(0.069824 -0.00516454 -0.0108388)
(0.0519475 -0.0260276 0.0180064)
(0.0270174 -0.048649 0.0405715)
(-0.00193017 -0.0670268 0.0540911)
(-0.0302461 -0.0791229 0.057841)
(-0.0528648 -0.0857821 0.052153)
(-0.0658619 -0.0884023 0.0380924)
(-0.0655237 -0.0868995 0.0180306)
(-0.0573002 -0.0997384 -0.0310871)
(-0.0331873 -0.0915604 -0.0558027)
(-0.0045128 -0.0798626 -0.075505)
(0.0264882 -0.0633401 -0.0868632)
(0.0552679 -0.0430895 -0.0874907)
(0.0779485 -0.0228175 -0.0763043)
(0.0917008 -0.00839289 -0.0541141)
(0.0948113 -0.005444 -0.024151)
(0.0865148 -0.0155449 0.007965)
(0.0669816 -0.0343734 0.0357258)
(0.0381531 -0.0545683 0.0542981)
(0.00446414 -0.0708402 0.0617867)
(-0.0280034 -0.081947 0.0585094)
(-0.05344 -0.0889943 0.0457826)
(-0.067858 -0.0930736 0.0256719)
(-0.0676536 -0.0934011 0.00179308)
(-0.0594938 -0.101536 -0.0492175)
(-0.0349734 -0.0958521 -0.0698455)
(-0.00582311 -0.0864333 -0.0835094)
(0.0262472 -0.0717142 -0.0876739)
(0.0569743 -0.0524971 -0.0809744)
(0.082491 -0.0321906 -0.0632504)
(0.0994779 -0.0165401 -0.0360937)
(0.105178 -0.0113606 -0.00351012)
(0.0976345 -0.0185116 0.0281504)
(0.0764714 -0.0339087 0.0522672)
(0.0443031 -0.0507313 0.0647863)
(0.00698269 -0.0645338 0.0650473)
(-0.0282646 -0.0747313 0.0544717)
(-0.0552454 -0.0824657 0.0353216)
(-0.0702005 -0.0884107 0.0105768)
(-0.0697676 -0.0911955 -0.0151567)
(-0.0619107 -0.0946036 -0.0623641)
(-0.0371087 -0.0920005 -0.0770379)
(-0.00790844 -0.0853561 -0.0835594)
(0.024575 -0.0728858 -0.0803161)
(0.0563713 -0.0550924 -0.0668982)
(0.0836793 -0.035041 -0.0439645)
(0.102847 -0.0182395 -0.0138204)
(0.110284 -0.0105182 0.0188508)
(0.102999 -0.0140493 0.0473527)
(0.0802334 -0.0252688 0.0655296)
(0.0454011 -0.0382004 0.0706326)
(0.00563514 -0.0493696 0.063384)
(-0.0310325 -0.058709 0.04622)
(-0.0583585 -0.0672389 0.0222277)
(-0.0730449 -0.0751907 -0.00491538)
(-0.0720746 -0.0807451 -0.030075)
(-0.0644254 -0.0800302 -0.0678855)
(-0.0393644 -0.0806859 -0.0756015)
(-0.0103517 -0.0768323 -0.0748991)
(0.0221097 -0.0665932 -0.0650778)
(0.0543112 -0.0502819 -0.0465073)
(0.0825085 -0.0306918 -0.0204915)
(0.102833 -0.0129997 0.0100864)
(0.111042 -0.00288521 0.04012)
(0.103332 -0.0026976 0.0630147)
(0.0788748 -0.0095113 0.0736933)
(0.0419919 -0.0184536 0.0710411)
(0.000883201 -0.0270866 0.0570848)
(-0.035982 -0.0357255 0.0350626)
(-0.0626186 -0.0451549 0.00863732)
(-0.0763442 -0.0551722 -0.018181)
(-0.0745328 -0.0636209 -0.0403197)
(-0.0666627 -0.059888 -0.0644348)
(-0.0414055 -0.0635881 -0.0654101)
(-0.0127133 -0.0621292 -0.0586117)
(0.0194594 -0.0537445 -0.0440959)
(0.0515939 -0.0387182 -0.0227487)
(0.0799816 -0.0196456 0.00369685)
(0.100529 -0.0013567 0.0320041)
(0.108454 0.0107911 0.0569536)
(0.0995168 0.0144643 0.0725831)
(0.0732072 0.0118716 0.0753781)
(0.0348588 0.00659545 0.0658803)
(-0.00654674 5.62945e-05 0.0471417)
(-0.0425007 -0.00827225 0.0228768)
(-0.0675612 -0.0188382 -0.00305073)
(-0.0797482 -0.0309489 -0.0267904)
(-0.0768207 -0.0422133 -0.043961)
(-0.0681391 -0.0369931 -0.052397)
(-0.0428685 -0.043177 -0.0481694)
(-0.0146081 -0.0434507 -0.0375653)
(0.0170719 -0.0363552 -0.0211251)
(0.0487664 -0.0222667 4.99142e-05)
(0.0766938 -0.00364517 0.0241095)
(0.0964913 0.0150217 0.0477361)
(0.10303 0.0288745 0.0659732)
(0.0920703 0.0356681 0.0739686)
(0.0638744 0.0367792 0.0699327)
(0.024798 0.0344197 0.0557842)
(-0.0157925 0.0291493 0.0351585)
(-0.0497949 0.0204765 0.0118279)
(-0.0725089 0.00845014 -0.0106246)
(-0.0826832 -0.00571133 -0.0290152)
(-0.0784673 -0.0194558 -0.0402033)
(-0.0684226 -0.0146504 -0.0338492)
(-0.0434413 -0.0224988 -0.0270306)
(-0.0157681 -0.0237438 -0.0157537)
(0.0151712 -0.0173448 -0.000693828)
(0.0459507 -0.00381673 0.0171929)
(0.0726112 0.0144889 0.0362616)
(0.0905535 0.0335103 0.0534903)
(0.0945864 0.0489137 0.064622)
(0.0810309 0.0584411 0.0661568)
(0.051302 0.0624559 0.0577906)
(0.0125749 0.0618669 0.0422536)
(-0.0259313 0.0567123 0.0232302)
(-0.0569342 0.0468786 0.00407805)
(-0.0766581 0.0330913 -0.0124072)
(-0.0845268 0.0170862 -0.0241411)
(-0.0790199 0.0014975 -0.0294904)
(-0.0672457 0.00357 -0.0120769)
(-0.0429349 -0.00492169 -0.00582729)
(-0.0160868 -0.00638051 0.0027149)
(0.0137123 -0.000160456 0.0131082)
(0.0428795 0.0131199 0.0248884)
(0.0672335 0.0312652 0.0370019)
(0.0820826 0.0506707 0.0471821)
(0.0826346 0.0674587 0.0522381)
(0.0663543 0.0791369 0.0499459)
(0.0359608 0.0849341 0.0408604)
(-0.0009864 0.0847181 0.0277604)
(-0.0360014 0.0784744 0.013813)
(-0.0630079 0.0668051 0.00147801)
(-0.0792603 0.0512159 -0.00760886)
(-0.0847273 0.0339179 -0.0126429)
(-0.0781391 0.017465 -0.0134214)
(-0.0646953 0.0144275 0.00920053)
(-0.0414221 0.00651634 0.0119225)
(-0.0157079 0.00558702 0.0147971)
(0.0124281 0.0120628 0.0179325)
(0.03912 0.0253115 0.0216451)
(0.0599806 0.0433342 0.0258087)
(0.0705492 0.0629002 0.029279)
(0.0670319 0.0803775 0.0301751)
(0.048499 0.0928657 0.0273107)
(0.0188215 0.0986642 0.0213965)
(-0.0146622 0.0971627 0.0144359)
(-0.0447974 0.0888445 0.00840746)
(-0.067033 0.075255 0.00448027)
(-0.0796544 0.0586071 0.00297309)
(-0.0829637 0.0412917 0.00355052)
(-0.0757739 0.0255066 0.00538094)
(-0.0612175 0.0169956 0.0266936)
(-0.0393103 0.0111882 0.0239059)
(-0.0150472 0.0116607 0.0193973)
(0.010894 0.0189571 0.0140508)
(0.0342954 0.0328272 0.0090706)
(0.0506729 0.0517239 0.00526507)
(0.0561894 0.0725192 0.00264001)
(0.0486952 0.0909627 0.000694013)
(0.0291955 0.102874 -0.000708377)
(0.00225582 0.105703 -0.000941836)
(-0.0258882 0.0994972 0.000775277)
(-0.0500624 0.086577 0.0046145)
(-0.0673932 0.0701798 0.00998276)
(-0.0769615 0.0531545 0.0157937)
(-0.0789864 0.037488 0.0207683)
(-0.0720654 0.0244296 0.0235171)
(-0.0441649 -0.0175645 0.0312826)
(-0.0287996 -0.0256193 0.0151597)
(-0.0125725 -0.0243545 -0.00123213)
(0.00277925 -0.0123907 -0.0140666)
(0.0137093 0.00941615 -0.0203728)
(0.0177778 0.0376587 -0.0194004)
(0.0144192 0.0671087 -0.0126906)
(0.0047312 0.0921103 -0.00288848)
(-0.0090947 0.107979 0.00769658)
(-0.024357 0.11212 0.0179034)
(-0.0384652 0.104619 0.0274691)
(-0.0495523 0.0879121 0.0361977)
(-0.0567397 0.0656681 0.0433247)
(-0.0598912 0.0415175 0.0474822)
(-0.0591083 0.0183969 0.0471182)
(-0.0531083 -0.00119002 0.0411564)
(-0.0367299 -0.030276 0.0413649)
(-0.0216591 -0.0341295 0.0189415)
(-0.00575153 -0.0295126 -0.00391379)
(0.00887058 -0.0152388 -0.0227452)
(0.0187993 0.00785057 -0.0338679)
(0.0217306 0.0365148 -0.0356776)
(0.0172024 0.065507 -0.0289196)
(0.00658696 0.0887787 -0.0158569)
(-0.00741052 0.101238 0.000887572)
(-0.0217096 0.100481 0.0190662)
(-0.0339626 0.0876564 0.0367726)
(-0.0431272 0.0667004 0.0521845)
(-0.0491273 0.0424143 0.0634296)
(-0.052046 0.0186902 0.0687443)
(-0.0515762 -0.00203366 0.0667376)
(-0.0462099 -0.0180207 0.0568054)
(-0.0314196 -0.0493436 0.0408585)
(-0.0157448 -0.0489672 0.013275)
(0.00113639 -0.0410487 -0.0141295)
(0.0165513 -0.0244755 -0.0363505)
(0.0269843 -0.000365969 -0.0492536)
(0.0302605 0.0276486 -0.0508988)
(0.026204 0.0539786 -0.0418061)
(0.0164774 0.0725547 -0.0242964)
(0.00383742 0.0788925 -0.00151925)
(-0.00902055 0.0718863 0.0231992)
(-0.0204972 0.0542628 0.0465836)
(-0.0302127 0.0311705 0.0656758)
(-0.0381158 0.00763988 0.0780826)
(-0.0435846 -0.0131184 0.0821207)
(-0.0453174 -0.029702 0.076825)
(-0.0412556 -0.0411753 0.0622506)
(-0.0286704 -0.070752 0.0302143)
(-0.0119619 -0.066948 -0.000947183)
(0.00667179 -0.0562538 -0.0304851)
(0.0241758 -0.0377202 -0.0532093)
(0.0368895 -0.0127473 -0.0649924)
(0.0425963 0.0147093 -0.0639628)
(0.041055 0.0387672 -0.0507464)
(0.033747 0.0533229 -0.0279705)
(0.0230162 0.0544416 0.000515419)
(0.0108688 0.0422605 0.0302844)
(-0.00174686 0.0209953 0.0569173)
(-0.0145522 -0.00329616 0.0767421)
(-0.0267634 -0.025701 0.0873569)
(-0.0365075 -0.0438799 0.0876041)
(-0.0413718 -0.0572823 0.0772895)
(-0.0387369 -0.0653691 0.057398)
(-0.0283245 -0.0907739 0.0110181)
(-0.0106622 -0.0850819 -0.0219701)
(0.00984501 -0.0728184 -0.0511696)
(0.0300147 -0.0531845 -0.0716491)
(0.0461397 -0.0277924 -0.0797696)
(0.0557974 -0.000800174 -0.0740645)
(0.0582764 0.0217176 -0.0554688)
(0.0543684 0.0336278 -0.0270257)
(0.0456107 0.0314328 0.00662804)
(0.0332481 0.0162706 0.0399484)
(0.0178778 -0.00655461 0.0675386)
(0.00032341 -0.0306258 0.0854086)
(-0.0173208 -0.0515766 0.0916077)
(-0.0318028 -0.0679561 0.0858825)
(-0.0398248 -0.0796717 0.0691297)
(-0.0384163 -0.0860971 0.0435593)
(-0.0299237 -0.106136 -0.0142441)
(-0.0117382 -0.100268 -0.047067)
(0.0101927 -0.0879954 -0.0735875)
(0.0328149 -0.0685065 -0.0895026)
(0.052473 -0.0434184 -0.0920072)
(0.0665032 -0.016872 -0.0802772)
(0.0735202 0.00499894 -0.0556772)
(0.0733293 0.015984 -0.0217402)
(0.0664162 0.0127811 0.016065)
(0.0532403 -0.00287519 0.0511234)
(0.0343896 -0.0251243 0.0773361)
(0.0117235 -0.0477062 0.0908308)
(-0.011146 -0.0670692 0.090538)
(-0.0297639 -0.0824196 0.0773865)
(-0.040324 -0.0937717 0.0535896)
(-0.0397851 -0.100094 0.022765)
(-0.0331655 -0.114615 -0.0421931)
(-0.014855 -0.110086 -0.0726013)
(0.00785729 -0.0992715 -0.0943431)
(0.0322337 -0.0811698 -0.103994)
(0.0547567 -0.0571449 -0.0997351)
(0.0725923 -0.0310887 -0.0814674)
(0.083724 -0.00904802 -0.0510382)
(0.0869312 0.00264845 -0.0125057)
(0.0815549 0.00060402 0.0278315)
(0.0673137 -0.0133124 0.062456)
(0.0450465 -0.0332354 0.0849287)
(0.0178837 -0.0534662 0.0920264)
(-0.00908131 -0.0712733 0.0838963)
(-0.0305706 -0.0862227 0.0628425)
(-0.0427078 -0.0981671 0.0324484)
(-0.0426089 -0.105572 -0.00221777)
(-0.037835 -0.115315 -0.0687497)
(-0.0195319 -0.113266 -0.094465)
(0.00342616 -0.105009 -0.109774)
(0.0287497 -0.0891805 -0.11224)
(0.0531065 -0.0667376 -0.101012)
(0.0736035 -0.0411992 -0.0766575)
(0.0877838 -0.0184187 -0.0414812)
(0.093558 -0.00482508 -4.52598e-05)
(0.089204 -0.00408235 0.0406226)
(0.0737976 -0.0145968 0.0723954)
(0.048624 -0.0309924 0.0890337)
(0.0181426 -0.0483779 0.0883953)
(-0.0113752 -0.0647178 0.0720573)
(-0.0342759 -0.0797044 0.0437477)
(-0.0469516 -0.0928611 0.00835171)
(-0.0468273 -0.102221 -0.0278621)
(-0.0435341 -0.10859 -0.0896925)
(-0.0251144 -0.109741 -0.108865)
(-0.00225471 -0.104609 -0.116843)
(0.0233087 -0.0913938 -0.112146)
(0.0484469 -0.0706472 -0.094725)
(0.0703069 -0.0455345 -0.0656727)
(0.0861969 -0.0216764 -0.0276567)
(0.0934084 -0.00551664 0.0143464)
(0.0893583 -0.00101964 0.0528007)
(0.0726862 -0.00715559 0.0794453)
(0.0452939 -0.0193853 0.0887788)
(0.0128309 -0.0337783 0.0800445)
(-0.0176643 -0.048854 0.0562846)
(-0.0405691 -0.0642355 0.0225189)
(-0.0528301 -0.0790831 -0.0153425)
(-0.0521871 -0.091045 -0.0503292)
(-0.0495232 -0.0957769 -0.101446)
(-0.0308043 -0.100394 -0.113196)
(-0.00827164 -0.0983757 -0.114021)
(0.0169692 -0.0875659 -0.103216)
(0.0419944 -0.0682366 -0.081293)
(0.0640459 -0.0433082 -0.049671)
(0.080343 -0.0181723 -0.0112487)
(0.0877767 0.000811698 0.0287123)
(0.083181 0.00942969 0.0625301)
(0.0651018 0.0080201 0.0823665)
(0.0361986 3.21366e-05 0.083916)
(0.00304338 -0.0116133 0.0679112)
(-0.0270106 -0.0258282 0.0386932)
(-0.0487175 -0.0420403 0.00224237)
(-0.0597108 -0.0590301 -0.0350173)
(-0.0580209 -0.074061 -0.0661086)
(-0.0548966 -0.0788241 -0.101904)
(-0.0358322 -0.08672 -0.106715)
(-0.0138163 -0.0873048 -0.101771)
(0.0106802 -0.0782875 -0.0868968)
(0.0349179 -0.0598373 -0.0628608)
(0.0562343 -0.0347387 -0.0311993)
(0.0718156 -0.00818402 0.00506531)
(0.0783138 0.0136201 0.0406153)
(0.072342 0.0262905 0.0680257)
(0.0527462 0.0294015 0.0804107)
(0.0230204 0.0251852 0.0749357)
(-0.00966502 0.015618 0.0537018)
(-0.0380783 0.0015884 0.0219642)
(-0.0576065 -0.0160141 -0.0138633)
(-0.0666318 -0.0355299 -0.0475181)
(-0.0634378 -0.0538402 -0.0727576)
(-0.0588657 -0.0599847 -0.090949)
(-0.0395978 -0.070567 -0.0906869)
(-0.0182598 -0.0729359 -0.08244)
(0.00520159 -0.0649137 -0.0662569)
(0.0281783 -0.0467179 -0.0428739)
(0.0480521 -0.0210662 -0.0137552)
(0.0619758 0.00702006 0.0181297)
(0.0665358 0.0315152 0.0476286)
(0.0585074 0.0478703 0.0679659)
(0.0374224 0.0548216 0.0735737)
(0.00760179 0.0534126 0.0631115)
(-0.0235719 0.0448746 0.039697)
(-0.0493791 0.0301425 0.00894875)
(-0.066006 0.0105719 -0.0229743)
(-0.0725737 -0.0116657 -0.0506851)
(-0.0676236 -0.033087 -0.0692542)
(-0.0608963 -0.0416321 -0.0704026)
(-0.041675 -0.0540282 -0.0679737)
(-0.0211298 -0.0572691 -0.0595812)
(0.00109777 -0.0494717 -0.0451885)
(0.0224438 -0.0309733 -0.0252383)
(0.0402713 -0.00444498 -0.000888511)
(0.0517338 0.025279 0.0251115)
(0.0535636 0.0523083 0.0480239)
(0.0430891 0.0718092 0.0619959)
(0.0208068 0.0816011 0.0628671)
(-0.00829475 0.0816808 0.0505289)
(-0.0370357 0.0728754 0.0285828)
(-0.0595128 0.0564729 0.00232417)
(-0.0727978 0.0344698 -0.0230688)
(-0.0766943 0.00960261 -0.043605)
(-0.0700219 -0.0143467 -0.0559849)
(-0.0606348 -0.0262625 -0.0435579)
(-0.041732 -0.0394327 -0.0423329)
(-0.0220639 -0.0426932 -0.037101)
(-0.0012553 -0.0345106 -0.0274552)
(0.0180825 -0.0153503 -0.0132942)
(0.0332852 0.0121769 0.00471689)
(0.0416106 0.0434158 0.024342)
(0.0402024 0.0725632 0.0414775)
(0.0272704 0.0943995 0.0512823)
(0.00433776 0.105823 0.0507196)
(-0.0232188 0.106022 0.0403126)
(-0.0487657 0.0957786 0.0234534)
(-0.0674121 0.077008 0.00443553)
(-0.0771527 0.0524759 -0.0130637)
(-0.0783861 0.0254911 -0.0266511)
(-0.0702639 -2.69766e-06 -0.0345811)
(-0.0578267 -0.016313 -0.0146636)
(-0.0395318 -0.0290864 -0.017772)
(-0.0208446 -0.0316258 -0.0184955)
(-0.00170177 -0.02265 -0.0158289)
(0.0151533 -0.00272932 -0.00897492)
(0.0270517 0.0255037 0.00207302)
(0.0315697 0.057486 0.0157804)
(0.026645 0.0875119 0.028966)
(0.0116304 0.110092 0.0378046)
(-0.0110511 0.121488 0.0398645)
(-0.0360352 0.12047 0.0353851)
(-0.0575804 0.108116 0.026637)
(-0.0719848 0.0871 0.0163244)
(-0.0781856 0.0608895 0.00647904)
(-0.077044 0.0331423 -0.001844)
(-0.0680083 0.00767845 -0.00795756)
(-0.0522892 -0.0126775 0.0114603)
(-0.0350179 -0.0235238 0.0018902)
(-0.0175139 -0.0246357 -0.00632582)
(-0.000355491 -0.0147075 -0.0114726)
(0.0134166 0.00608178 -0.0121113)
(0.0211122 0.0355588 -0.00768633)
(0.0209703 0.0692992 0.000966861)
(0.0123753 0.100999 0.0116819)
(-0.00366671 0.123891 0.0217568)
(-0.0240704 0.133162 0.0292386)
(-0.0443897 0.127832 0.0335489)
(-0.0606359 0.110568 0.0350409)
(-0.0706098 0.0858503 0.0342085)
(-0.0739681 0.0581314 0.0312815)
(-0.0715278 0.0310254 0.0262868)
(-0.062689 0.00758689 0.0194775)
(-0.0237991 -0.0388335 0.0279322)
(-0.0144132 -0.0525802 0.00696293)
(-0.00666498 -0.0533229 -0.011869)
(-0.00193204 -0.0393097 -0.0236881)
(-0.00189402 -0.0122004 -0.0257295)
(-0.0067329 0.0231555 -0.0183877)
(-0.015148 0.0601912 -0.00455948)
(-0.0251296 0.0923857 0.0119564)
(-0.0347723 0.114522 0.027869)
(-0.0426585 0.123521 0.0412259)
(-0.0478494 0.118855 0.0514476)
(-0.0498487 0.102314 0.0586189)
(-0.0487027 0.0771469 0.0625795)
(-0.0450114 0.0470805 0.0624668)
(-0.039556 0.0157637 0.0569365)
(-0.0319799 -0.0130798 0.0450466)
(-0.0132699 -0.0468664 0.0442284)
(-0.00389699 -0.0562887 0.0165298)
(0.00366374 -0.0537129 -0.00863313)
(0.00806489 -0.0379825 -0.0259888)
(0.00783869 -0.0106027 -0.0323356)
(0.00281103 0.0242693 -0.0273966)
(-0.00592528 0.0606621 -0.0133124)
(-0.0164912 0.0919865 0.00656618)
(-0.0267591 0.112474 0.0288397)
(-0.0348328 0.118595 0.0507239)
(-0.039503 0.110004 0.0700622)
(-0.0405335 0.0893717 0.0849735)
(-0.0385529 0.0611156 0.0936079)
(-0.0345426 0.0298604 0.0942825)
(-0.0291869 -0.000486117 0.0858554)
(-0.0219586 -0.0265557 0.068224)
(-0.0049604 -0.0608067 0.0473679)
(0.00507739 -0.0659947 0.0142245)
(0.0136864 -0.0602054 -0.0154775)
(0.0192082 -0.04254 -0.0359665)
(0.020041 -0.0147594 -0.0437676)
(0.0159633 0.018792 -0.038408)
(0.00810775 0.0521183 -0.0218473)
(-0.00156373 0.0788577 0.00256014)
(-0.0108693 0.0938252 0.031028)
(-0.0180403 0.0944277 0.0598557)
(-0.0222659 0.0814223 0.0855219)
(-0.023846 0.0584513 0.104754)
(-0.0236327 0.0303783 0.114816)
(-0.0221833 0.0015785 0.11391)
(-0.019263 -0.0248305 0.101363)
(-0.0135212 -0.0463608 0.0779049)
(0.000151255 -0.0769896 0.0369787)
(0.0109309 -0.0783945 0.000373153)
(0.0211588 -0.0697872 -0.0312354)
(0.028915 -0.0505685 -0.0520253)
(0.0323609 -0.0227039 -0.05862)
(0.0310485 0.00942278 -0.0506348)
(0.025887 0.0398342 -0.0301039)
(0.0186143 0.0623208 -0.000621293)
(0.0111423 0.0721347 0.0334465)
(0.00481102 0.0675676 0.0674188)
(-0.00010271 0.0505627 0.0966027)
(-0.00421502 0.0257643 0.116807)
(-0.00801007 -0.00164081 0.125086)
(-0.0109794 -0.0277818 0.120129)
(-0.0116904 -0.0503935 0.102124)
(-0.00786673 -0.0677115 0.0727632)
(0.00167642 -0.0922508 0.0149551)
(0.0128269 -0.0912948 -0.0230795)
(0.0246565 -0.0809863 -0.0539293)
(0.0351098 -0.0610393 -0.0722959)
(0.0421508 -0.033544 -0.0753501)
(0.0449451 -0.00283311 -0.0630256)
(0.0438555 0.0251834 -0.0375434)
(0.0400179 0.0444076 -0.00279726)
(0.0347449 0.0504551 0.0361881)
(0.0287938 0.0423894 0.0736973)
(0.0219953 0.0231488 0.103957)
(0.0138796 -0.00199496 0.122232)
(0.00492728 -0.0279973 0.125885)
(-0.00301396 -0.0517361 0.11461)
(-0.0074658 -0.0715799 0.0898541)
(-0.00552701 -0.0860332 0.0545781)
(-0.000246174 -0.103727 -0.0153087)
(0.0107223 -0.10221 -0.0526887)
(0.0237227 -0.0917985 -0.080372)
(0.0366649 -0.0723387 -0.0940662)
(0.0473744 -0.0458411 -0.0918029)
(0.0545908 -0.0164577 -0.0739861)
(0.0579734 0.0100091 -0.0430683)
(0.0578465 0.0274994 -0.00326574)
(0.0547419 0.0318358 0.0397021)
(0.0487599 0.0226057 0.0790619)
(0.0394781 0.00334234 0.108095)
(0.0269902 -0.0205577 0.121893)
(0.0130325 -0.0446214 0.118622)
(0.000714034 -0.0664522 0.0994197)
(-0.00682377 -0.0847578 0.0673163)
(-0.00649015 -0.097891 0.0267802)
(-0.00530708 -0.109635 -0.0494088)
(0.00515364 -0.109248 -0.0838509)
(0.0188178 -0.100347 -0.106323)
(0.033623 -0.0826062 -0.113778)
(0.0473197 -0.0577011 -0.105208)
(0.0582959 -0.0294661 -0.0815133)