/*--------------------------------*- C++ -*----------------------------------*\
| =========                 |                                                 |
| \\      /  F ield         | OpenFOAM: The Open Source CFD Toolbox           |
|  \\    /   O peration     | Version:  3.0.0                                 |
|   \\  /    A nd           | Web:      www.OpenFOAM.org                      |
|    \\/     M anipulation  |                                                 |
\*---------------------------------------------------------------------------*/
FoamFile
{
    version     2.0;
    format      ascii;
    class       volScalarField;
    location    "6.5";
    object      k;
}
// * * * * * * * * * * * * * * * * * * * * * * * * * * * * * * * * * * * * * //

dimensions      [0 2 -2 0 0 0 0];

internalField   nonuniform List<scalar> 
400
(
1.0195e-06
1.97463e-06
6.11338e-06
6.80431e-05
0.000257243
0.00045359
0.00055117
0.000604735
0.000623454
0.000627028
0.000596004
0.000561268
0.000506905
0.000454573
0.000395547
0.000336494
0.000279667
0.000219333
0.00015319
9.18683e-05
3.27088e-06
1.15344e-05
4.28169e-05
0.000144361
0.000251952
0.000301207
0.000318102
0.000323905
0.000325993
0.000334092
0.000346531
0.000371861
0.000401157
0.000431513
0.000465005
0.000488511
0.000498708
0.000499678
0.000457534
0.000421584
9.37137e-06
5.03615e-05
0.000117437
0.000191636
0.000257178
0.000294382
0.000320849
0.000352835
0.000398038
0.000437578
0.000472317
0.00049645
0.000516228
0.000543488
0.000575926
0.000620016
0.000659831
0.00067849
0.000716757
0.00084238
2.89099e-05
9.23875e-05
0.00015238
0.000214761
0.000272616
0.000318171
0.000379894
0.000438681
0.000469205
0.000494292
0.000507897
0.000519916
0.000532108
0.000556343
0.000594217
0.000651807
0.000729583
0.000796243
0.000843702
0.00111584
5.70922e-05
0.000118977
0.000176683
0.000239806
0.000305338
0.000360084
0.000409718
0.000433869
0.000443263
0.000443863
0.000434173
0.000431741
0.000445988
0.000476462
0.000535352
0.000625267
0.000744993
0.000869382
0.000964063
0.00132707
8.98789e-05
0.00013562
0.000191377
0.000260761
0.000325036
0.000371298
0.000393721
0.000395589
0.000362062
0.000335929
0.000322189
0.00031749
0.000328036
0.000360166
0.000423729
0.000535979
0.000715437
0.000903105
0.00105774
0.00148676
0.000126526
0.000138481
0.000201239
0.000270539
0.000331401
0.000357873
0.000355114
0.000316832
0.0002735
0.000249872
0.000238151
0.000234792
0.000247232
0.000274779
0.000328354
0.000432048
0.000637741
0.000913991
0.00115186
0.00162412
0.000167831
0.000137042
0.000200869
0.000276477
0.000324653
0.000331211
0.0003033
0.000249552
0.00021014
0.000191423
0.000184773
0.000188035
0.000201145
0.000224438
0.000266227
0.000351094
0.000556977
0.000902154
0.00123919
0.0017396
0.000205692
0.000133674
0.000197862
0.000274021
0.000309838
0.000306153
0.000261753
0.000201985
0.000168131
0.000153752
0.000150073
0.000159485
0.000172981
0.000191676
0.000222193
0.000286097
0.000471389
0.00086198
0.00132548
0.00184925
0.000250273
0.000125608
0.000191038
0.000267681
0.000299744
0.000287327
0.000232264
0.00017119
0.000139371
0.000127251
0.000127312
0.000138821
0.000153719
0.000171668
0.000196366
0.000249107
0.000407762
0.000828017
0.00140907
0.00195296
0.000283468
0.00012369
0.000179062
0.000254642
0.000287546
0.000272158
0.000216017
0.000156308
0.00012234
0.000109521
0.00011125
0.000121866
0.000137838
0.000157509
0.000179774
0.000226367
0.000355347
0.000782739
0.00148668
0.00206254
0.000308387
0.000126162
0.000161737
0.000239084
0.000276746
0.000265353
0.000217318
0.000158358
0.000122564
0.000106329
0.000105279
0.000112303
0.000128726
0.000150891
0.000172633
0.000216395
0.000330661
0.000755945
0.001563
0.00218061
0.000306067
0.000131812
0.000145387
0.000214736
0.000258711
0.000254804
0.00022418
0.000168242
0.000130113
0.000111184
0.000108865
0.000112748
0.000125979
0.000149119
0.000170621
0.000212934
0.000319543
0.000740148
0.00163477
0.00231985
0.000285934
0.00013968
0.000138199
0.000182144
0.000241543
0.000244973
0.000230467
0.000193001
0.000152467
0.000128503
0.000124725
0.000128267
0.00013836
0.000158608
0.000177076
0.000215399
0.000317113
0.000736988
0.00173141
0.00248853
0.000236417
0.000136945
0.000130885
0.000151095
0.000204111
0.000223967
0.000222883
0.000211753
0.000188511
0.000167139
0.000158678
0.000160223
0.000166195
0.000179341
0.000194549
0.000232305
0.000334715
0.000768401
0.0018575
0.00271106
0.000134772
0.000120578
0.000121502
0.000136234
0.000179062
0.000206295
0.000210978
0.00020851
0.000201311
0.000194418
0.000189253
0.000189901
0.000191594
0.000197759
0.000211645
0.000255114
0.000375894
0.000847135
0.00203292
0.00300595
3.5872e-05
7.88374e-05
9.80381e-05
0.000108213
0.000131709
0.000163406
0.00017787
0.000185716
0.000187075
0.000187805
0.000188962
0.000192118
0.00019719
0.000209255
0.000235547
0.000307314
0.000472728
0.00100729
0.00230941
0.00342915
2.59525e-05
5.66653e-05
8.43523e-05
0.000105096
0.000125647
0.000152073
0.000168456
0.00018196
0.000189526
0.000197991
0.000205874
0.000222303
0.000241825
0.000282663
0.000353076
0.000518894
0.000779881
0.00143502
0.00289284
0.00408505
0.000142126
0.000309432
0.000375153
0.000408123
0.000437287
0.000479359
0.000517319
0.000575239
0.000626494
0.000710819
0.000784501
0.00091294
0.00102344
0.00122742
0.00138906
0.00176806
0.00216978
0.0029878
0.00455279
0.00529644
0.00303415
0.00591231
0.00684603
0.00689237
0.00683419
0.00673329
0.00667198
0.00664911
0.00665097
0.00666267
0.00668603
0.00673056
0.00678361
0.00684998
0.00694954
0.0070358
0.00712588
0.00725803
0.00775601
0.00675569
)
;

boundaryField
{
    movingWall
    {
        type            kqRWallFunction;
        value           nonuniform List<scalar> 
20
(
0.00303415
0.00591231
0.00684603
0.00689237
0.00683419
0.00673329
0.00667198
0.00664911
0.00665097
0.00666267
0.00668603
0.00673056
0.00678361
0.00684998
0.00694954
0.0070358
0.00712588
0.00725803
0.00775601
0.00675569
)
;
    }
    fixedWalls
    {
        type            kqRWallFunction;
        value           nonuniform List<scalar> 
60
(
1.0195e-06
3.27088e-06
9.37137e-06
2.89099e-05
5.70922e-05
8.98789e-05
0.000126526
0.000167831
0.000205692
0.000250273
0.000283468
0.000308387
0.000306067
0.000285934
0.000236417
0.000134772
3.5872e-05
2.59525e-05
0.000142126
0.00303415
9.18683e-05
0.000421584
0.00084238
0.00111584
0.00132707
0.00148676
0.00162412
0.0017396
0.00184925
0.00195296
0.00206254
0.00218061
0.00231985
0.00248853
0.00271106
0.00300595
0.00342915
0.00408505
0.00529644
0.00675569
1.0195e-06
1.97463e-06
6.11338e-06
6.80431e-05
0.000257243
0.00045359
0.00055117
0.000604735
0.000623454
0.000627028
0.000596004
0.000561268
0.000506905
0.000454573
0.000395547
0.000336494
0.000279667
0.000219333
0.00015319
9.18683e-05
)
;
    }
    frontAndBack
    {
        type            empty;
    }
}


// ************************************************************************* //
