/*--------------------------------*- C++ -*----------------------------------*\
| =========                 |                                                 |
| \\      /  F ield         | OpenFOAM: The Open Source CFD Toolbox           |
|  \\    /   O peration     | Version:  3.0.0                                 |
|   \\  /    A nd           | Web:      www.OpenFOAM.org                      |
|    \\/     M anipulation  |                                                 |
\*---------------------------------------------------------------------------*/
FoamFile
{
    version     2.0;
    format      ascii;
    class       volScalarField;
    location    "6.5";
    object      nut;
}
// * * * * * * * * * * * * * * * * * * * * * * * * * * * * * * * * * * * * * //

dimensions      [0 2 -1 0 0 0 0];

internalField   nonuniform List<scalar> 
400
(
7.96404e-09
1.54239e-08
4.77326e-08
5.28124e-07
1.96151e-06
3.3977e-06
4.09326e-06
4.47015e-06
4.60106e-06
4.626e-06
4.40892e-06
4.16454e-06
3.77914e-06
3.40473e-06
2.97831e-06
2.54722e-06
2.12807e-06
1.67829e-06
1.17944e-06
7.11424e-07
2.55457e-08
2.5467e-07
6.13513e-07
1.77488e-06
3.05299e-06
4.11322e-06
5.04706e-06
6.09435e-06
7.25792e-06
8.46123e-06
9.53008e-06
1.05348e-05
1.12935e-05
1.11681e-05
1.12362e-05
1.03757e-05
9.09274e-06
7.3562e-06
4.9666e-06
3.16694e-06
7.31476e-08
1.08881e-06
2.12409e-06
3.39732e-06
5.40635e-06
7.94926e-06
1.05728e-05
1.37058e-05
1.6891e-05
1.93663e-05
2.11612e-05
2.18742e-05
2.14573e-05
2.08766e-05
1.94828e-05
1.77117e-05
1.4914e-05
1.1346e-05
7.9206e-06
6.10233e-06
2.2523e-07
2.06461e-06
3.37125e-06
5.38573e-06
9.22635e-06
1.37489e-05
1.948e-05
2.54891e-05
2.91979e-05
3.21977e-05
3.36986e-05
3.45858e-05
3.37103e-05
3.25387e-05
3.00884e-05
2.68262e-05
2.24301e-05
1.65854e-05
1.03057e-05
7.90541e-06
4.4359e-07
2.89308e-06
4.79234e-06
8.25662e-06
1.4782e-05
2.15285e-05
2.90293e-05
3.48345e-05
3.90093e-05
4.16186e-05
4.19021e-05
4.19213e-05
4.09121e-05
3.93619e-05
3.71769e-05
3.39233e-05
2.88882e-05
2.17318e-05
1.30198e-05
9.24765e-06
6.96151e-07
3.64014e-06
6.28405e-06
1.17184e-05
2.04479e-05
2.86047e-05
3.67439e-05
4.27125e-05
4.43486e-05
4.46252e-05
4.4466e-05
4.41794e-05
4.26783e-05
4.14651e-05
3.99788e-05
3.80931e-05
3.45414e-05
2.66441e-05
1.58031e-05
1.02353e-05
9.76596e-07
4.07987e-06
7.75956e-06
1.48866e-05
2.541e-05
3.38749e-05
4.1994e-05
4.45158e-05
4.45716e-05
4.41105e-05
4.33848e-05
4.27865e-05
4.1214e-05
3.99548e-05
3.86706e-05
3.77033e-05
3.65307e-05
3.08665e-05
1.87199e-05
1.10672e-05
1.29039e-06
4.32837e-06
8.8421e-06
1.77148e-05
2.89902e-05
3.6968e-05
4.34862e-05
4.35183e-05
4.24254e-05
4.15166e-05
4.10068e-05
4.06357e-05
3.97718e-05
3.87366e-05
3.74611e-05
3.67268e-05
3.71905e-05
3.39846e-05
2.18129e-05
1.17545e-05
1.57591e-06
4.45447e-06
9.61606e-06
1.94157e-05
3.03941e-05
3.82494e-05
4.29331e-05
4.11122e-05
3.92008e-05
3.80512e-05
3.76372e-05
3.81344e-05
3.77859e-05
3.65638e-05
3.48614e-05
3.39698e-05
3.56723e-05
3.54745e-05
2.46226e-05
1.23973e-05
1.90955e-06
4.29999e-06
9.97034e-06
2.02284e-05
3.13568e-05
3.89389e-05
4.19949e-05
3.85749e-05
3.55837e-05
3.40554e-05
3.41623e-05
3.52916e-05
3.56222e-05
3.4748e-05
3.32591e-05
3.23477e-05
3.42606e-05
3.66316e-05
2.77668e-05
1.29968e-05
2.15623e-06
4.02823e-06
9.7127e-06
1.97443e-05
3.04244e-05
3.76456e-05
3.95674e-05
3.58117e-05
3.20348e-05
3.02536e-05
3.06756e-05
3.19729e-05
3.29275e-05
3.28186e-05
3.16497e-05
3.0782e-05
3.20723e-05
3.64416e-05
3.02728e-05
1.36216e-05
2.34043e-06
3.6211e-06
8.65078e-06
1.83777e-05
2.88861e-05
3.61672e-05
3.895e-05
3.55053e-05
3.16196e-05
2.91415e-05
2.88349e-05
2.96499e-05
3.10923e-05
3.17432e-05
3.08021e-05
2.99953e-05
3.09164e-05
3.61771e-05
3.29077e-05
1.4285e-05
2.32332e-06
3.13783e-06
7.35175e-06
1.60023e-05
2.59754e-05
3.32554e-05
3.7847e-05
3.54592e-05
3.18658e-05
2.92329e-05
2.85956e-05
2.86713e-05
2.95852e-05
3.04503e-05
2.98615e-05
2.95741e-05
3.02336e-05
3.58046e-05
3.48081e-05
1.50551e-05
2.17449e-06
2.66926e-06
6.13183e-06
1.26709e-05
2.27529e-05
2.97036e-05
3.53933e-05
3.63285e-05
3.35191e-05
3.06424e-05
2.9737e-05
2.97381e-05
2.9999e-05
3.02078e-05
2.93611e-05
2.84979e-05
2.92543e-05
3.52155e-05
3.58089e-05
1.59707e-05
1.80615e-06
2.21e-06
4.79554e-06
9.18829e-06
1.71009e-05
2.39621e-05
2.94469e-05
3.33403e-05
3.41407e-05
3.31615e-05
3.17652e-05
3.15026e-05
3.11804e-05
3.05061e-05
2.9304e-05
2.82896e-05
2.87972e-05
3.4614e-05
3.65345e-05
1.71513e-05
1.03945e-06
1.69501e-06
3.48516e-06
6.88761e-06
1.28754e-05
1.90783e-05
2.3925e-05
2.77274e-05
2.99654e-05
3.1392e-05
3.11886e-05
3.0944e-05
3.02131e-05
2.89985e-05
2.77773e-05
2.72016e-05
2.85814e-05
3.44639e-05
3.69748e-05
1.86705e-05
2.79284e-07
1.13856e-06
2.33713e-06
4.02756e-06
7.05934e-06
1.15567e-05
1.55864e-05
1.92746e-05
2.18577e-05
2.37853e-05
2.48542e-05
2.51063e-05
2.51028e-05
2.49632e-05
2.4943e-05
2.60826e-05
2.88199e-05
3.40416e-05
3.69348e-05
2.07679e-05
2.02247e-07
9.71048e-07
1.99345e-06
3.38146e-06
5.26855e-06
7.92941e-06
1.04796e-05
1.30529e-05
1.51295e-05
1.69694e-05
1.82732e-05
1.95377e-05
2.0545e-05
2.21301e-05
2.4181e-05
2.77616e-05
3.11166e-05
3.43996e-05
3.72046e-05
2.38469e-05
1.09539e-06
6.11446e-06
8.16308e-06
9.94905e-06
1.19029e-05
1.43247e-05
1.6504e-05
1.91159e-05
2.08573e-05
2.33694e-05
2.50301e-05
2.73475e-05
2.89265e-05
3.11663e-05
3.26706e-05
3.51896e-05
3.59699e-05
3.54728e-05
3.81449e-05
2.90731e-05
1.88131e-05
3.15379e-05
3.50707e-05
3.52401e-05
3.50273e-05
3.46564e-05
3.44297e-05
3.4345e-05
3.4352e-05
3.43954e-05
3.44819e-05
3.46466e-05
3.4842e-05
3.50855e-05
3.54488e-05
3.57618e-05
3.60866e-05
3.65598e-05
3.83079e-05
3.47391e-05
)
;

boundaryField
{
    movingWall
    {
        type            nutkWallFunction;
        Cmu             0.09;
        kappa           0.41;
        E               9.8;
        value           nonuniform List<scalar> 
20
(
0
0
0
0
0
0
0
0
0
0
0
0
0
0
0
0
1.9747e-08
9.26222e-08
3.60572e-07
0
)
;
    }
    fixedWalls
    {
        type            nutkWallFunction;
        Cmu             0.09;
        kappa           0.41;
        E               9.8;
        value           uniform 0;
    }
    frontAndBack
    {
        type            empty;
    }
}


// ************************************************************************* //
