/*--------------------------------*- C++ -*----------------------------------*\
| =========                 |                                                 |
| \\      /  F ield         | OpenFOAM: The Open Source CFD Toolbox           |
|  \\    /   O peration     | Version:  3.0.0                                 |
|   \\  /    A nd           | Web:      www.OpenFOAM.org                      |
|    \\/     M anipulation  |                                                 |
\*---------------------------------------------------------------------------*/
FoamFile
{
    version     2.0;
    format      ascii;
    class       volScalarField;
    location    "6.5";
    object      omega;
}
// * * * * * * * * * * * * * * * * * * * * * * * * * * * * * * * * * * * * * //

dimensions      [0 0 -1 0 0 0 0];

internalField   nonuniform List<scalar> 
400
(
128.013
128.024
128.076
128.839
131.146
133.499
134.653
135.283
135.502
135.544
135.181
134.773
134.132
133.512
132.809
132.102
131.419
130.689
129.884
129.133
128.04
45.2916
69.7898
81.3357
82.5262
73.2292
63.0272
53.1485
44.9155
39.485
36.3618
35.2984
35.5209
38.6381
41.3847
47.0821
54.8468
67.9261
92.1221
133.12
128.116
46.2537
55.2881
56.4082
47.5695
37.0327
30.3466
25.7436
23.5652
22.5948
22.32
22.6957
24.0584
26.0334
29.5607
35.006
44.2423
59.8002
90.4928
138.042
128.357
44.7481
45.1999
39.8759
29.5475
23.1416
19.5018
17.2105
16.0698
15.3518
15.0718
15.0327
15.7847
17.0979
19.749
24.2974
32.5269
48.0086
81.8673
141.149
128.705
41.1248
36.8677
29.0441
20.656
16.7259
14.114
12.4551
11.363
10.665
10.3616
10.2988
10.9011
12.1047
14.4002
18.4318
25.7889
40.0051
74.0459
143.503
129.108
37.2567
30.4543
22.2523
15.8958
12.9803
10.7153
9.26167
8.16401
7.52779
7.24573
7.18637
7.68625
8.686
10.5988
14.0702
20.7124
33.8952
66.9326
145.258
129.558
33.9425
25.9343
18.1733
13.0421
10.5646
8.45631
7.1173
6.13619
5.66468
5.48927
5.48751
5.99874
6.87725
8.49105
11.4591
17.4577
29.6111
61.5312
146.75
130.062
31.6613
22.7173
15.6071
11.1987
8.95941
6.97462
5.73442
4.95316
4.61076
4.5059
4.62732
5.05747
5.79396
7.10677
9.55962
14.9763
26.546
56.81
147.994
130.523
30.0089
20.5762
14.1133
10.194
8.00412
6.09676
4.91301
4.28897
4.04067
3.98735
4.18219
4.57793
5.24225
6.37362
8.4221
13.2144
24.2986
53.8317
149.165
131.064
29.2113
19.1606
13.2329
9.55912
7.37892
5.53077
4.43785
3.91671
3.73659
3.72668
3.93353
4.31526
4.94038
5.90411
7.70091
11.9018
22.6039
50.7466
150.265
131.465
30.7059
18.4359
12.8969
9.45116
7.22948
5.45947
4.36473
3.81897
3.62009
3.62665
3.81155
4.18611
4.79939
5.68012
7.35389
11.0796
21.4793
49.1095
151.417
131.765
34.841
18.6963
13.0095
9.58058
7.33686
5.57941
4.46013
3.8762
3.6487
3.6511
3.78764
4.14013
4.75349
5.60458
7.21429
10.6953
20.8957
47.4964
152.65
131.737
42.0073
19.7759
13.4191
9.95988
7.66201
5.92332
4.74466
4.08317
3.80339
3.80704
3.93243
4.25819
4.89712
5.71375
7.2
10.5691
20.6719
46.9653
154.091
131.495
52.3292
22.538
14.375
10.616
8.24723
6.51161
5.31266
4.54865
4.19364
4.19428
4.31322
4.61215
5.25055
6.03097
7.55842
10.8399
20.9279
48.3513
155.818
130.896
61.9661
27.2931
16.4443
11.9357
9.34673
7.569
6.35126
5.52159
5.04014
4.99534
5.08604
5.33011
5.87886
6.63902
8.21168
11.6232
22.1992
50.8424
158.067
129.657
71.1367
34.8627
19.7795
13.9073
10.8131
8.81834
7.51999
6.71811
6.19323
6.068
6.13692
6.34143
6.81962
7.61933
9.37863
13.1517
24.5803
54.9812
161
128.443
69.2431
41.9481
26.8682
18.6574
14.1395
11.4118
9.63529
8.55875
7.89586
7.60281
7.65219
7.85527
8.38254
9.44339
11.7823
16.4028
29.59
62.5269
165.117
128.321
58.3548
42.3148
31.0799
23.8485
19.1783
16.0748
13.9402
12.5269
11.6675
11.2665
11.3782
11.7705
12.7728
14.6014
18.6911
25.0631
41.7161
77.755
171.303
129.75
50.6065
45.9573
41.0214
36.7378
33.4638
31.3451
30.0921
30.0371
30.4167
31.3423
33.3829
35.3809
39.3829
42.5171
50.2437
60.322
84.2277
119.355
182.177
161.278
187.467
195.207
195.583
195.11
194.287
193.786
193.597
193.613
193.708
193.899
194.263
194.697
195.237
196.044
196.741
197.466
198.525
202.465
194.469
)
;

boundaryField
{
    movingWall
    {
        Cmu             0.09;
        kappa           0.41;
        E               9.8;
        beta1           0.075;
        type            omegaWallFunction;
        value           nonuniform List<scalar> 
20
(
161.278
187.467
195.207
195.583
195.11
194.287
193.786
193.597
193.613
193.708
193.899
194.263
194.697
195.237
196.044
196.741
197.466
198.525
202.465
194.469
)
;
    }
    fixedWalls
    {
        Cmu             0.09;
        kappa           0.41;
        E               9.8;
        beta1           0.075;
        type            omegaWallFunction;
        value           nonuniform List<scalar> 
60
(
128.013
128.04
128.116
128.357
128.705
129.108
129.558
130.062
130.523
131.064
131.465
131.765
131.737
131.495
130.896
129.657
128.443
128.321
129.75
161.278
129.133
133.12
138.042
141.149
143.503
145.258
146.75
147.994
149.165
150.265
151.417
152.65
154.091
155.818
158.067
161
165.117
171.303
182.177
194.469
128.013
128.024
128.076
128.839
131.146
133.499
134.653
135.283
135.502
135.544
135.181
134.773
134.132
133.512
132.809
132.102
131.419
130.689
129.884
129.133
)
;
    }
    frontAndBack
    {
        type            empty;
    }
}


// ************************************************************************* //
