/*--------------------------------*- C++ -*----------------------------------*\
| =========                 |                                                 |
| \\      /  F ield         | OpenFOAM: The Open Source CFD Toolbox           |
|  \\    /   O peration     | Version:  3.0.0                                 |
|   \\  /    A nd           | Web:      www.OpenFOAM.org                      |
|    \\/     M anipulation  |                                                 |
\*---------------------------------------------------------------------------*/
FoamFile
{
    version     2.0;
    format      ascii;
    class       volScalarField;
    location    "6.5";
    object      p;
}
// * * * * * * * * * * * * * * * * * * * * * * * * * * * * * * * * * * * * * //

dimensions      [0 2 -2 0 0 0 0];

internalField   nonuniform List<scalar> 
400
(
1.26496e-07
-8.32224e-05
-0.000169874
-0.000217565
-0.000482357
-0.00155488
-0.00325465
-0.00502577
-0.0065294
-0.00759852
-0.00813351
-0.00802016
-0.00719179
-0.00560363
-0.00322974
-0.000162242
0.00331946
0.00651704
0.00853022
0.00901056
1.42722e-05
-6.11675e-05
-0.000122144
-0.000462243
-0.00132427
-0.00272029
-0.00438254
-0.00600187
-0.00740339
-0.00839777
-0.00888955
-0.00880713
-0.0081141
-0.00671617
-0.0045853
-0.0017496
0.00156275
0.00482327
0.00720765
0.00838559
0.000229924
-5.27688e-06
-0.00048868
-0.00139934
-0.00278977
-0.00445054
-0.00612405
-0.00768211
-0.00897481
-0.00983512
-0.0102329
-0.0101395
-0.00952115
-0.00834505
-0.0065778
-0.0042181
-0.0013501
0.00177085
0.00456198
0.00625696
0.000298885
-0.000204603
-0.00123906
-0.00277805
-0.00458408
-0.0064017
-0.00805787
-0.00943154
-0.0104445
-0.0111039
-0.011402
-0.0113142
-0.0108142
-0.00987568
-0.00847422
-0.00659706
-0.00425372
-0.00152361
0.0011958
0.00298348
-0.000198787
-0.000944845
-0.00243019
-0.00438127
-0.00636555
-0.00815386
-0.00964546
-0.0108067
-0.0116397
-0.0121719
-0.0124055
-0.0123303
-0.0119288
-0.0111846
-0.0100837
-0.0086168
-0.0067731
-0.00454734
-0.00217516
-0.000522614
-0.00132263
-0.00219986
-0.00392576
-0.00596744
-0.00791765
-0.00956319
-0.0108708
-0.0118647
-0.0125788
-0.0130343
-0.0132357
-0.0131801
-0.012859
-0.0122644
-0.0113911
-0.0102373
-0.00880331
-0.00705896
-0.00523934
-0.00372522
-0.00281817
-0.0037335
-0.00546005
-0.00738753
-0.00918731
-0.0106549
-0.0118053
-0.012677
-0.0133068
-0.0137119
-0.0138987
-0.0138666
-0.0136115
-0.0131312
-0.0124266
-0.0115014
-0.0103813
-0.00902396
-0.00768529
-0.00639596
-0.00432469
-0.00517639
-0.0067787
-0.00854499
-0.010167
-0.0114708
-0.012499
-0.0132823
-0.0138527
-0.0142255
-0.0144075
-0.0143983
-0.0141955
-0.0137995
-0.013217
-0.0124515
-0.0115607
-0.0104876
-0.00951731
-0.00843972
-0.00552332
-0.00630216
-0.00775999
-0.00938425
-0.0108536
-0.0120312
-0.0129729
-0.0136972
-0.0142299
-0.0145846
-0.0147672
-0.0147769
-0.0146115
-0.0142717
-0.0137706
-0.0131037
-0.0123747
-0.0114673
-0.01077
-0.00986438
-0.00629925
-0.0069943
-0.00833843
-0.00986802
-0.0112337
-0.0123362
-0.0132311
-0.0139259
-0.0144421
-0.014791
-0.0149773
-0.0149996
-0.0148554
-0.0145443
-0.0140884
-0.0134543
-0.0128536
-0.0119767
-0.0115275
-0.0106659
-0.00658869
-0.00723599
-0.00850197
-0.00998733
-0.0113049
-0.0123875
-0.0132725
-0.0139669
-0.0144868
-0.0148408
-0.0150322
-0.015059
-0.0149194
-0.0146088
-0.0141628
-0.0135013
-0.0129971
-0.0120179
-0.0118279
-0.0108532
-0.00639026
-0.00703354
-0.00825684
-0.00973755
-0.0110633
-0.0121734
-0.0130867
-0.0138109
-0.0143559
-0.0147263
-0.0149242
-0.0149468
-0.0147936
-0.0144596
-0.013971
-0.013286
-0.0127245
-0.0116655
-0.0116867
-0.0104269
-0.00578228
-0.00646196
-0.00767296
-0.00913865
-0.0105193
-0.0116896
-0.0126635
-0.0134462
-0.0140382
-0.0144377
-0.0146448
-0.0146552
-0.0144703
-0.0140822
-0.0135189
-0.0127662
-0.0120613
-0.0109725
-0.0110237
-0.00945608
-0.00498496
-0.00566456
-0.00681956
-0.00820679
-0.00964575
-0.0109078
-0.0119812
-0.0128571
-0.0135229
-0.0139677
-0.01419
-0.0141824
-0.0139478
-0.013477
-0.0128035
-0.0119233
-0.0110361
-0.00990219
-0.00986077
-0.00804799
-0.0042261
-0.00481899
-0.00580737
-0.00703013
-0.00844214
-0.00980842
-0.0110221
-0.0120306
-0.0128025
-0.0133152
-0.0135639
-0.0135389
-0.0132415
-0.0126626
-0.0118405
-0.010776
-0.00967491
-0.00842244
-0.00823165
-0.00621632
-0.00380836
-0.00408044
-0.00467291
-0.00561737
-0.00692414
-0.00838639
-0.00977603
-0.0109605
-0.0118774
-0.0124886
-0.0127838
-0.0127477
-0.012392
-0.0116913
-0.0106889
-0.00939123
-0.00802129
-0.00652931
-0.00609631
-0.00367197
-0.00381125
-0.00358311
-0.00350838
-0.00403362
-0.00517527
-0.00669896
-0.00827327
-0.00966882
-0.0107744
-0.0115272
-0.0119099
-0.0118993
-0.0114964
-0.0106732
-0.00947463
-0.0079015
-0.00616143
-0.00422227
-0.00316963
0.000755813
-0.00335564
-0.00293066
-0.00225768
-0.00236112
-0.00334833
-0.00492427
-0.00665334
-0.00823237
-0.00952801
-0.0104465
-0.0109451
-0.0109873
-0.0105753
-0.00968978
-0.00833399
-0.00647587
-0.00422938
-0.00144582
0.00124525
0.00934564
-0.00407285
-0.00267298
-0.00127457
-0.00103752
-0.00195835
-0.00357451
-0.00541467
-0.00714342
-0.00858283
-0.00963128
-0.0102295
-0.0103526
-0.00996936
-0.00905633
-0.0075488
-0.00534609
-0.00235786
0.00200917
0.00803304
0.022751
-0.00200763
0.00090627
0.000960494
0.00026207
-0.000980496
-0.00268115
-0.0045949
-0.00643361
-0.00796777
-0.00908555
-0.00972786
-0.00986495
-0.00945857
-0.00846956
-0.00682207
-0.00434582
-0.000188182
0.00662424
0.0174178
0.0352081
)
;

boundaryField
{
    movingWall
    {
        type            zeroGradient;
    }
    fixedWalls
    {
        type            zeroGradient;
    }
    frontAndBack
    {
        type            empty;
    }
}


// ************************************************************************* //
