/*--------------------------------*- C++ -*----------------------------------*\
| =========                 |                                                 |
| \\      /  F ield         | OpenFOAM: The Open Source CFD Toolbox           |
|  \\    /   O peration     | Version:  3.0.0                                 |
|   \\  /    A nd           | Web:      www.OpenFOAM.org                      |
|    \\/     M anipulation  |                                                 |
\*---------------------------------------------------------------------------*/
FoamFile
{
    version     2.0;
    format      ascii;
    class       surfaceScalarField;
    location    "6.5";
    object      phi;
}
// * * * * * * * * * * * * * * * * * * * * * * * * * * * * * * * * * * * * * //

dimensions      [0 3 -1 0 0 0 0];

internalField   nonuniform List<scalar> 
760
(
2.46941e-07
-2.46953e-07
1.92947e-07
5.39939e-08
-2.37357e-07
4.30304e-07
-1.31614e-06
1.07878e-06
-2.89062e-06
1.57448e-06
-4.40993e-06
1.51931e-06
-5.68269e-06
1.27276e-06
-6.7054e-06
1.0227e-06
-7.43699e-06
7.31599e-07
-7.95777e-06
5.20779e-07
-8.23949e-06
2.81714e-07
-8.33762e-06
9.8136e-08
-8.19522e-06
-1.42405e-07
-7.84502e-06
-3.50199e-07
-7.19111e-06
-6.53913e-07
-6.20561e-06
-9.85493e-07
-4.79995e-06
-1.40567e-06
-3.02352e-06
-1.77643e-06
-1.11165e-06
-1.91188e-06
-1.11165e-06
-1.01904e-07
-1.45049e-07
-7.80424e-07
7.32513e-07
-2.16968e-06
1.81956e-06
-3.85965e-06
2.76875e-06
-5.1523e-06
2.86713e-06
-6.17455e-06
2.54157e-06
-7.03211e-06
2.13032e-06
-7.67351e-06
1.6641e-06
-8.18233e-06
1.24042e-06
-8.49259e-06
8.31038e-07
-8.6442e-06
4.33319e-07
-8.5776e-06
3.15453e-08
-8.39503e-06
-3.24982e-07
-8.01772e-06
-7.27508e-07
-7.44319e-06
-1.22845e-06
-6.59062e-06
-1.83805e-06
-5.40642e-06
-2.58987e-06
-3.79173e-06
-3.39112e-06
-1.84296e-06
-3.86065e-06
-2.9546e-06
-7.63451e-07
6.18402e-07
-2.06011e-06
2.02917e-06
-3.56449e-06
3.32394e-06
-4.70012e-06
3.90438e-06
-5.53647e-06
3.70348e-06
-6.2112e-06
3.21629e-06
-6.69868e-06
2.6178e-06
-7.00973e-06
1.97515e-06
-7.18163e-06
1.41233e-06
-7.22206e-06
8.71463e-07
-7.19388e-06
4.05138e-07
-7.11145e-06
-5.08832e-08
-6.93274e-06
-5.03688e-07
-6.63786e-06
-1.02239e-06
-6.22248e-06
-1.64383e-06
-5.6307e-06
-2.42984e-06
-4.80397e-06
-3.4166e-06
-3.63152e-06
-4.56357e-06
-2.03778e-06
-5.45438e-06
-4.99239e-06
-1.15233e-06
1.77074e-06
-2.58244e-06
3.45928e-06
-3.77874e-06
4.52023e-06
-4.56043e-06
4.68607e-06
-5.07679e-06
4.21985e-06
-5.38977e-06
3.52927e-06
-5.53384e-06
2.76187e-06
-5.60484e-06
2.04614e-06
-5.63135e-06
1.43884e-06
-5.64043e-06
8.80547e-07
-5.6064e-06
3.71109e-07
-5.52147e-06
-1.35814e-07
-5.36498e-06
-6.60177e-07
-5.13301e-06
-1.25436e-06
-4.81496e-06
-1.96187e-06
-4.39857e-06
-2.84623e-06
-3.84425e-06
-3.97092e-06
-3.02959e-06
-5.37822e-06
-1.76235e-06
-6.72162e-06
-6.75474e-06
-1.25858e-06
3.02932e-06
-2.48877e-06
4.68947e-06
-3.33802e-06
5.36948e-06
-3.86722e-06
5.21526e-06
-4.1389e-06
4.49153e-06
-4.26e-06
3.65037e-06
-4.31701e-06
2.81888e-06
-4.35865e-06
2.08778e-06
-4.3709e-06
1.45109e-06
-4.35985e-06
8.69505e-07
-4.31322e-06
3.24481e-07
-4.22516e-06
-2.23877e-07
-4.08366e-06
-8.0168e-07
-3.8868e-06
-1.45123e-06
-3.63052e-06
-2.21815e-06
-3.31252e-06
-3.16423e-06
-2.91896e-06
-4.36448e-06
-2.36185e-06
-5.93534e-06
-1.44306e-06
-7.6404e-06
-8.1978e-06
-1.09097e-06
4.12029e-06
-2.04262e-06
5.64112e-06
-2.66394e-06
5.9908e-06
-3.01727e-06
5.5686e-06
-3.17729e-06
4.65155e-06
-3.25103e-06
3.72411e-06
-3.29304e-06
2.86089e-06
-3.32366e-06
2.1184e-06
-3.33421e-06
1.46164e-06
-3.32294e-06
8.5823e-07
-3.28072e-06
2.82266e-07
-3.20218e-06
-3.02424e-07
-3.07982e-06
-9.24037e-07
-2.91202e-06
-1.61902e-06
-2.70066e-06
-2.42951e-06
-2.45074e-06
-3.41416e-06
-2.17613e-06
-4.63908e-06
-1.81722e-06
-6.29424e-06
-1.12028e-06
-8.33735e-06
-9.31808e-06
-8.45235e-07
4.96553e-06
-1.5099e-06
6.30579e-06
-1.95402e-06
6.43491e-06
-2.1949e-06
5.80948e-06
-2.31221e-06
4.76886e-06
-2.37489e-06
3.7868e-06
-2.41967e-06
2.90567e-06
-2.45143e-06
2.15016e-06
-2.46697e-06
1.47718e-06
-2.46412e-06
8.55378e-07
-2.43586e-06
2.54004e-07
-2.37684e-06
-3.61447e-07
-2.2807e-06
-1.02017e-06
-2.14539e-06
-1.75434e-06
-1.97493e-06
-2.59996e-06
-1.77355e-06
-3.61553e-06
-1.56008e-06
-4.85256e-06
-1.30331e-06
-6.55101e-06
-8.98266e-07
-8.7424e-06
-1.02163e-05
-5.29363e-07
5.49489e-06
-9.80863e-07
6.75729e-06
-1.29664e-06
6.75069e-06
-1.4591e-06
5.97194e-06
-1.55046e-06
4.86022e-06
-1.61019e-06
3.84653e-06
-1.65932e-06
2.9548e-06
-1.69581e-06
2.18666e-06
-1.71884e-06
1.50021e-06
-1.72707e-06
8.63606e-07
-1.71568e-06
2.42613e-07
-1.67992e-06
-3.972e-07
-1.61445e-06
-1.08564e-06
-1.5165e-06
-1.85229e-06
-1.39048e-06
-2.72598e-06
-1.24368e-06
-3.76234e-06
-1.09662e-06
-4.99962e-06
-9.25997e-07
-6.72163e-06
-6.63384e-07
-9.00501e-06
-1.08797e-05
-2.72413e-07
5.7673e-06
-5.21248e-07
7.00612e-06
-6.97779e-07
6.92722e-06
-7.99104e-07
6.07327e-06
-8.70885e-07
4.932e-06
-9.27267e-07
3.90291e-06
-9.77844e-07
3.00538e-06
-1.01788e-06
2.22669e-06
-1.04723e-06
1.52956e-06
-1.0654e-06
8.81776e-07
-1.06958e-06
2.46791e-07
-1.05677e-06
-4.10008e-07
-1.02342e-06
-1.11899e-06
-9.66038e-07
-1.90967e-06
-8.87334e-07
-2.80469e-06
-7.92537e-07
-3.85713e-06
-7.12523e-07
-5.07963e-06
-6.31657e-07
-6.8025e-06
-5.23222e-07
-9.11345e-06
-1.1403e-05
6.73434e-09
5.76057e-06
-9.07542e-08
7.10361e-06
-1.55402e-07
6.99187e-06
-2.04678e-07
6.12254e-06
-2.49253e-07
4.97657e-06
-2.96569e-07
3.95023e-06
-3.42424e-07
3.05123e-06
-3.82082e-07
2.26635e-06
-4.14629e-07
1.56211e-06
-4.3986e-07
9.07007e-07
-4.57105e-07
2.64037e-07
-4.65409e-07
-4.01704e-07
-4.64334e-07
-1.12007e-06
-4.48445e-07
-1.92556e-06
-4.28168e-07
-2.82497e-06
-3.93591e-07
-3.89171e-06
-3.9614e-07
-5.07708e-06
-3.97274e-07
-6.80136e-06
-3.77666e-07
-9.13305e-06
-1.17806e-05
2.38974e-07
5.5216e-06
3.30503e-07
7.01208e-06
3.92949e-07
6.92943e-06
3.79064e-07
6.13643e-06
3.53021e-07
5.00262e-06
3.18207e-07
3.98504e-06
2.80696e-07
3.08874e-06
2.44952e-07
2.30209e-06
2.12054e-07
1.59501e-06
1.82012e-07
9.37049e-07
1.53348e-07
2.92701e-07
1.25057e-07
-3.73413e-07
9.60144e-08
-1.09102e-06
5.94649e-08
-1.88901e-06
4.27789e-08
-2.80828e-06
-3.63316e-08
-3.8126e-06
-6.85186e-08
-5.04489e-06
-1.94254e-07
-6.67563e-06
-2.94065e-07
-9.03324e-06
-1.20747e-05
4.79962e-07
5.04163e-06
7.55808e-07
6.73624e-06
9.23872e-07
6.76136e-06
9.48023e-07
6.11228e-06
9.43931e-07
5.00671e-06
9.30383e-07
3.99859e-06
9.10685e-07
3.10844e-06
8.87109e-07
2.32567e-06
8.59986e-07
1.62213e-06
8.28774e-07
9.68261e-07
7.89469e-07
3.32006e-07
7.39531e-07
-3.23475e-07
6.75119e-07
-1.02661e-06
5.99541e-07
-1.81343e-06
4.92535e-07
-2.70127e-06
3.77488e-07
-3.69755e-06
2.13507e-07
-4.88091e-06
-3.48442e-08
-6.42728e-06
-1.69676e-07
-8.89841e-06
-1.22444e-05
7.1339e-07
4.32824e-06
1.1337e-06
6.31593e-06
1.42811e-06
6.46695e-06
1.54471e-06
5.99568e-06
1.57582e-06
4.9756e-06
1.59157e-06
3.98284e-06
1.59505e-06
3.10496e-06
1.5871e-06
2.33362e-06
1.56705e-06
1.64218e-06
1.53381e-06
1.0015e-06
1.48229e-06
3.83528e-07
1.40831e-06
-2.49495e-07
1.3071e-06
-9.25402e-07
1.17546e-06
-1.68178e-06
1.00025e-06
-2.52606e-06
8.07564e-07
-3.50487e-06
5.18532e-07
-4.59188e-06
2.09e-07
-6.11774e-06
-1.82216e-08
-8.67119e-06
-1.22626e-05
9.38964e-07
3.38928e-06
1.53497e-06
5.71992e-06
1.90685e-06
6.09507e-06
2.12052e-06
5.78201e-06
2.20885e-06
4.88727e-06
2.27182e-06
3.91987e-06
2.31551e-06
3.06128e-06
2.33876e-06
2.31036e-06
2.33837e-06
1.64257e-06
2.31247e-06
1.0274e-06
2.25422e-06
4.41779e-07
2.15664e-06
-1.51919e-07
2.01522e-06
-7.83978e-07
1.82407e-06
-1.49063e-06
1.573e-06
-2.275e-06
1.27287e-06
-3.20474e-06
8.63963e-07
-4.18297e-06
4.63508e-07
-5.71729e-06
1.21508e-07
-8.32919e-06
-1.21411e-05
1.08916e-06
2.30012e-06
1.80068e-06
5.0084e-06
2.31834e-06
5.5774e-06
2.71154e-06
5.38881e-06
2.93044e-06
4.66837e-06
3.06512e-06
3.78519e-06
3.15438e-06
2.97202e-06
3.20895e-06
2.25579e-06
3.22697e-06
1.62455e-06
3.20634e-06
1.04803e-06
3.13931e-06
5.08806e-07
3.01204e-06
-2.4652e-08
2.82546e-06
-5.97394e-07
2.56937e-06
-1.23454e-06
2.22728e-06
-1.9329e-06
1.80215e-06
-2.77961e-06
1.26083e-06
-3.64165e-06
7.30318e-07
-5.18677e-06
2.62369e-07
-7.86124e-06
-1.18787e-05
1.1029e-06
1.19722e-06
1.91672e-06
4.19458e-06
2.55988e-06
4.93424e-06
3.12975e-06
4.81894e-06
3.53911e-06
4.25901e-06
3.81516e-06
3.50914e-06
4.00187e-06
2.78531e-06
4.12247e-06
2.1352e-06
4.18235e-06
1.56467e-06
4.18242e-06
1.04796e-06
4.11493e-06
5.763e-07
3.98125e-06
1.09024e-07
3.75248e-06
-3.68626e-07
3.43181e-06
-9.13867e-07
2.98721e-06
-1.48831e-06
2.4194e-06
-2.2118e-06
1.72572e-06
-2.94797e-06
1.03881e-06
-4.49986e-06
4.42415e-07
-7.26485e-06
-1.14363e-05
5.86776e-07
6.10444e-07
1.68719e-06
3.09417e-06
2.65285e-06
3.96858e-06
3.48629e-06
3.9855e-06
4.15157e-06
3.59373e-06
4.63198e-06
3.02873e-06
4.96795e-06
2.44934e-06
5.18684e-06
1.9163e-06
5.30704e-06
1.44447e-06
5.3396e-06
1.01541e-06
5.27951e-06
6.36386e-07
5.1251e-06
2.63433e-07
4.84293e-06
-8.64499e-08
4.44995e-06
-5.20896e-07
3.88978e-06
-9.28129e-07
3.17947e-06
-1.5015e-06
2.33513e-06
-2.10363e-06
1.46792e-06
-3.63266e-06
6.54407e-07
-6.45133e-06
-1.07819e-05
-1.8522e-09
6.12296e-07
9.50152e-07
2.14217e-06
2.08885e-06
2.82988e-06
3.24881e-06
2.82554e-06
4.24648e-06
2.59606e-06
5.03061e-06
2.24459e-06
5.60946e-06
1.87049e-06
6.01657e-06
1.50919e-06
6.26801e-06
1.19303e-06
6.38744e-06
8.9598e-07
6.37108e-06
6.52745e-07
6.24346e-06
3.91048e-07
5.98392e-06
1.73092e-07
5.58165e-06
-1.18625e-07
4.99421e-06
-3.40684e-07
4.26053e-06
-7.67826e-07
3.37033e-06
-1.21342e-06
2.37525e-06
-2.63758e-06
1.14242e-06
-5.2185e-06
-9.63947e-06
-1.08056e-06
1.69286e-06
-2.16203e-07
1.27781e-06
1.317e-06
1.29669e-06
2.81834e-06
1.3242e-06
4.10167e-06
1.31272e-06
5.14894e-06
1.19732e-06
5.97706e-06
1.04237e-06
6.61225e-06
8.74e-07
7.07227e-06
7.33009e-07
7.37401e-06
5.9424e-07
7.54904e-06
4.77715e-07
7.58691e-06
3.53179e-07
7.50869e-06
2.51307e-07
7.27063e-06
1.19439e-07
6.91716e-06
1.27877e-08
6.39766e-06
-2.48333e-07
5.7196e-06
-5.35364e-07
4.66822e-06
-1.58619e-06
2.63753e-06
-3.18781e-06
-7.00193e-06
1.69286e-06
2.97067e-06
4.26735e-06
5.59155e-06
6.90427e-06
8.10159e-06
9.14396e-06
1.0018e-05
1.0751e-05
1.13452e-05
1.18229e-05
1.21761e-05
1.24274e-05
1.25469e-05
1.25596e-05
1.23113e-05
1.17759e-05
1.01897e-05
7.00193e-06
)
;

boundaryField
{
    movingWall
    {
        type            calculated;
        value           uniform 0;
    }
    fixedWalls
    {
        type            calculated;
        value           uniform 0;
    }
    frontAndBack
    {
        type            empty;
        value           nonuniform 0();
    }
}


// ************************************************************************* //
