/*--------------------------------*- C++ -*----------------------------------*\
| =========                 |                                                 |
| \\      /  F ield         | OpenFOAM: The Open Source CFD Toolbox           |
|  \\    /   O peration     | Version:  3.0.0                                 |
|   \\  /    A nd           | Web:      www.OpenFOAM.org                      |
|    \\/     M anipulation  |                                                 |
\*---------------------------------------------------------------------------*/
FoamFile
{
    version     2.0;
    format      ascii;
    class       volVectorField;
    location    "6.5";
    object      U;
}
// * * * * * * * * * * * * * * * * * * * * * * * * * * * * * * * * * * * * * //

dimensions      [0 1 -1 0 0 0 0];

internalField   nonuniform List<vector> 
400
(
(0.00286823 -0.0033715 0)
(0.00644445 -0.00132869 0)
(0.000936233 0.00105194 0)
(-0.00940613 0.00596848 0)
(-0.039615 0.0148712 0)
(-0.0785772 0.0162451 0)
(-0.103793 0.0127166 0)
(-0.128403 0.0112997 0)
(-0.143057 0.00842406 0)
(-0.156676 0.00660865 0)
(-0.163254 0.00401942 0)
(-0.167108 0.0025346 0)
(-0.167389 -0.000866245 0)
(-0.161145 -0.00305696 0)
(-0.150821 -0.00695159 0)
(-0.13258 -0.00992867 0)
(-0.10815 -0.0139821 0)
(-0.0757233 -0.016174 0)
(-0.0412672 -0.0162939 0)
(-0.00776563 -0.00339346 0)
(0.00109114 -0.00740243 0)
(-0.00557062 0.00338484 0)
(-0.0236967 0.0180268 0)
(-0.0603527 0.0400266 0)
(-0.0936418 0.0458413 0)
(-0.116639 0.0406102 0)
(-0.135177 0.0348852 0)
(-0.148841 0.027589 0)
(-0.16065 0.0194529 0)
(-0.168179 0.0130786 0)
(-0.172858 0.00645074 0)
(-0.173746 0.00077317 0)
(-0.171267 -0.00589609 0)
(-0.165269 -0.0128717 0)
(-0.154922 -0.0220249 0)
(-0.139465 -0.0328756 0)
(-0.118035 -0.0459298 0)
(-0.0903452 -0.0579331 0)
(-0.0571472 -0.0603445 0)
(-0.0172142 -0.0369273 0)
(-0.00534926 0.00257328 0)
(-0.0248428 0.0278114 0)
(-0.0552685 0.0541065 0)
(-0.0859954 0.0675745 0)
(-0.105444 0.0653396 0)
(-0.119902 0.0575572 0)
(-0.1307 0.0467784 0)
(-0.139136 0.035398 0)
(-0.143147 0.0264074 0)
(-0.144538 0.0169361 0)
(-0.144773 0.00851903 0)
(-0.143505 -0.000167286 0)
(-0.14153 -0.0089351 0)
(-0.136405 -0.0188991 0)
(-0.129257 -0.0308207 0)
(-0.118312 -0.0458655 0)
(-0.103509 -0.0645026 0)
(-0.0827823 -0.0854281 0)
(-0.0560683 -0.0999753 0)
(-0.0210431 -0.0851802 0)
(-0.00886196 0.0243129 0)
(-0.0366545 0.0563394 0)
(-0.0673719 0.0801819 0)
(-0.0870859 0.085377 0)
(-0.0989396 0.0787343 0)
(-0.106766 0.0670692 0)
(-0.110533 0.0538603 0)
(-0.111879 0.0406282 0)
(-0.112212 0.0286335 0)
(-0.113139 0.017588 0)
(-0.112785 0.00782861 0)
(-0.111789 -0.00185095 0)
(-0.109397 -0.0117474 0)
(-0.105541 -0.023066 0)
(-0.100022 -0.0366474 0)
(-0.0925494 -0.0538665 0)
(-0.0823287 -0.0758519 0)
(-0.0674854 -0.102388 0)
(-0.0472874 -0.125482 0)
(-0.0182393 -0.122722 0)
(-0.0102714 0.0476176 0)
(-0.0402534 0.0813224 0)
(-0.0622239 0.0983019 0)
(-0.0755596 0.0985939 0)
(-0.0821076 0.0870893 0)
(-0.084971 0.072247 0)
(-0.085926 0.0564437 0)
(-0.0867057 0.04192 0)
(-0.0872877 0.0292028 0)
(-0.0875139 0.0176253 0)
(-0.08698 0.0069646 0)
(-0.0857278 -0.00363103 0)
(-0.0834425 -0.0146971 0)
(-0.0800617 -0.0271578 0)
(-0.0755502 -0.0419647 0)
(-0.0698905 -0.060452 0)
(-0.0627773 -0.0843225 0)
(-0.0516837 -0.11574 0)
(-0.0377699 -0.147127 0)
(-0.0156237 -0.153417 0)
(-0.00880244 0.0702973 0)
(-0.0354082 0.103013 0)
(-0.0501605 0.112952 0)
(-0.0600915 0.107545 0)
(-0.0630955 0.0916824 0)
(-0.0644678 0.0742306 0)
(-0.0652314 0.0571926 0)
(-0.0660922 0.0423553 0)
(-0.0666107 0.0293109 0)
(-0.066701 0.0173819 0)
(-0.0662325 0.00609085 0)
(-0.0650699 -0.00527973 0)
(-0.0630777 -0.0172815 0)
(-0.0601595 -0.0306973 0)
(-0.0563507 -0.0463976 0)
(-0.0517329 -0.0655669 0)
(-0.046705 -0.0896881 0)
(-0.0383075 -0.122147 0)
(-0.0316467 -0.161843 0)
(-0.00859272 -0.177437 0)
(-0.00737509 0.0901268 0)
(-0.0275232 0.11827 0)
(-0.0365074 0.123269 0)
(-0.0444667 0.113471 0)
(-0.0454164 0.0942668 0)
(-0.0468186 0.0753066 0)
(-0.0477307 0.0578088 0)
(-0.048663 0.0427862 0)
(-0.0492009 0.0294496 0)
(-0.049399 0.0171545 0)
(-0.0491511 0.00532152 0)
(-0.0483063 -0.0067274 0)
(-0.0467631 -0.0195706 0)
(-0.0444323 -0.0338868 0)
(-0.0413367 -0.0504642 0)
(-0.0374122 -0.0704847 0)
(-0.0340247 -0.0951737 0)
(-0.0264586 -0.128897 0)
(-0.0253543 -0.171522 0)
(-0.00634903 -0.196751 0)
(-0.00399356 0.104173 0)
(-0.0180656 0.130634 0)
(-0.0242361 0.132002 0)
(-0.0299838 0.117832 0)
(-0.0299596 0.0964125 0)
(-0.0315477 0.076411 0)
(-0.0325289 0.0586415 0)
(-0.0335119 0.0433859 0)
(-0.0341449 0.0297701 0)
(-0.0345182 0.0171543 0)
(-0.0345389 0.00488818 0)
(-0.0340881 -0.00771069 0)
(-0.0330722 -0.0212255 0)
(-0.0314082 -0.0362534 0)
(-0.0291889 -0.0534246 0)
(-0.0258787 -0.0739288 0)
(-0.0244606 -0.0985045 0)
(-0.0175773 -0.132837 0)
(-0.0209272 -0.177627 0)
(-0.00199747 -0.211674 0)
(-0.0015949 0.113309 0)
(-0.00996698 0.137239 0)
(-0.0130415 0.136492 0)
(-0.0167277 0.120306 0)
(-0.0163171 0.0977591 0)
(-0.0179719 0.0774164 0)
(-0.0189287 0.0595651 0)
(-0.0199189 0.0441027 0)
(-0.0206388 0.0302543 0)
(-0.0211615 0.0173836 0)
(-0.021426 0.00478956 0)
(-0.0213518 -0.00822936 0)
(-0.0208764 -0.0222656 0)
(-0.0198948 -0.0379001 0)
(-0.0187624 -0.0556122 0)
(-0.0158958 -0.0766224 0)
(-0.0167093 -0.101113 0)
(-0.00989523 -0.135783 0)
(-0.0172857 -0.181396 0)
(-0.000508003 -0.223537 0)
(0.00215326 0.116253 0)
(-0.00194867 0.142311 0)
(-0.0025782 0.140157 0)
(-0.00462304 0.122369 0)
(-0.00409179 0.0994377 0)
(-0.00549658 0.0786787 0)
(-0.00629394 0.0606032 0)
(-0.00720978 0.0449029 0)
(-0.00794813 0.0308509 0)
(-0.00855964 0.0177965 0)
(-0.00901251 0.00499585 0)
(-0.00926601 -0.00828024 0)
(-0.00933016 -0.0226209 0)
(-0.00900148 -0.0386302 0)
(-0.00923968 -0.0566758 0)
(-0.00680542 -0.0777481 0)
(-0.0102502 -0.102078 0)
(-0.00349898 -0.136285 0)
(-0.0147166 -0.182591 0)
(0.00250994 -0.232388 0)
(0.00491855 0.114173 0)
(0.00447492 0.142116 0)
(0.0072365 0.139667 0)
(0.00692554 0.122391 0)
(0.00772873 0.0995021 0)
(0.00671098 0.0791478 0)
(0.00607512 0.0612793 0)
(0.0052937 0.0455887 0)
(0.00459337 0.0314795 0)
(0.00394302 0.0183421 0)
(0.00334246 0.00545363 0)
(0.00279538 -0.00791612 0)
(0.00216324 -0.0223405 0)
(0.00187336 -0.0384593 0)
(0.000248081 -0.0567215 0)
(0.00198671 -0.0773878 0)
(-0.00410353 -0.101934 0)
(0.00264063 -0.134942 0)
(-0.0127542 -0.182464 0)
(0.00404742 -0.238884 0)
(0.00684443 0.107757 0)
(0.0117474 0.139987 0)
(0.0166018 0.138658 0)
(0.0180982 0.123357 0)
(0.0191986 0.100727 0)
(0.0187903 0.0801648 0)
(0.0184924 0.0621146 0)
(0.0180308 0.0463108 0)
(0.0175217 0.0321369 0)
(0.0169398 0.0189744 0)
(0.01622 0.00613362 0)
(0.0153905 -0.00714053 0)
(0.0141571 -0.0214244 0)
(0.0131636 -0.0373499 0)
(0.0103821 -0.0554885 0)
(0.0107997 -0.0756677 0)
(0.0023774 -0.099707 0)
(0.00860537 -0.131404 0)
(-0.0112619 -0.1799 0)
(0.00731992 -0.242836 0)
(0.00964825 0.0972205 0)
(0.0175874 0.132287 0)
(0.0256011 0.132889 0)
(0.0291043 0.121378 0)
(0.0314506 0.0990685 0)
(0.0317804 0.0793611 0)
(0.0319191 0.0619149 0)
(0.0318578 0.0464777 0)
(0.0316069 0.0325634 0)
(0.0311129 0.0196224 0)
(0.0302293 0.00707 0)
(0.0291238 -0.00584887 0)
(0.0271346 -0.0196997 0)
(0.0255219 -0.0352177 0)
(0.0212976 -0.0526495 0)
(0.0203586 -0.0725796 0)
(0.00976529 -0.0951713 0)
(0.0146015 -0.126106 0)
(-0.00948659 -0.17593 0)
(0.0103079 -0.244924 0)
(0.0117434 0.0794953 0)
(0.0240458 0.123895 0)
(0.0350689 0.127558 0)
(0.0394333 0.11967 0)
(0.0433157 0.0999203 0)
(0.0448453 0.07963 0)
(0.0458623 0.0620204 0)
(0.0465598 0.0466741 0)
(0.0468494 0.0330044 0)
(0.0466937 0.0204009 0)
(0.0457496 0.0083086 0)
(0.0444986 -0.00402854 0)
(0.0416683 -0.0171495 0)
(0.039411 -0.0318421 0)
(0.0335113 -0.0482423 0)
(0.0311457 -0.0674349 0)
(0.0179411 -0.0881902 0)
(0.0208666 -0.119112 0)
(-0.00715402 -0.170497 0)
(0.0148952 -0.245299 0)
(0.0138281 0.0599311 0)
(0.0278781 0.108197 0)
(0.0420855 0.117122 0)
(0.0498304 0.11168 0)
(0.0560303 0.0958223 0)
(0.0597525 0.0770175 0)
(0.0620716 0.0602246 0)
(0.0636315 0.0455997 0)
(0.0644213 0.032658 0)
(0.0646261 0.0207855 0)
(0.0635289 0.00954633 0)
(0.0621059 -0.00186616 0)
(0.0582724 -0.0137912 0)
(0.0553088 -0.0271956 0)
(0.0475157 -0.0420549 0)
(0.0435606 -0.0599097 0)
(0.0272792 -0.078541 0)
(0.027881 -0.109741 0)
(-0.00464787 -0.163236 0)
(0.0194792 -0.244979 0)
(0.0137127 0.0333855 0)
(0.031231 0.0946743 0)
(0.0460943 0.107963 0)
(0.0567154 0.105284 0)
(0.0658238 0.0923924 0)
(0.0729019 0.075328 0)
(0.0778578 0.0591022 0)
(0.0812523 0.044912 0)
(0.0830697 0.0326345 0)
(0.0841068 0.021557 0)
(0.0830079 0.0113119 0)
(0.081797 0.00107783 0)
(0.0771404 -0.00934384 0)
(0.0736246 -0.0211385 0)
(0.0638287 -0.0339289 0)
(0.0579759 -0.0497443 0)
(0.0381088 -0.0660028 0)
(0.0362111 -0.0978013 0)
(-0.00187579 -0.154269 0)
(0.0255594 -0.242268 0)
(0.000142522 0.0102428 0)
(0.0252558 0.0683199 0)
(0.0456405 0.0879162 0)
(0.0611323 0.0891266 0)
(0.0751866 0.0804696 0)
(0.0867672 0.0674642 0)
(0.0953089 0.0541113 0)
(0.10156 0.0415349 0)
(0.104807 0.0304652 0)
(0.107177 0.0206078 0)
(0.106061 0.0118122 0)
(0.105218 0.00323794 0)
(0.0994133 -0.00514711 0)
(0.0950874 -0.0145863 0)
(0.0830624 -0.0242326 0)
(0.0749363 -0.0369577 0)
(0.0517292 -0.0503665 0)
(0.0473205 -0.0828325 0)
(0.00198454 -0.142189 0)
(0.033213 -0.23311 0)
(-0.0101496 0.0183921 0)
(0.0101616 0.0603687 0)
(0.0319149 0.0749892 0)
(0.0532161 0.0750652 0)
(0.0734603 0.06827 0)
(0.0918298 0.0582027 0)
(0.105604 0.047902 0)
(0.116511 0.0387354 0)
(0.122395 0.0303052 0)
(0.12746 0.0223607 0)
(0.127394 0.0154327 0)
(0.127611 0.00851085 0)
(0.121871 0.00241561 0)
(0.117666 -0.00469167 0)
(0.10518 -0.0110586 0)
(0.0961384 -0.0212184 0)
(0.0725726 -0.0324422 0)
(0.0665524 -0.0643607 0)
(0.0142951 -0.122305 0)
(0.0481557 -0.205459 0)
(-0.0204316 -0.000500423 0)
(-0.0180282 0.0138981 0)
(0.0114737 0.0304084 0)
(0.0412667 0.0349644 0)
(0.0680799 0.035087 0)
(0.0921233 0.0319594 0)
(0.110547 0.0274076 0)
(0.126328 0.0220783 0)
(0.136678 0.017815 0)
(0.145301 0.0135063 0)
(0.149272 0.0102478 0)
(0.152259 0.00631184 0)
(0.150913 0.00372808 0)
(0.14874 -0.000829322 0)
(0.141013 -0.00377931 0)
(0.134741 -0.0106287 0)
(0.116666 -0.0181616 0)
(0.110052 -0.0440509 0)
(0.0563164 -0.087852 0)
(0.0817535 -0.152595 0)
(0.0398407 0.0796215 0)
(0.0401113 0.0493371 0)
(0.0701989 0.0299756 0)
(0.0985398 0.0228457 0)
(0.124186 0.0203691 0)
(0.149488 0.0183785 0)
(0.171499 0.016523 0)
(0.191566 0.0147698 0)
(0.207625 0.013124 0)
(0.221539 0.0117309 0)
(0.231814 0.0102412 0)
(0.240577 0.00915734 0)
(0.245929 0.00761822 0)
(0.250112 0.00666249 0)
(0.250718 0.00468265 0)
(0.248243 0.00233394 0)
(0.23974 0.0011619 0)
(0.224635 -0.00802165 0)
(0.171386 -0.0171599 0)
(0.15715 -0.094034 0)
)
;

boundaryField
{
    movingWall
    {
        type            fixedValue;
        value           uniform (1 0 0);
    }
    fixedWalls
    {
        type            fixedValue;
        value           uniform (0 0 0);
    }
    frontAndBack
    {
        type            empty;
    }
}


// ************************************************************************* //
