/*--------------------------------*- C++ -*----------------------------------*\
| =========                 |                                                 |
| \\      /  F ield         | OpenFOAM: The Open Source CFD Toolbox           |
|  \\    /   O peration     | Version:  3.0.0                                 |
|   \\  /    A nd           | Web:      www.OpenFOAM.org                      |
|    \\/     M anipulation  |                                                 |
\*---------------------------------------------------------------------------*/
FoamFile
{
    version     2.0;
    format      ascii;
    class       surfaceScalarField;
    location    "8.5";
    object      phi;
}
// * * * * * * * * * * * * * * * * * * * * * * * * * * * * * * * * * * * * * //

dimensions      [0 3 -1 0 0 0 0];

internalField   nonuniform List<scalar> 
11520
(
-0.00038796
-0.000500709
0.000243683
-0.000412677
-0.000399224
0.000310116
-0.00038854
-0.000303645
0.000355492
-0.000315601
-0.00020144
0.000370502
-0.000205621
-9.99015e-05
0.000349133
-8.34907e-05
-1.34624e-05
0.00028974
2.33738e-05
4.27619e-05
0.000200532
9.32158e-05
5.74176e-05
9.95405e-05
0.000120986
2.608e-05
9.88641e-06
0.000114128
-4.83287e-05
-5.31493e-05
8.24605e-05
-0.000154113
-8.53886e-05
3.0949e-05
-0.000270732
-8.8789e-05
-4.04143e-05
-0.000374492
-6.53845e-05
-0.000130131
-0.000447053
-1.72989e-05
-0.000229964
-0.000482721
4.87453e-05
-0.00048066
0.000115052
-0.000562592
-0.000398401
7.03394e-05
-0.000605203
-0.000318279
0.00014385
-0.000587417
-0.000250748
0.00021197
-0.000510722
-0.000178618
0.00026612
-0.000384723
-0.000104667
0.000298328
-0.000230011
-3.79212e-05
0.00030257
-7.56418e-05
1.1702e-05
0.000277233
4.97123e-05
3.49947e-05
0.000227096
0.000126879
2.59124e-05
0.000162184
0.000150105
-1.97548e-05
9.23968e-05
0.000123414
-9.99436e-05
2.61586e-05
5.27941e-05
-0.000196305
-2.93893e-05
-5.46672e-05
-0.000284208
-6.53084e-05
-0.000187336
-0.000343895
-7.40717e-05
-0.000329154
-0.000371309
-5.52237e-05
-0.000368335
-1.91421e-05
-0.000705477
-0.000239
-0.000101997
-0.000751514
-0.000199793
-2.33985e-05
-0.000730969
-0.000171173
6.04719e-05
-0.00064818
-0.000137394
0.000143273
-0.000512089
-9.75515e-05
0.000216579
-0.000339789
-5.56501e-05
0.000272739
-0.000156123
-1.68493e-05
0.000305542
9.38406e-06
1.35723e-05
0.000310505
0.000128285
2.96359e-05
0.000284572
0.000180685
2.15364e-05
0.000225252
0.000159033
-1.7309e-05
0.000136643
6.93593e-05
-7.88269e-05
3.46376e-05
-7.28537e-05
-0.000140247
-5.7999e-05
-0.000244295
-0.000182977
-0.000121309
-0.000420225
-0.000203932
-0.000146821
-0.000206235
-0.000135127
-0.000790379
-4.57944e-05
-0.000270404
-0.000829802
-6.05717e-05
-0.000191062
-0.000801465
-7.65522e-05
-0.000100068
-0.000712341
-8.41561e-05
-8.21152e-07
-0.000571797
-8.06234e-05
9.75931e-05
-0.000394361
-6.55326e-05
0.000187771
-0.000200357
-3.99086e-05
0.000262512
-1.60715e-05
-5.0276e-06
0.000314448
0.000128354
3.44712e-05
0.000333057
0.000201799
6.75542e-05
0.000303548
0.000185472
7.80102e-05
0.000216293
8.17595e-05
6.2442e-05
8.63996e-05
-8.65749e-05
3.54879e-05
-5.04548e-05
-0.000285358
1.24257e-05
-0.000160695
-0.000482401
-3.6929e-06
-0.000226321
-1.61891e-05
-0.000236284
-0.000803359
0.000151405
-0.000414641
-0.000828666
7.81139e-05
-0.000339968
-0.000788702
1.68375e-05
-0.000250475
-0.000693871
-3.2188e-05
-0.000148588
-0.000553551
-6.40369e-05
-4.2488e-05
-0.000380599
-7.58207e-05
6.08141e-05
-0.000191239
-6.50224e-05
0.000155712
-7.39342e-06
-2.9079e-05
0.000236709
0.000142118
3.09403e-05
0.000293475
0.000222687
0.000104509
0.000304504
0.000207267
0.000168431
0.000243385
9.44098e-05
0.000205746
0.000112527
-8.90288e-05
0.00021899
-4.76502e-05
-0.000301164
0.000217403
-0.000190792
-0.000504439
0.000204601
-0.000288376
0.000178947
-0.000318011
-0.000736052
0.00031847
-0.000502777
-0.000741875
0.000192091
-0.000438354
-0.000689016
8.87233e-05
-0.000357192
-0.000590352
3.20554e-06
-0.000263979
-0.000455985
-5.98283e-05
-0.000167275
-0.00029621
-9.584e-05
-7.21504e-05
-0.000123123
-9.98449e-05
1.91952e-05
4.51683e-05
-6.57404e-05
0.000107612
0.000182852
1.07706e-05
0.000186621
0.000256173
0.000121769
0.000235506
0.000235046
0.000239625
0.000215972
0.000115844
0.000332823
0.000110004
-7.24402e-05
0.000388589
-4.89361e-05
-0.000284074
0.000408215
-0.000206321
-0.000478766
0.000396122
-0.0003232
0.000355272
-0.000369134
-0.000587425
0.000423018
-0.000502968
-0.000571902
0.000258849
-0.00045302
-0.000508674
0.000122677
-0.00038527
-0.000411791
1.02935e-05
-0.000311063
-0.00029115
-7.43355e-05
-0.000239613
-0.000153748
-0.00012823
-0.000172602
-7.77065e-06
-0.000145121
-0.000105416
0.000133255
-0.000114629
-3.14216e-05
0.000247465
-2.71042e-05
5.07953e-05
0.000304737
0.000114498
0.000125056
0.000275415
0.000281836
0.000149016
0.0001543
0.000429389
8.566e-05
-2.89999e-05
0.000526281
-4.89634e-05
-0.000227659
0.000564086
-0.000199817
-0.000400513
0.000547814
-0.000319552
0.000488076
-0.000374862
-0.000369244
0.000444937
-0.000402939
-0.000335625
0.000264667
-0.00036757
-0.000268851
0.000111211
-0.00031734
-0.000182783
-1.1968e-05
-0.000271955
-8.51791e-05
-0.000104236
-0.0002404
2.04249e-05
-0.000166011
-0.000218929
0.000129747
-0.000191388
-0.000193957
0.000233393
-0.000166146
-0.000150213
0.000315071
-7.46931e-05
-8.04839e-05
0.000352439
8.56415e-05
2.58383e-06
0.000319343
0.00028837
6.20365e-05
0.000208027
0.000481014
4.8216e-05
4.35938e-05
0.000614169
-4.28917e-05
-0.000128955
0.000665687
-0.000165875
-0.000268869
0.000639407
-0.000269338
0.000554243
-0.000321768
-0.000111717
0.000386047
-0.000227583
-6.75534e-05
0.000210342
-0.000198496
-6.53936e-06
5.94452e-05
-0.000166449
6.00013e-05
-5.53296e-05
-0.000156007
0.000126948
-0.000138484
-0.000174901
0.000193905
-0.000196123
-0.00021142
0.000259611
-0.000223893
-0.000240629
0.000318179
-0.000204505
-0.000237522
0.000359891
-0.000117682
-0.000190317
0.000372415
4.3708e-05
-0.000109206
0.000340755
0.000258498
-2.95844e-05
0.000255788
0.000474566
2.36438e-06
0.000131334
0.000631334
-3.3346e-05
2.61522e-06
0.000691419
-0.000108202
-9.33183e-05
0.000652207
-0.000175657
0.000537112
-0.0002076
0.000137591
0.000267661
-2.94189e-05
0.000184278
0.000111528
6.94112e-06
0.00023278
-1.74206e-05
2.78203e-05
0.000275719
-0.000105887
5.27633e-06
0.000310219
-0.000164478
-6.55982e-05
0.000337359
-0.00020639
-0.000164162
0.000357246
-0.000229711
-0.000252213
0.000367141
-0.000215833
-0.000293915
0.000364097
-0.000141693
-0.000273742
0.00034696
2.60676e-06
-0.000202598
0.000314214
0.000200661
-0.000113577
0.000262763
0.000407225
-4.76597e-05
0.00019629
0.000562574
-2.84334e-05
0.000131842
0.000620579
-4.29789e-05
9.30014e-05
0.000569482
-5.75028e-05
0.000431535
-4.97602e-05
0.000326413
0.000113721
0.000148378
0.000370477
-1.24504e-05
0.000202508
0.000406285
-0.000102358
0.000219853
0.000429399
-0.000150579
0.000174041
0.000437098
-0.000174112
6.00884e-05
0.000430148
-0.000190783
-9.4532e-05
0.000408604
-0.000203403
-0.000237913
0.000372849
-0.000194214
-0.000323092
0.000326864
-0.000139813
-0.000330743
0.000279473
-2.88565e-05
-0.000272841
0.000240642
0.000126569
-0.000181523
0.000216
0.000290373
-9.2627e-05
0.000206384
0.000412945
-2.83559e-05
0.000212034
0.000451416
1.51743e-05
0.000236398
0.000390056
5.85446e-05
0.000249794
0.000118269
0.000417598
-5.65307e-05
0.000285925
0.000457399
-0.000142528
0.000354516
0.00048466
-0.000182207
0.000374641
0.000497302
-0.000182562
0.000318355
0.000491226
-0.00016543
0.000177696
0.000462434
-0.000152294
-1.70149e-05
0.000411406
-0.000149462
-0.00020428
0.000341385
-0.000144282
-0.000326861
0.000263283
-0.000115257
-0.000360999
0.000193847
-5.00627e-05
-0.000318182
0.000150174
4.44306e-05
-0.000229012
0.000142907
0.000142841
-0.000125386
0.000172389
0.000210093
-2.81007e-05
0.000228902
0.00021528
6.05106e-05
0.000300107
0.000146616
0.000151194
2.51747e-05
0.000257057
0.000402918
-0.000224984
0.000376288
0.000434892
-0.000262988
0.00045034
0.00045713
-0.000249634
0.000473193
0.000470207
-0.000202089
0.000417306
0.000466154
-0.000144832
0.000270437
0.00043471
-0.000100877
5.88516e-05
0.000373231
-8.12905e-05
-0.000153995
0.000288391
-7.97268e-05
-0.000303964
0.000196683
-7.88262e-05
-0.000362012
0.000119909
-6.52222e-05
-0.000336436
7.77232e-05
-3.88691e-05
-0.00025462
8.07784e-05
-1.28397e-05
-0.000145157
0.000127147
-6.66264e-06
-2.815e-05
0.000201802
-3.59501e-05
8.83832e-05
0.000284903
-0.000106139
0.000207208
-0.000195926
0.000338257
0.000297526
-0.000371094
0.000413222
0.000315394
-0.000358876
0.000485121
0.000332523
-0.000299696
0.000509199
0.000353238
-0.000212956
0.000462257
0.000366585
-0.000122723
0.000329721
0.000354251
-5.25274e-05
0.000128299
0.000306936
-1.75167e-05
-8.64545e-05
0.000231475
-1.82255e-05
-0.000250317
0.000146997
-4.27052e-05
-0.000328555
7.71042e-05
-7.69414e-05
-0.000323158
4.07336e-05
-0.000113038
-0.000256304
4.59732e-05
-0.000151274
-0.000153054
8.74558e-05
-0.000196529
-3.28805e-05
0.000149524
-0.000252558
9.28374e-05
0.000212185
-0.000317293
0.000219814
-0.000374406
0.00035115
0.000128176
-0.000475311
0.000396487
0.000127178
-0.000418046
0.000462806
0.000137654
-0.00032752
0.00048875
0.000167683
-0.000216991
0.000457953
0.000207302
-0.000106576
0.000357194
0.000232749
-1.89161e-05
0.000192601
0.000224567
2.86182e-05
2.10706e-06
0.000182561
2.8808e-05
-0.000159121
0.000123059
-1.20715e-05
-0.000252603
6.85115e-05
-8.12082e-05
-0.000271106
3.61559e-05
-0.000163781
-0.000228998
3.23328e-05
-0.000249401
-0.000146458
5.15648e-05
-0.000330596
-4.08664e-05
7.96585e-05
-0.000401602
7.50113e-05
0.000102124
-0.000456787
0.000192467
-0.000487193
0.000305927
-5.81625e-05
0.000336189
-8.0457e-05
0.000395569
-8.07713e-05
0.000425655
-4.82914e-05
0.000416953
1.27496e-05
0.000359879
8.2144e-05
0.0002526
0.000130406
0.000110927
0.00014191
-2.90991e-05
0.000120587
-0.000131263
8.33456e-05
-0.000177675
4.85608e-05
-0.000170354
2.5415e-05
-0.000121842
1.19393e-05
-4.57658e-05
-8.38813e-07
4.58393e-05
-2.09571e-05
0.000141799
0.000229408
-0.000517232
-0.000310699
0.000238436
-0.000537021
-0.00022627
0.000264815
-0.000509595
-0.000161481
0.0002754
-0.000434598
-0.000103916
0.000259242
-0.000322031
-5.72765e-05
0.000215577
-0.000193926
-2.97295e-05
0.000150148
-7.85964e-05
-2.7305e-05
7.4584e-05
-3.14111e-07
-5.12131e-05
3.70517e-06
3.072e-05
-9.76988e-05
-4.97511e-05
1.77887e-05
-0.000160439
-7.89195e-05
-2.79641e-05
-0.000229749
-8.3905e-05
-9.5466e-05
-0.000292262
-6.74998e-05
-0.000177444
-0.000334427
-3.23351e-05
-0.000268182
-0.000349654
1.83026e-05
-0.000360829
-0.000341789
7.81025e-05
-0.000316334
0.000132003
-0.00065555
-0.000178114
3.6314e-05
-0.000690454
-0.000121829
7.43127e-05
-0.000666844
-8.50629e-05
0.000111942
-0.000586445
-5.69231e-05
0.000138727
-0.000457937
-3.74981e-05
0.000150041
-0.000300795
-2.96739e-05
0.000145373
-0.0001432
-3.48823e-05
0.000127216
-1.52849e-05
-5.17727e-05
9.97398e-05
6.00617e-05
-7.80611e-05
6.72001e-05
7.34488e-05
-0.000113946
3.25174e-05
3.03161e-05
-0.000158001
-2.4571e-06
-5.61743e-05
-0.000200785
-3.43754e-05
-0.00017152
-0.000228086
-5.63034e-05
-0.000301297
-0.000231785
-6.21631e-05
-0.000432634
-0.000216575
-4.91006e-05
-0.000190962
-2.01567e-05
-0.000745951
-3.7363e-06
-0.000160738
-0.000784934
9.70498e-06
-0.00011595
-0.00075922
9.33431e-06
-5.96393e-05
-0.000672661
6.45463e-08
-2.73255e-07
-0.000533605
-1.46183e-05
5.46428e-05
-0.000359077
-3.29624e-05
0.000101499
-0.000174349
-5.10009e-05
0.000136933
-1.04282e-05
-6.32597e-05
0.000158071
0.000101902
-6.62838e-05
0.000160464
0.000139444
-6.40517e-05
0.000137815
9.81504e-05
-6.69567e-05
8.68925e-05
-7.60386e-06
-7.58322e-05
1.54391e-05
-0.000155185
-7.89657e-05
-5.95384e-05
-0.00031976
-6.81196e-05
-0.000120399
-0.000481656
-4.72287e-05
-0.000154272
-2.68895e-05
-0.000150541
-0.000775408
0.00018459
-0.000339562
-0.000810086
0.000147975
-0.000294655
-0.000777348
0.000106233
-0.000229704
-0.000683926
5.72931e-05
-0.000151472
-0.000539116
6.37058e-06
-6.82056e-05
-0.000357611
-4.08734e-05
1.41767e-05
-0.000161377
-7.47329e-05
9.00107e-05
2.14519e-05
-8.57621e-05
0.000154121
0.000156902
-6.65953e-05
0.000197918
0.000212147
-2.17227e-05
0.000205974
0.000171897
2.78056e-05
0.000161781
4.91858e-05
6.5016e-05
6.82626e-05
-0.000124696
9.30586e-05
-4.85972e-05
-0.000315521
0.000119927
-0.000157916
-0.000497227
0.000144065
-0.000235909
0.000154682
-0.000258842
-0.00074133
0.000357148
-0.000478014
-0.000764151
0.000270533
-0.000439706
-0.000720262
0.000186919
-0.00037505
-0.000619644
9.85447e-05
-0.000290458
-0.000472389
1.20872e-05
-0.00019546
-0.000292935
-6.23105e-05
-9.72029e-05
-9.92522e-05
-0.00011225
-4.53021e-07
8.49376e-05
-0.000124191
9.09484e-05
0.000227796
-8.61798e-05
0.000170201
0.000291571
6.58418e-07
0.000218347
0.000250513
0.000108988
0.000203261
0.000114423
0.000202036
0.000111597
-7.86344e-05
0.000267433
-2.89665e-05
-0.000285834
0.00031088
-0.000174546
-0.000475845
0.000335174
-0.000289473
0.000332619
-0.000339647
-0.000645237
0.000487443
-0.000546996
-0.000649916
0.000356903
-0.000520046
-0.000592247
0.000233769
-0.00046171
-0.000485289
0.000109511
-0.000381904
-0.000341098
-7.55197e-06
-0.000291827
-0.000172564
-0.000105025
-0.000197969
5.59641e-06
-0.00016871
-0.000102505
0.000175305
-0.000181813
-4.47571e-06
0.000310128
-0.000128744
9.43637e-05
0.00037336
-5.09215e-06
0.000178024
0.000331444
0.00016184
0.000205036
0.000187424
0.000317054
0.000139006
-1.63477e-05
0.000425097
-2.82874e-06
-0.000229774
0.000485334
-0.000167349
-0.000416869
0.000506076
-0.000307005
0.000487191
-0.000381415
-0.000491316
0.000557165
-0.000520948
-0.000474349
0.000394102
-0.000507186
-0.000403882
0.000237853
-0.000459823
-0.00029534
8.55371e-05
-0.000395631
-0.00016209
-5.31635e-05
-0.000327251
-1.49648e-05
-0.000166194
-0.000258559
0.000135261
-0.000238754
-0.000185598
0.000275744
-0.000252768
-0.000100949
0.000387912
-0.000189505
-6.12304e-07
0.000442622
-3.92234e-05
0.000104478
0.000404205
0.000176537
0.000172735
0.000264061
0.000393303
0.000149555
6.15283e-05
0.0005485
3.01661e-05
-0.000147071
0.000626438
-0.000132323
-0.000320813
0.000640116
-0.000279851
0.000600852
-0.000369761
-0.000288671
0.000559241
-0.000392437
-0.000251551
0.000378934
-0.000389522
-0.00017415
0.000201283
-0.00035817
-7.28575e-05
3.4016e-05
-0.000321726
3.94192e-05
-0.000113299
-0.000292541
0.000154375
-0.000231619
-0.00026846
0.00026514
-0.000307301
-0.000236176
0.000363819
-0.000321624
-0.000180036
0.000440189
-0.000254378
-9.19807e-05
0.000476781
-9.25621e-05
1.93303e-05
0.000446825
0.000150933
0.000117596
0.000330242
0.000414705
0.000143397
0.000150376
0.000616856
6.86196e-05
-3.82804e-05
0.000716512
-6.72928e-05
-0.000188213
0.000722624
-0.000201913
0.000658641
-0.000291677
-5.65893e-05
0.000497612
-0.000185743
-6.69162e-06
0.000315947
-0.000185407
6.73382e-05
0.000134211
-0.000173407
0.000150688
-3.00809e-05
-0.00017526
0.000232795
-0.000170536
-0.000199772
0.000307684
-0.00028268
-0.000235248
0.000371153
-0.000355381
-0.000256018
0.000419552
-0.00037
-0.000237546
0.000450178
-0.000305807
-0.000169513
0.000459005
-0.000148819
-6.17758e-05
0.000434063
9.34303e-05
5.28604e-05
0.000357207
0.000372801
0.000121124
0.000229547
0.000606177
0.000104994
8.70808e-05
0.00072945
2.13258e-05
-2.46498e-05
0.000734178
-7.54795e-05
0.000646155
-0.000143386
0.000167954
0.000382335
4.8415e-05
0.000219771
0.000213877
5.71944e-05
0.000280375
4.93349e-05
5.20924e-05
0.000338428
-9.20401e-05
9.18322e-06
0.000386483
-0.000209628
-7.45611e-05
0.000419666
-0.000304642
-0.000175383
0.000434605
-0.000368939
-0.000253594
0.000430986
-0.00038452
-0.000275776
0.000412986
-0.00033086
-0.000230688
0.000387302
-0.000194433
-0.000131301
0.000357514
1.99781e-05
-1.03372e-05
0.000317464
0.000276184
8.90076e-05
0.000258938
0.000505683
0.000130586
0.000191009
0.000638929
0.00011547
0.000140351
0.000647744
7.95894e-05
0.000548828
5.74064e-05
0.00033155
0.000226855
0.000259152
0.000378873
8.6234e-05
0.000282828
0.000421393
-4.04103e-05
0.000267079
0.000454482
-0.000141306
0.000190218
0.000473525
-0.00022294
5.43572e-05
0.000472137
-0.000292093
-0.000105693
0.000445913
-0.000343907
-0.00023672
0.00039719
-0.000361783
-0.000297106
0.000336443
-0.000325842
-0.000275015
0.000278671
-0.000223236
-0.000186266
0.000237589
-5.72863e-05
-6.31773e-05
0.000219123
0.000145082
5.69414e-05
0.000218471
0.000332993
0.000144987
0.000229123
0.000448284
0.000195168
0.000251587
0.000456575
0.00022725
0.000366627
0.000265214
0.00039037
4.70384e-05
0.000416971
0.00043003
-5.07682e-05
0.000451858
0.000457387
-0.000124098
0.000430972
0.00047455
-0.000173549
0.000333435
0.000477969
-0.000211822
0.00016316
0.00045762
-0.000250044
-3.87149e-05
0.000406373
-0.000287187
-0.000209754
0.000328517
-0.000309019
-0.000301769
0.00023989
-0.000296635
-0.000301579
0.000161498
-0.000237279
-0.000225747
0.000112509
-0.000132092
-0.000105218
0.000104471
9.11238e-08
2.76427e-05
0.000136586
0.000124532
0.000148245
0.000197809
0.00020036
0.00024721
0.000272382
0.000200192
0.000333004
0.000132354
0.000422112
0.000334635
-0.000131969
0.000508733
0.000363362
-0.000175682
0.000546527
0.000380983
-0.000191442
0.000522916
0.000394572
-0.000188721
0.000418889
0.000399592
-0.000183871
0.000237465
0.000380914
-0.000191235
1.87203e-05
0.000327182
-0.000213831
-0.00017362
0.000242844
-0.000240786
-0.000287859
0.000146972
-0.000254591
-0.000308184
6.39075e-05
-0.000241762
-0.000248887
1.45977e-05
-0.00019974
-0.000137662
1.11153e-05
-0.000138734
-2.85025e-06
5.24306e-05
-7.95266e-05
0.000134594
0.000126105
-4.65401e-05
0.000261609
0.000211269
-5.56378e-05
0.000377874
-9.78572e-05
0.000491665
0.000187255
-0.000279171
0.000528693
0.000200649
-0.000267021
0.000563066
0.000212459
-0.000233462
0.00053941
0.000232283
-0.000188596
0.000442307
0.000253934
-0.000149147
0.000273348
0.000257324
-0.00013125
6.49242e-05
0.000225247
-0.000141512
-0.000126696
0.000158734
-0.000173026
-0.000251565
7.62033e-05
-0.000210423
-0.000290191
2.24677e-06
-0.00023923
-0.000251734
-4.28668e-05
-0.000252283
-0.000158647
-4.87943e-05
-0.00025129
-3.45702e-05
-1.74952e-05
-0.000244865
0.000101159
3.79363e-05
-0.000244204
0.00023507
9.90492e-05
-0.000256519
0.000359583
-0.000275365
0.000472184
-1.33632e-05
-0.000366727
0.000479808
-1.75727e-05
-0.00030899
0.000508984
-9.37264e-06
-0.0002433
0.000490387
2.14175e-05
-0.000173909
0.000412476
6.80155e-05
-0.000114499
0.000275948
0.000107939
-8.11286e-05
0.000102555
0.00011731
-8.25525e-05
-6.62239e-05
8.90156e-05
-0.000115806
-0.000188046
3.55872e-05
-0.000168751
-0.000240846
-2.13085e-05
-0.000226953
-0.000226487
-6.28032e-05
-0.00027936
-0.000160426
-7.9496e-05
-0.000320061
-6.09936e-05
-7.30669e-05
-0.00034796
5.58e-05
-5.41176e-05
-0.00036507
0.000176928
-3.53237e-05
-0.000374181
0.000291335
-0.00037384
0.000386676
-0.000213942
0.000377878
-0.000238326
0.000402323
-0.000235724
0.000393901
-0.000196744
0.000344242
-0.000126281
0.000253182
-4.58845e-05
0.000132292
1.48968e-05
5.51589e-06
3.71426e-05
-9.83848e-05
2.16506e-05
-0.00015822
-1.55802e-05
-0.000168257
-5.62283e-05
-0.000135047
-8.93631e-05
-7.02938e-05
-0.000113937
1.42034e-05
-0.000135914
0.000107537
-0.000161875
0.000198658
0.000270951
-0.000552906
-9.66644e-05
0.000192864
-0.000562622
-3.3094e-05
0.000189915
-0.000533621
8.49226e-06
0.000173633
-0.000465303
3.21726e-05
0.00013289
-0.000365892
3.57277e-05
7.18379e-05
-0.00025398
1.42837e-05
3.05186e-06
-0.000153648
-3.17944e-05
-5.83049e-05
-8.58713e-05
-9.48572e-05
-0.000100154
-6.20347e-05
-0.000161976
-0.000117509
-8.13646e-05
-0.000220659
-0.000112673
-0.000133547
-0.00026177
-9.21e-05
-0.00020479
-0.0002787
-6.14531e-05
-0.000283124
-0.000269007
-2.31129e-05
-0.000360362
-0.000236439
2.17995e-05
-0.000432032
-0.000191605
7.10234e-05
-0.000146835
0.000116466
-0.000653422
4.6159e-05
-2.54511e-05
-0.000676972
7.97073e-05
-1.49381e-05
-0.000650175
9.47432e-05
-1.1063e-06
-0.000574426
9.11882e-05
3.96234e-06
-0.000456615
6.87711e-05
-8.12874e-07
-0.000313822
2.77644e-05
-1.09005e-05
-0.000171359
-2.70698e-05
-1.99725e-05
-5.65558e-05
-8.58524e-05
-2.40681e-05
7.60014e-06
-0.000135662
-2.32695e-05
1.09124e-05
-0.00016916
-2.22932e-05
-4.15381e-05
-0.000184428
-2.73483e-05
-0.000133036
-0.000180916
-4.06623e-05
-0.000244652
-0.0001564
-5.72936e-05
-0.000360578
-0.000113679
-6.89967e-05
-0.000470592
-6.29977e-05
-6.7694e-05
-1.8626e-05
-4.65947e-05
-0.000697374
0.000213938
-0.000231758
-0.000726204
0.00020796
-0.000215372
-0.000697735
0.000188429
-0.000181794
-0.000614491
0.000149446
-0.000141776
-0.000483616
9.30471e-05
-0.000100509
-0.000320584
2.50345e-05
-5.88023e-05
-0.00014923
-4.44707e-05
-1.70198e-05
7.37879e-07
-0.000100846
2.30962e-05
9.95541e-05
-0.000129902
5.58877e-05
0.000123742
-0.000126516
7.09823e-05
7.0398e-05
-0.000100196
5.60043e-05
-4.20723e-05
-6.18776e-05
8.87149e-06
-0.000186131
-1.36018e-05
-5.82785e-05
-0.000336824
4.27894e-05
-0.000126174
-0.000477376
9.86797e-05
-0.000175398
0.000138321
-0.000184249
-0.000686908
0.000381005
-0.00040566
-0.000713614
0.000332137
-0.000392125
-0.000678493
0.000273775
-0.000350171
-0.000586584
0.000195268
-0.000289202
-0.000446091
0.000101412
-0.000217064
-0.000271825
3.2513e-06
-0.000138307
-8.53925e-05
-8.4032e-05
-5.68602e-05
8.53113e-05
-0.000140831
2.34023e-05
0.000207445
-0.000148905
9.47872e-05
0.000248733
-0.000102831
0.000141002
0.000194621
-2.19679e-05
0.000137665
6.27301e-05
6.42937e-05
7.3982e-05
-0.000110327
0.000143776
-3.29177e-05
-0.00028978
0.000215474
-0.000151148
-0.000452341
0.000274391
-0.000249059
0.000305554
-0.000292476
-0.000627042
0.000522967
-0.000525847
-0.000644605
0.00043196
-0.000521965
-0.000598413
0.000332702
-0.00048017
-0.000496671
0.000213653
-0.000410584
-0.000349863
8.27028e-05
-0.000323559
-0.000172983
-4.47509e-05
-0.000226081
1.45453e-05
-0.000148975
-0.000123038
0.000189112
-0.000206974
-1.74753e-05
0.000321024
-0.000196447
8.58313e-05
0.00037415
-0.000107793
0.000170183
0.000321573
3.52275e-05
0.000198643
0.000174797
0.00018165
0.000141016
-2.16206e-05
0.000299809
1.14181e-05
-0.000222515
0.000387554
-0.000145732
-0.000398291
0.000446147
-0.000285453
0.000465136
-0.000364609
-0.000521824
0.000621229
-0.000569168
-0.000524019
0.000492195
-0.000578085
-0.000464087
0.000352596
-0.000541537
-0.000353804
0.000195193
-0.000473727
-0.000206442
3.1319e-05
-0.000387805
-3.73456e-05
-0.000120082
-0.000291735
0.000136854
-0.000237178
-0.000188502
0.000297796
-0.000295072
-7.73187e-05
0.000423179
-0.000269377
4.19105e-05
0.000481151
-0.000145152
0.000157412
0.000435948
5.78777e-05
0.000227588
0.000284961
0.000272711
0.000198931
7.47038e-05
0.000438279
6.89593e-05
-0.000138582
0.000543631
-0.000110141
-0.000318349
0.000598228
-0.00027932
0.000601203
-0.000390097
-0.000375142
0.000665157
-0.000517144
-0.000357828
0.00050589
-0.000538195
-0.000284898
0.000330913
-0.000511069
-0.000171359
0.000142225
-0.000456201
-3.29214e-05
-4.53211e-05
-0.000389048
0.000116017
-0.000211966
-0.000315613
0.000261961
-0.000335418
-0.000233302
0.000392154
-0.000391082
-0.000135133
0.0004934
-0.000354573
-1.66623e-05
0.000545372
-0.000207724
0.000115078
0.000514132
3.92635e-05
0.000222589
0.000378391
0.000319017
0.00023899
0.00017195
0.000540469
0.000134417
-4.15051e-05
0.000668723
-4.39585e-05
-0.000215116
0.000717357
-0.000225369
0.00070022
-0.000356484
-0.000194021
0.000652599
-0.000365745
-0.000157459
0.000474455
-0.000394649
-7.69478e-05
0.00027489
-0.000382658
3.04228e-05
6.8009e-05
-0.000354881
0.000148398
-0.000129525
-0.000326312
0.000264512
-0.000299936
-0.000296602
0.000368854
-0.000422572
-0.000253363
0.000454175
-0.00047441
-0.000182029
0.000515827
-0.000432572
-7.56339e-05
0.000547302
-0.000278795
5.89266e-05
0.000529245
-1.5332e-05
0.000190249
0.000431045
0.000306193
0.000254421
0.000258513
0.000581816
0.000199805
6.63023e-05
0.000742722
5.09188e-05
-8.95708e-05
0.000790408
-0.000119091
0.000750819
-0.000251959
6.6647e-06
0.000588482
-0.000135179
5.61799e-05
0.000404051
-0.000164518
0.000134255
0.000197035
-0.000173627
0.000223936
-9.37647e-06
-0.000187556
0.000310839
-0.000200285
-0.000215916
0.000384693
-0.000362227
-0.000246812
0.000438817
-0.000477725
-0.000254989
0.000470994
-0.00052579
-0.000218342
0.000483993
-0.000485376
-0.000129709
0.000483444
-0.000339809
-2.12786e-07
0.000466079
-8.77603e-05
0.000142654
0.000413424
0.000234708
0.000245264
0.000307153
0.000539286
0.000253794
0.000170236
0.000735291
0.000165673
5.29911e-05
0.000794375
3.77982e-05
0.000738314
-7.10032e-05
0.000195888
0.000476909
0.000128206
0.000248182
0.00030202
0.000106931
0.000312679
0.00011
7.46305e-05
0.000375885
-7.42061e-05
1.08069e-05
0.000426546
-0.000241375
-8.41332e-05
0.000455865
-0.000383899
-0.00018303
0.000458991
-0.000487855
-0.00024659
0.000438004
-0.000534092
-0.000246487
0.000402239
-0.000503025
-0.000177274
0.00036506
-0.000379863
-5.40685e-05
0.000336751
-0.000162725
9.29366e-05
0.000315125
0.000123267
0.000222075
0.000282339
0.000412971
0.000289687
0.000231023
0.000621663
0.000280413
0.000182307
0.000697487
0.000225194
0.000643517
0.000170406
0.000322491
0.000324448
0.000369155
0.000370962
0.000177206
0.000359171
0.000416561
2.4164e-05
0.000307315
0.000452716
-0.000117601
0.000197459
0.000471682
-0.000246706
4.07232e-05
0.000464124
-0.000361634
-0.000120401
0.000425351
-0.000451803
-0.000234
0.000360805
-0.00049939
-0.000267262
0.00028524
-0.000485474
-0.000217001
0.000217543
-0.000396283
-0.00010215
0.000174991
-0.000230047
4.66978e-05
0.000165958
-5.2421e-06
0.000194484
0.000183874
0.000231663
0.000308378
0.000212768
0.000416205
0.000371734
0.000244914
0.000495286
0.000397305
0.000460218
0.000413393
0.000342302
0.000146058
0.000543916
0.000384387
4.54292e-05
0.00054155
0.000414094
-5.10174e-05
0.000476447
0.000432477
-0.000137786
0.000335238
0.000433851
-0.000220806
0.000135885
0.000406519
-0.000303923
-6.90929e-05
0.000344316
-0.000379917
-0.000219437
0.000254722
-0.000432012
-0.000279552
0.000156356
-0.000441164
-0.000247523
7.15448e-05
-0.000393475
-0.000143744
2.03976e-05
-0.000286265
2.1475e-06
1.52023e-05
-0.00013297
0.000160566
5.55915e-05
3.45519e-05
0.000304967
0.000128052
0.000171339
0.000419616
0.00021281
0.000237319
0.000506213
0.000224702
0.000579581
0.000249114
-2.74427e-05
0.000630023
0.00028202
-6.94743e-05
0.000628524
0.00030244
-0.000105167
0.000556645
0.00031655
-0.000136733
0.000403726
0.000318589
-0.000174544
0.000189165
0.000293429
-0.000226771
-3.32723e-05
0.000231791
-0.000289799
-0.0002021
0.000140803
-0.00034814
-0.000280742
4.032e-05
-0.000382333
-0.000266533
-4.59483e-05
-0.000377459
-0.000178635
-9.79414e-05
-0.000328484
-4.34506e-05
-0.000103621
-0.000243354
0.000113213
-6.1786e-05
-0.000142423
0.000269733
1.52661e-05
-5.4543e-05
0.000410438
0.000107236
-5.76475e-06
0.000528988
-5.05722e-07
0.000627205
7.41537e-05
-0.000159132
0.000622509
9.40435e-05
-0.000144197
0.000617899
0.000110361
-0.000129386
0.000547311
0.000131061
-0.000117427
0.000402301
0.000149247
-0.000119844
0.000200463
0.000146516
-0.000147471
-1.16449e-05
0.00010896
-0.000199951
-0.000178988
3.95994e-05
-0.000263843
-0.000266501
-4.39344e-05
-0.000319898
-0.000269092
-0.000119539
-0.000351661
-0.000201928
-0.000168297
-0.000351195
-8.71781e-05
-0.000179377
-0.000320677
5.38322e-05
-0.000152264
-0.000271385
0.000203008
-9.72929e-05
-0.000220069
0.000345624
-3.15222e-05
-0.000182327
0.000470374
-0.000163132
0.000567009
-0.000135346
-0.000219764
0.00053142
-0.000131184
-0.000163654
0.000524278
-0.000116385
-0.000117904
0.000464107
-8.37051e-05
-8.15683e-05
0.000343937
-4.06475e-05
-6.44809e-05
0.000177527
-7.51958e-06
-7.77702e-05
-2.73469e-07
-3.75259e-06
-0.000123205
-0.000146736
-3.40764e-05
-0.000189946
-0.000231619
-8.75768e-05
-0.000259996
-0.000247248
-0.000145737
-0.000316499
-0.000203489
-0.000191418
-0.000348848
-0.000117092
-0.000214383
-0.00035418
-4.52586e-06
-0.000213342
-0.000336701
0.000120075
-0.00019537
-0.000305451
0.000244338
-0.000171402
-0.000271127
0.000356168
-0.000241202
0.00043771
-0.000331494
0.000378493
-0.000345193
0.000370078
-0.000332731
0.000327808
-0.000288034
0.000243839
-0.000218213
0.00012748
-0.000144284
1.4939e-06
-9.13798e-05
-0.000106242
-7.43983e-05
-0.000174374
-9.16072e-05
-0.00019511
-0.000129687
-0.000172935
-0.000173083
-0.000118352
-0.000211156
-4.25033e-05
-0.000240532
4.49966e-05
-0.000263652
0.000135386
-0.00028539
0.000219622
0.000280957
-0.00049741
9.82445e-05
0.000118078
-0.000497015
0.000146264
0.00010223
-0.000471456
0.000174594
7.09112e-05
-0.00041926
0.000179518
1.47123e-05
-0.00034565
0.000155953
-5.71175e-05
-0.000264386
0.000100376
-0.000126076
-0.000192937
1.69656e-05
-0.000174149
-0.000146464
-7.98089e-05
-0.000191369
-0.000134118
-0.000168753
-0.000178683
-0.000157028
-0.000230409
-0.000146065
-0.000207494
-0.000254228
-0.000106609
-0.000271797
-0.000239572
-6.94276e-05
-0.000336102
-0.000193147
-3.61119e-05
-0.000391161
-0.0001267
-3.57602e-06
-0.000434164
-5.47976e-05
3.16982e-05
6.56837e-06
6.94783e-05
-0.000557946
0.000231418
-0.000103745
-0.000572389
0.000253909
-0.00010814
-0.000549889
0.000259392
-0.000108405
-0.000489272
0.000239284
-0.00011642
-0.00039445
0.000190945
-0.000130628
-0.00027852
0.000115529
-0.000141983
-0.000161966
2.16234e-05
-0.000141185
-6.79345e-05
-7.40813e-05
-0.000123827
-1.6752e-05
-0.000149411
-9.37936e-05
-1.93733e-05
-0.000187923
-6.21573e-05
-7.19643e-05
-0.000185714
-4.32708e-05
-0.000157852
-0.000148983
-4.53639e-05
-0.000256447
-8.68988e-05
-6.49468e-05
-0.000351366
-1.06815e-05
-9.00962e-05
-0.000433794
6.60296e-05
-0.000106094
0.000126441
-9.71954e-05
-0.000566243
0.000374576
-0.000301788
-0.000588372
0.000365679
-0.000305013
-0.000564327
0.000340415
-0.000286862
-0.000494139
0.000286674
-0.000259355
-0.000382035
0.000204656
-0.000226323
-0.000240582
0.000101142
-0.000185868
-9.12564e-05
-8.83232e-06
-0.000135889
4.00693e-05
-0.000105385
-7.69254e-05
0.000124997
-0.000162519
-1.59326e-05
0.000141948
-0.000166245
3.23533e-05
8.6967e-05
-0.000122011
4.72819e-05
-2.14629e-05
-4.86902e-05
1.70088e-05
-0.000154235
3.82438e-05
-5.06492e-05
-0.000286045
0.000128218
-0.000133264