/*--------------------------------*- C++ -*----------------------------------*\
| =========                 |                                                 |
| \\      /  F ield         | OpenFOAM: The Open Source CFD Toolbox           |
|  \\    /   O peration     | Version:  3.0.0                                 |
|   \\  /    A nd           | Web:      www.OpenFOAM.org                      |
|    \\/     M anipulation  |                                                 |
\*---------------------------------------------------------------------------*/
FoamFile
{
    version     2.0;
    format      ascii;
    class       volVectorField;
    location    "8.5";
    object      U;
}
// * * * * * * * * * * * * * * * * * * * * * * * * * * * * * * * * * * * * * //

dimensions      [0 1 -1 0 0 0 0];

internalField   nonuniform List<vector> 
4096
(
(-0.0994898 -0.144597 0.0588393)
(-0.103729 -0.114906 0.0799743)
(-0.105625 -0.0853952 0.0952747)
(-0.0927476 -0.0540702 0.102632)
(-0.0680342 -0.0238764 0.100304)
(-0.0367975 0.000668014 0.0870213)
(-0.00609428 0.0153078 0.0638156)
(0.0172841 0.0175242 0.0354919)
(0.0297952 0.00684257 0.00891201)
(0.0320974 -0.0151854 -0.0109349)
(0.0268807 -0.0450949 -0.0225183)
(0.0161749 -0.0778226 -0.0262781)
(0.00045185 -0.107521 -0.0225386)
(-0.0208525 -0.129267 -0.0112825)
(-0.0477362 -0.140781 0.00598773)
(-0.0677748 -0.141135 0.0248945)
(-0.143302 -0.116016 0.0202489)
(-0.150359 -0.0922593 0.043177)
(-0.156233 -0.0712218 0.063887)
(-0.143913 -0.0488129 0.0804669)
(-0.116876 -0.0261372 0.0907995)
(-0.0795812 -0.00617235 0.0929023)
(-0.0384214 0.00782227 0.0859695)
(-0.00112661 0.0129004 0.0712268)
(0.0257606 0.00732224 0.0517663)
(0.0389593 -0.00906798 0.0307204)
(0.0384579 -0.0338206 0.0104647)
(0.0256631 -0.0617634 -0.00689725)
(0.00224987 -0.0864548 -0.0186209)
(-0.0300812 -0.103085 -0.0220115)
(-0.068953 -0.110611 -0.0168028)
(-0.0949059 -0.109254 -0.00613302)
(-0.181803 -0.0839245 -0.0194606)
(-0.186781 -0.0677341 0.00536648)
(-0.193567 -0.0549558 0.0301342)
(-0.180172 -0.0411096 0.0536326)
(-0.151147 -0.0263501 0.0738075)
(-0.110508 -0.0122811 0.088554)
(-0.0634987 -0.000793784 0.0961635)
(-0.0171052 0.00631871 0.0955719)
(0.0209798 0.00724231 0.0862222)
(0.044167 -0.000110732 0.067823)
(0.0485841 -0.0160541 0.0416674)
(0.0338198 -0.037035 0.0119064)
(0.00282151 -0.05669 -0.0148024)
(-0.0398969 -0.0699608 -0.032315)
(-0.0893254 -0.0759961 -0.0382222)
(-0.118904 -0.0753215 -0.0338976)
(-0.206037 -0.0376135 -0.0609869)
(-0.207119 -0.0338854 -0.0350019)
(-0.212568 -0.0319835 -0.00807795)
(-0.197337 -0.0284992 0.0195859)
(-0.166974 -0.0228861 0.0460192)
(-0.125283 -0.0155435 0.0691912)
(-0.0765288 -0.00721105 0.087299)
(-0.0264815 0.00130261 0.0985145)
(0.0175311 0.00859547 0.100258)
(0.0473698 0.0117057 0.0890033)
(0.055853 0.00757911 0.0626977)
(0.0399596 -0.0029036 0.0255035)
(0.00319405 -0.0146975 -0.0127632)
(-0.04721 -0.0232774 -0.0423276)
(-0.103713 -0.0279129 -0.0582601)
(-0.134787 -0.0294079 -0.0594292)
(-0.211503 0.0143376 -0.0994738)
(-0.208441 0.00313811 -0.0738166)
(-0.210503 -0.00676633 -0.047019)
(-0.192988 -0.0140903 -0.0184739)
(-0.161948 -0.0178451 0.00987738)
(-0.121013 -0.0174999 0.0363997)
(-0.0736455 -0.0128065 0.0597312)
(-0.0245038 -0.00362516 0.0784429)
(0.020025 0.00930119 0.0898134)
(0.0517501 0.0229865 0.0883853)
(0.0617804 0.0322671 0.068161)
(0.0449715 0.034663 0.0305277)
(0.00470027 0.0326244 -0.0136256)
(-0.0498736 0.0294265 -0.0514683)
(-0.109209 0.025875 -0.0753589)
(-0.140362 0.0211768 -0.0813395)
(-0.195563 0.0629655 -0.125865)
(-0.189002 0.0369115 -0.10248)
(-0.186135 0.0154782 -0.0778649)
(-0.166362 -0.00211192 -0.0516624)
(-0.135679 -0.0146478 -0.0257983)
(-0.0973528 -0.0210251 -0.00133601)
(-0.0539641 -0.0202075 0.0214437)
(-0.00916647 -0.0110967 0.0423682)
(0.0316478 0.00663837 0.0598028)
(0.0609209 0.0304729 0.0680638)
(0.0694572 0.0537206 0.0580484)
(0.0512063 0.0702518 0.0266236)
(0.00933614 0.0789954 -0.0169182)
(-0.0459221 0.0814009 -0.0580676)
(-0.103773 0.078455 -0.086647)
(-0.134018 0.0699759 -0.0963686)
(-0.157809 0.0993567 -0.130225)
(-0.148836 0.0611283 -0.110993)
(-0.140583 0.0296538 -0.0901008)
(-0.119607 0.00354259 -0.0691195)
(-0.0910743 -0.0161234 -0.0499879)
(-0.0575695 -0.0281171 -0.0328493)
(-0.0207213 -0.0309477 -0.0163274)
(0.0168668 -0.0225058 0.00133746)
(0.0508772 -0.00105517 0.0202042)
(0.0748488 0.0319106 0.0355568)
(0.0802567 0.0688904 0.0368273)
(0.0607525 0.0998448 0.0162247)
(0.0192209 0.119444 -0.0207702)
(-0.0335603 0.127002 -0.0597754)
(-0.0860334 0.123728 -0.0887302)
(-0.114274 0.110894 -0.100248)
(-0.101554 0.116121 -0.108112)
(-0.0911772 0.0707665 -0.0936901)
(-0.0787779 0.0324458 -0.0775918)
(-0.0587085 0.00113101 -0.0641989)
(-0.0347431 -0.0225791 -0.0554801)
(-0.00845702 -0.0380707 -0.0502311)
(0.0194435 -0.0437545 -0.0448275)
(0.0472864 -0.0364726 -0.0351688)
(0.0718917 -0.0129614 -0.0193485)
(0.0886319 0.0267547 -0.000793175)
(0.090882 0.0754257 0.0100514)
(0.0724249 0.119864 0.00233764)
(0.0347385 0.149638 -0.0233599)
(-0.011966 0.16124 -0.0547884)
(-0.055703 0.156087 -0.0791781)
(-0.0799926 0.137705 -0.0893685)
(-0.0353215 0.110751 -0.0663733)
(-0.0237839 0.0640483 -0.0545703)
(-0.0100118 0.0237019 -0.0431124)
(0.00672522 -0.00809962 -0.0383252)
(0.0240507 -0.0316739 -0.0421792)
(0.0413508 -0.047737 -0.051827)
(0.0585976 -0.0549165 -0.0608715)
(0.0747984 -0.0491322 -0.0624484)
(0.0879454 -0.0257103 -0.0529321)
(0.0955779 0.0167207 -0.0349023)
(0.0943529 0.0720489 -0.0178655)
(0.079899 0.126322 -0.0134058)
(0.0514628 0.164614 -0.0248629)
(0.016079 0.17924 -0.0439102)
(-0.0154209 0.17086 -0.0589203)
(-0.0320539 0.145222 -0.0636699)
(0.0278356 0.086939 -0.0193604)
(0.0412977 0.0433986 -0.00600503)
(0.0536083 0.00631571 0.00286514)
(0.0655332 -0.0208767 0.000299793)
(0.0755804 -0.0399734 -0.0157471)
(0.0836184 -0.0534301 -0.0409085)
(0.0898494 -0.0603888 -0.065651)
(0.0936707 -0.0561302 -0.079909)
(0.0942746 -0.0349829 -0.0783806)
(0.0915139 0.00534274 -0.063311)
(0.0855065 0.0601044 -0.0435613)
(0.0752521 0.116663 -0.0298072)
(0.0596418 0.158811 -0.0270937)
(0.0410436 0.174998 -0.0310813)
(0.0257705 0.163307 -0.0330083)
(0.0223127 0.130181 -0.028021)
(0.0746251 0.0508702 0.0219843)
(0.0906238 0.0136997 0.039472)
(0.100184 -0.0152759 0.04839)
(0.107747 -0.0335491 0.0414882)
(0.111889 -0.0446784 0.016127)
(0.112204 -0.0527056 -0.0225429)
(0.108741 -0.0576706 -0.0619408)
(0.101133 -0.054737 -0.08861)
(0.089858 -0.0378014 -0.0954633)
(0.077026 -0.00409216 -0.0845179)
(0.0655836 0.0427277 -0.0642833)
(0.0576017 0.0921662 -0.0443649)
(0.0534292 0.129836 -0.0299942)
(0.0524377 0.143515 -0.0196101)
(0.0548081 0.128999 -0.00749573)
(0.0679975 0.092018 0.00987988)
(0.0969286 0.00788392 0.0541534)
(0.114299 -0.0199758 0.0750054)
(0.121528 -0.0370334 0.0851945)
(0.126625 -0.0435074 0.0770236)
(0.127829 -0.04452 0.0465495)
(0.123719 -0.045235 -0.0013102)
(0.113653 -0.0467192 -0.0521294)
(0.0976002 -0.0448928 -0.0893869)
(0.0773864 -0.0338644 -0.104105)
(0.0571493 -0.0106209 -0.0977094)
(0.0418095 0.0222813 -0.0781979)
(0.0351403 0.0568338 -0.0543139)
(0.0385084 0.0820419 -0.031297)
(0.0499924 0.0881497 -0.00959563)
(0.0653674 0.0711925 0.0140256)
(0.0909313 0.0365367 0.0426217)
(0.0941277 -0.0370676 0.0760853)
(0.109444 -0.0531559 0.0980219)
(0.11484 -0.0563733 0.109147)
(0.119471 -0.0499918 0.101918)
(0.121294 -0.0401954 0.0709994)
(0.1173 -0.0327942 0.0196986)
(0.105527 -0.0299883 -0.0374456)
(0.0860244 -0.0291881 -0.0821402)
(0.061895 -0.025323 -0.103576)
(0.0387622 -0.0151437 -0.101966)
(0.0225552 0.000354821 -0.0843134)
(0.0173898 0.0161778 -0.0585928)
(0.0244247 0.0253756 -0.0302291)
(0.0408594 0.0218303 -0.00130488)
(0.0605833 0.00357051 0.0292299)
(0.0878414 -0.0239563 0.063965)
(0.0702167 -0.0791363 0.0866502)
(0.0797709 -0.0820886 0.107891)
(0.0828698 -0.0719973 0.119192)
(0.0879272 -0.0538757 0.114295)
(0.0932907 -0.0342182 0.0873448)
(0.0943127 -0.0191501 0.0391711)
(0.0869111 -0.0120718 -0.0179168)
(0.0703955 -0.0121763 -0.0658695)
(0.0483603 -0.0156232 -0.0924361)
(0.0270614 -0.0188582 -0.0959897)
(0.0125695 -0.0208902 -0.0819653)
(0.00854098 -0.0233852 -0.0574098)
(0.0153041 -0.0293117 -0.0278717)
(0.0296114 -0.0411369 0.00351212)
(0.0455186 -0.0588253 0.0359477)
(0.0646504 -0.0775837 0.0707686)
(0.030669 -0.114223 0.0858607)
(0.032946 -0.104031 0.10569)
(0.0329283 -0.08319 0.116985)
(0.0382629 -0.0563008 0.115479)
(0.0482943 -0.0293141 0.0961574)
(0.0579129 -0.0083783 0.0576272)
(0.0607893 0.00230682 0.00766483)
(0.0539209 0.00185694 -0.0386399)
(0.0396373 -0.00730375 -0.0685681)
(0.0236727 -0.0215413 -0.0780911)
(0.0117561 -0.038102 -0.0703381)
(0.00710609 -0.0555577 -0.0509829)
(0.00975358 -0.0733285 -0.0250042)
(0.0166847 -0.0907961 0.0040115)
(0.0231346 -0.106611 0.0339893)
(0.0296208 -0.117618 0.064349)
(-0.0145151 -0.124995 0.0755827)
(-0.0180969 -0.106432 0.0937079)
(-0.0223392 -0.0819579 0.105363)
(-0.0183702 -0.0530032 0.108359)
(-0.00555185 -0.0237198 0.0993641)
(0.0125845 0.000388666 0.0757312)
(0.0290228 0.0140813 0.0396933)
(0.0371527 0.0145217 0.000289899)
(0.0352405 0.00226044 -0.0312167)
(0.026585 -0.0191474 -0.0480166)
(0.0165235 -0.044999 -0.049663)
(0.00890956 -0.0710277 -0.0394683)
(0.00460214 -0.094045 -0.0213012)
(0.00169628 -0.111973 0.00155789)
(-0.00299366 -0.123644 0.0262297)
(-0.00752277 -0.128255 0.0500993)
(-0.134461 -0.0966942 0.0653461)
(-0.135396 -0.0710343 0.0770834)
(-0.136914 -0.050499 0.0842241)
(-0.123532 -0.0318842 0.0839263)
(-0.0983297 -0.0166828 0.0752883)
(-0.0660616 -0.00755898 0.0589117)
(-0.0334034 -0.0064607 0.0374488)
(-0.00749137 -0.0137337 0.0151231)
(0.00686891 -0.0281003 -0.00353899)
(0.0088544 -0.0472483 -0.0157089)
(0.000746939 -0.0679574 -0.0206944)
(-0.0143234 -0.0864867 -0.0189263)
(-0.033892 -0.0994646 -0.0110147)
(-0.0568756 -0.105162 0.00214377)
(-0.0830391 -0.104241 0.018635)
(-0.0977762 -0.0978168 0.0340851)
(-0.16942 -0.0639846 0.0163014)
(-0.172444 -0.0453107 0.0303739)
(-0.17722 -0.0319006 0.0438633)
(-0.163792 -0.0205509 0.0541584)
(-0.135992 -0.011691 0.0596005)
(-0.0980746 -0.00675374 0.0593353)
(-0.0561316 -0.00677165 0.0535019)
(-0.0178478 -0.0119072 0.043234)
(0.00944168 -0.021587 0.0303251)
(0.0211816 -0.0350012 0.0164804)
(0.0169153 -0.0503964 0.00321805)
(-0.000607365 -0.0645218 -0.0077876)
(-0.027418 -0.0737205 -0.0146678)
(-0.0604001 -0.0761601 -0.0159404)
(-0.0975287 -0.0730124 -0.0114508)
(-0.117679 -0.0660153 -0.00307061)
(-0.193538 -0.0245719 -0.0319509)
(-0.195783 -0.0150479 -0.0163911)
(-0.201392 -0.0100249 0.00140246)
(-0.186956 -0.00726211 0.0194742)
(-0.157092 -0.00637929 0.0358523)
(-0.115761 -0.00747389 0.0489561)
(-0.0682303 -0.0102165 0.0575579)
(-0.0216506 -0.0137881 0.0606768)
(0.0156787 -0.0176333 0.057298)
(0.0361489 -0.0224829 0.0463194)
(0.035633 -0.0293589 0.0281119)
(0.0154997 -0.0367593 0.00602323)
(-0.0185958 -0.0411018 -0.0148394)
(-0.0608967 -0.0402699 -0.0300125)
(-0.107269 -0.0354726 -0.0370854)
(-0.131354 -0.0291377 -0.0349341)
(-0.20199 0.0232496 -0.0771575)
(-0.202709 0.0205594 -0.0614577)
(-0.206958 0.0153619 -0.0418076)
(-0.190697 0.00809178 -0.0193519)
(-0.159242 -0.000272955 0.00376659)
(-0.116414 -0.00851376 0.0257252)
(-0.0667248 -0.0150371 0.0449076)
(-0.0164353 -0.0178654 0.059676)
(0.0265493 -0.0157178 0.0675182)
(0.0531242 -0.00994991 0.0644736)
(0.0556446 -0.00467456 0.0473107)
(0.0332685 -0.00181537 0.018755)
(-0.00706231 0.000932668 -0.0131389)
(-0.0567883 0.00570797 -0.0404157)
(-0.109527 0.0116756 -0.0581121)
(-0.136329 0.0159492 -0.0619931)
(-0.193811 0.0710472 -0.113748)
(-0.192789 0.0552116 -0.0994828)
(-0.193617 0.0392039 -0.0801904)
(-0.174853 0.021586 -0.0567091)
(-0.142153 0.00382703 -0.0313102)
(-0.0993831 -0.0117775 -0.00578366)
(-0.0505034 -0.0225229 0.0185607)
(-0.000670725 -0.0253502 0.0405717)
(0.0433174 -0.017825 0.0580491)
(0.0724287 -0.000901436 0.0656391)
(0.0766401 0.018911 0.0556888)
(0.0523949 0.0349075 0.0271562)
(0.00728279 0.046443 -0.0108469)
(-0.0474795 0.0554041 -0.0469252)
(-0.103383 0.0618165 -0.0732864)
(-0.132021 0.0630021 -0.0830097)
(-0.169536 0.111059 -0.13392)
(-0.166501 0.0828531 -0.122427)
(-0.162254 0.0561675 -0.105047)
(-0.140693 0.0286535 -0.0833706)
(-0.107568 0.00224116 -0.0599222)
(-0.0667034 -0.0200884 -0.0361551)
(-0.0214437 -0.0347956 -0.0125064)
(0.0241769 -0.0379308 0.011129)
(0.0648702 -0.0259296 0.0339846)
(0.092954 0.00152092 0.0512083)
(0.0976877 0.036913 0.052181)
(0.0725012 0.0682478 0.0300399)
(0.0244856 0.0900032 -0.00811655)
(-0.0327405 0.103205 -0.0484671)
(-0.0886319 0.109182 -0.0803496)
(-0.118299 0.106491 -0.0951139)
(-0.130553 0.13743 -0.130601)
(-0.125025 0.0990995 -0.12261)
(-0.115071 0.062721 -0.108267)
(-0.09145 0.026657 -0.0909735)
(-0.0595817 -0.00677577 -0.073517)
(-0.0230109 -0.0342844 -0.0565918)
(0.0156805 -0.0520139 -0.03907)
(0.0535887 -0.0554503 -0.0190581)
(0.0870302 -0.040117 0.00425964)
(0.110668 -0.00410249 0.027456)
(0.115337 0.045931 0.0394399)
(0.0918234 0.0938206 0.0281931)
(0.0441996 0.127116 -0.00419052)
(-0.0124898 0.144575 -0.0435568)
(-0.0653866 0.149116 -0.0767903)
(-0.0949446 0.141721 -0.0946364)
(-0.0793861 0.146804 -0.101526)
(-0.0709622 0.101914 -0.0966912)
(-0.0563179 0.0581421 -0.0864685)
(-0.0326183 0.0162061 -0.0762554)
(-0.0045005 -0.0214229 -0.0687757)
(0.0251094 -0.0517621 -0.0632765)
(0.0543987 -0.0711136 -0.0563146)
(0.0815104 -0.0747303 -0.0438874)
(0.104327 -0.057559 -0.0239075)
(0.120118 -0.0164796 0.0011807)
(0.123484 0.0441059 0.0214047)
(0.105398 0.107223 0.0227822)
(0.064282 0.153223 0.00143493)
(0.0129055 0.175503 -0.0312047)
(-0.0338177 0.177825 -0.0607971)
(-0.0612299 0.164622 -0.0782496)
(-0.020971 0.138957 -0.0529127)
(-0.00962959 0.0916262 -0.0490984)
(0.00683914 0.0442931 -0.043489)
(0.0277805 0.000546554 -0.0424626)
(0.0495822 -0.0374424 -0.048138)
(0.070076 -0.0677255 -0.0575268)
(0.0879958 -0.0871147 -0.0641529)
(0.102264 -0.090808 -0.0616684)
(0.112178 -0.0735141 -0.0471909)
(0.117491 -0.0316427 -0.0231454)
(0.116963 0.0324444 0.0017514)
(0.105482 0.10458 0.0144118)
(0.0779411 0.162187 0.0075055)
(0.0397364 0.190917 -0.0126163)
(0.00407799 0.19175 -0.033004)
(-0.0169204 0.171905 -0.0451425)
(0.0351112 0.116019 0.00229192)
(0.0492414 0.0700097 0.00839324)
(0.0639722 0.0242292 0.0104298)
(0.0796884 -0.0162448 0.00209505)
(0.0937995 -0.0503225 -0.0177299)
(0.104576 -0.0775493 -0.0433529)
(0.11083 -0.0954321 -0.0647437)
(0.111915 -0.0992473 -0.0730443)
(0.108439 -0.0836765 -0.0648814)
(0.102292 -0.0451521 -0.0432745)
(0.0955145 0.0148944 -0.0165209)
(0.0877425 0.0859242 0.00437084)
(0.0754123 0.148064 0.0118503)
(0.057397 0.182668 0.00792873)
(0.0396017 0.184386 0.00177781)
(0.0323125 0.159471 0.000425236)
(0.0755209 0.0805883 0.0519952)
(0.0920467 0.0397059 0.0624305)
(0.102991 0.00114752 0.0629972)
(0.112881 -0.0308806 0.0474451)
(0.12011 -0.0571049 0.015356)
(0.122839 -0.0786092 -0.0250847)
(0.119345 -0.0937008 -0.0602882)
(0.10911 -0.0978789 -0.0788888)
(0.0939844 -0.0859367 -0.0770754)
(0.0777298 -0.0545137 -0.0584944)
(0.064574 -0.00466346 -0.0313265)
(0.0572929 0.0556594 -0.00489912)
(0.0555652 0.11127 0.0142569)
(0.0566922 0.145131 0.0259135)
(0.0593085 0.147979 0.0356173)
(0.0708489 0.122815 0.0485145)
(0.0902376 0.0358408 0.0902386)
(0.107077 0.00436563 0.104242)
(0.114356 -0.0219223 0.104664)
(0.120049 -0.0415333 0.0850996)
(0.123371 -0.057087 0.045028)
(0.121858 -0.0709839 -0.00613976)
(0.112727 -0.0824352 -0.0521333)
(0.0953434 -0.0873972 -0.0794609)
(0.0726233 -0.0808692 -0.0836819)
(0.0498585 -0.0596357 -0.0685962)
(0.0326566 -0.0243858 -0.0420492)
(0.0252022 0.0189803 -0.0121602)
(0.0289042 0.05961 0.0153655)
(0.0414916 0.0848006 0.0389761)
(0.0581762 0.0861283 0.0615534)
(0.0834076 0.0653921 0.0870228)
(0.0778071 -0.0124001 0.114365)
(0.0912682 -0.0307833 0.129638)
(0.0957466 -0.04204 0.130101)
(0.0997144 -0.0476301 0.109629)
(0.102969 -0.051533 0.0670999)
(0.102128 -0.0571375 0.0113781)
(0.0929844 -0.064691 -0.0407064)
(0.0743689 -0.0708942 -0.0743431)
(0.0497524 -0.0710394 -0.0841443)
(0.0253515 -0.0618277 -0.0732991)
(0.00740938 -0.0431931 -0.0488568)
(0.000360866 -0.0189079 -0.017925)
(0.00576238 0.00403051 0.0142534)
(0.0214198 0.0174712 0.0451283)
(0.0417571 0.0159584 0.0752981)
(0.068231 0.00166228 0.107317)
(0.0435424 -0.056292 0.122581)
(0.0506558 -0.05983 0.13718)
(0.0526147 -0.0566104 0.137732)
(0.0567104 -0.049496 0.119139)
(0.0630572 -0.0429602 0.0798453)
(0.0674649 -0.0410464 0.0266102)
(0.0641933 -0.0450542 -0.0257428)
(0.0507968 -0.0526616 -0.0625569)
(0.0302482 -0.0595847 -0.0772735)
(0.00877253 -0.0622328 -0.0716359)
(-0.0074027 -0.0593928 -0.0513814)
(-0.0141665 -0.052568 -0.0226007)
(-0.0104083 -0.0453618 0.00989406)
(0.00162139 -0.0420402 0.0430062)
(0.0168998 -0.0452679 0.0753797)
(0.0347983 -0.0530496 0.107275)
(-0.00436353 -0.0885092 0.115008)
(-0.00387519 -0.0781067 0.128068)
(-0.00464583 -0.0637885 0.129394)
(0.000397021 -0.0476734 0.115245)
(0.0113952 -0.0338227 0.0840881)
(0.0239393 -0.0264884 0.0399381)
(0.0311366 -0.0277326 -0.00653733)
(0.0284444 -0.0363027 -0.0427717)
(0.0168493 -0.0485965 -0.0613255)
(0.00144814 -0.0608344 -0.0618103)
(-0.0120134 -0.0706154 -0.048087)
(-0.0196999 -0.0772696 -0.0249688)
(-0.0206287 -0.0815231 0.00340984)
(-0.0167213 -0.084733 0.0338181)
(-0.0117701 -0.0878625 0.0637421)
(-0.00568701 -0.0899517 0.0909507)
(-0.053891 -0.0968946 0.0947622)
(-0.0583057 -0.0778653 0.106092)
(-0.0626877 -0.0590686 0.109148)
(-0.0574461 -0.0400759 0.101429)
(-0.0424894 -0.0238098 0.0816809)
(-0.0216173 -0.0141374 0.0514476)
(-0.00204457 -0.0135986 0.0163112)
(0.00914611 -0.0220615 -0.0151708)
(0.00945689 -0.036931 -0.0358355)
(0.00164615 -0.0545603 -0.0429365)
(-0.0091966 -0.0715238 -0.0376901)
(-0.0189994 -0.0854016 -0.0231444)
(-0.0262436 -0.0949881 -0.00246497)
(-0.0320164 -0.100116 0.0214434)
(-0.0387951 -0.101385 0.0456758)
(-0.0427873 -0.0993443 0.0664416)
(-0.145387 -0.0413841 0.0575724)
(-0.142573 -0.0215131 0.0596901)
(-0.142706 -0.008087 0.0582915)
(-0.130106 0.000926236 0.0504612)
(-0.107619 0.0044399 0.0366377)
(-0.0793463 0.000805287 0.0192106)
(-0.0509156 -0.0103391 0.0016706)
(-0.0283525 -0.0273042 -0.012586)
(-0.0160701 -0.046695 -0.0213884)
(-0.0156171 -0.0647053 -0.0242369)
(-0.0255001 -0.0780603 -0.0219112)
(-0.0422435 -0.0844916 -0.0154098)
(-0.0621211 -0.0833047 -0.00542593)
(-0.0828974 -0.0756569 0.00729036)
(-0.104338 -0.0643871 0.0214796)
(-0.112333 -0.0525668 0.0339551)
(-0.170454 -0.00780731 0.00295863)
(-0.170027 0.005346 0.00850102)
(-0.172886 0.0131336 0.0144949)
(-0.15974 0.0163447 0.0180728)
(-0.134024 0.0144872 0.0185099)
(-0.0994529 0.00697251 0.0163569)
(-0.061434 -0.00562473 0.0127262)
(-0.0268801 -0.0211333 0.00870562)
(-0.00264003 -0.0364379 0.00477035)
(0.0064476 -0.0489708 0.000657469)
(-0.000475079 -0.0570821 -0.00418326)
(-0.020147 -0.0595746 -0.00944427)
(-0.0473501 -0.0557369 -0.013764)
(-0.0779638 -0.0463921 -0.0154472)
(-0.110141 -0.0342085 -0.0132364)
(-0.124438 -0.0225342 -0.0068177)
(-0.181328 0.0328694 -0.049845)
(-0.182057 0.0368376 -0.0423998)
(-0.18564 0.03667 -0.0313795)
(-0.171348 0.0316104 -0.0191135)
(-0.14306 0.0218801 -0.00712079)
(-0.104305 0.00823908 0.003947)
(-0.0600007 -0.00742531 0.0136686)
(-0.0169464 -0.0219943 0.0214298)
(0.0168741 -0.0322513 0.0259854)
(0.0338667 -0.0367482 0.0251774)
(0.0298277 -0.0363133 0.0170333)
(0.00692092 -0.0318193 0.00234355)
(-0.0277647 -0.0229855 -0.015207)
(-0.0676068 -0.010419 -0.0310768)
(-0.108721 0.00335821 -0.0412632)
(-0.128307 0.0144095 -0.0416991)
(-0.178112 0.077034 -0.0960903)
(-0.179521 0.0702049 -0.0887832)
(-0.181758 0.0605135 -0.0754862)
(-0.165403 0.0457013 -0.0580155)
(-0.134764 0.0266254 -0.0384301)
(-0.0934044 0.00544024 -0.0180697)
(-0.0458534 -0.0145152 0.00187685)
(0.00163235 -0.0288798 0.0202711)
(0.0413466 -0.0335956 0.0350767)
(0.0644004 -0.027594 0.0422189)
(0.0630689 -0.0147328 0.0364168)
(0.0372442 0.000291844 0.0167369)
(-0.00436653 0.0161467 -0.011298)
(-0.0521766 0.0324851 -0.039819)
(-0.100009 0.0473972 -0.0618628)
(-0.124129 0.0567178 -0.0700074)
(-0.162271 0.117719 -0.129949)
(-0.163716 0.0998029 -0.124639)
(-0.162703 0.0797724 -0.111317)
(-0.143456 0.0545455 -0.0918631)
(-0.110673 0.025706 -0.0688247)
(-0.0682023 -0.00332674 -0.0440085)
(-0.0203539 -0.0279323 -0.0186301)
(0.0274414 -0.0426064 0.0065016)
(0.068687 -0.0420885 0.0299808)
(0.0950488 -0.0246641 0.047253)
(0.0963767 0.003596 0.0492855)
(0.0687748 0.0324916 0.030497)
(0.021494 0.0571867 -0.00360678)
(-0.0325649 0.0774988 -0.0418167)
(-0.0847308 0.0927569 -0.0739619)
(-0.112622 0.0993514 -0.0901264)
(-0.135242 0.149187 -0.144611)
(-0.135605 0.120759 -0.142404)
(-0.129882 0.090058 -0.130482)
(-0.10749 0.054438 -0.111787)
(-0.0734523 0.0163603 -0.0894566)
(-0.0319509 -0.0197558 -0.065352)
(0.0129719 -0.048381 -0.0401109)
(0.0568708 -0.063279 -0.0134395)
(0.0949232 -0.0583326 0.0145879)
(0.121004 -0.0303577 0.0404952)
(0.12506 0.0144807 0.0533784)
(0.098454 0.0602809 0.0414462)
(0.0481352 0.095854 0.00689952)
(-0.00981694 0.120327 -0.0366783)
(-0.0637609 0.134976 -0.0758178)
(-0.0943771 0.137902 -0.0991614)
(-0.0983832 0.167693 -0.134476)
(-0.0961842 0.130235 -0.135533)
(-0.0851758 0.0894291 -0.126133)
(-0.0604232 0.0444882 -0.111007)
(-0.0270759 -0.00117955 -0.0937917)
(0.0106074 -0.0425512 -0.0757747)
(0.0490724 -0.0737516 -0.0560991)
(0.0849481 -0.0883787 -0.0328414)
(0.115175 -0.0800715 -0.0047735)
(0.136565 -0.0443617 0.02594)
(0.142349 0.0148352 0.0490222)
(0.121148 0.0789667 0.048325)
(0.0731523 0.127953 0.0196087)
(0.0150012 0.157247 -0.0238281)
(-0.0378878 0.170391 -0.0656246)
(-0.0696074 0.168643 -0.0936242)
(-0.0535324 0.171673 -0.0981953)
(-0.0475151 0.127719 -0.101625)
(-0.0321069 0.0788176 -0.0961334)
(-0.0070049 0.0271377 -0.0879655)
(0.0228766 -0.0231661 -0.0806759)
(0.0535899 -0.0670896 -0.0739679)
(0.0822432 -0.099019 -0.0645198)
(0.106602 -0.112826 -0.0483739)
(0.125293 -0.102415 -0.0234789)
(0.137784 -0.0629361 0.00832884)
(0.142049 0.00450226 0.0383122)
(0.129284 0.0837088 0.0501298)
(0.0919967 0.148096 0.0333269)
(0.0404712 0.18433 -0.00323716)
(-0.00754161 0.19598 -0.0420399)
(-0.0378036 0.188532 -0.0703097)
(-0.00408135 0.161862 -0.0416287)
(0.00611677 0.114507 -0.0453638)
(0.0232555 0.0611365 -0.0449918)
(0.0457508 0.00685737 -0.0470473)
(0.0692708 -0.0440459 -0.0539412)
(0.0904442 -0.0873828 -0.0626629)
(0.106996 -0.118236 -0.0666259)
(0.117711 -0.130974 -0.059744)
(0.122822 -0.119984 -0.0396791)
(0.124001 -0.080745 -0.00892504)
(0.122814 -0.0129474 0.0244447)
(0.11634 0.0721463 0.0467066)
(0.0960893 0.149122 0.0455346)
(0.0613869 0.195385 0.0231843)
(0.0251365 0.20814 -0.00557911)
(0.00132945 0.195056 -0.0280208)
(0.0423727 0.139684 0.0225813)
(0.0561752 0.0923533 0.0210839)
(0.0716062 0.0396708 0.0163585)
(0.0887294 -0.0118321 0.00266536)
(0.104125 -0.0588033 -0.0203888)
(0.114881 -0.0984711 -0.0462572)
(0.118997 -0.126819 -0.0646985)
(0.116025 -0.138735 -0.0676659)
(0.107674 -0.129056 -0.052964)
(0.0973478 -0.0937886 -0.0241884)
(0.0888825 -0.032445 0.0105955)
(0.0838803 0.0475293 0.0401641)
(0.0783789 0.126712 0.05407)
(0.066618 0.181089 0.0505357)
(0.0508888 0.198774 0.0386568)
(0.0423249 0.183543 0.0288919)
(0.0733116 0.105443 0.0807468)
(0.0896747 0.0626789 0.082715)
(0.101311 0.0170076 0.074193)
(0.112198 -0.0259061 0.0502729)
(0.120061 -0.0646409 0.0125794)
(0.122063 -0.0980534 -0.0289073)
(0.11596 -0.123012 -0.0605152)
(0.10177 -0.134802 -0.0725647)
(0.0824604 -0.128539 -0.0631361)
(0.0628353 -0.100636 -0.0367403)
(0.0480258 -0.0506892 -0.00151832)
(0.0417579 0.0158223 0.0330988)
(0.0440998 0.0850933 0.0589534)
(0.0506653 0.137784 0.0731486)
(0.0571165 0.159042 0.0801998)
(0.0695031 0.147211 0.0870913)
(0.0784053 0.0609479 0.123669)
(0.0948787 0.0281989 0.128091)
(0.102988 -0.00452135 0.117219)
(0.10931 -0.0341861 0.0866052)
(0.112708 -0.0615481 0.038978)
(0.110035 -0.0869917 -0.0135258)
(0.0983501 -0.108219 -0.0549039)
(0.0777889 -0.120778 -0.0743172)
(0.0521961 -0.119839 -0.0699105)
(0.0273361 -0.101948 -0.0465293)
(0.00900441 -0.0666512 -0.0119911)
(0.00160729 -0.0180964 0.0255855)
(0.00682044 0.0339612 0.0595649)
(0.0222123 0.0756908 0.0866759)
(0.0421219 0.0949185 0.108422)
(0.0688636 0.0889292 0.129128)
(0.0565591 0.0130993 0.14699)
(0.0696945 -0.00531224 0.151833)
(0.0753523 -0.021981 0.139633)
(0.0798877 -0.0366424 0.106549)
(0.082921 -0.0516506 0.0554326)
(0.0807843 -0.0686727 -0.0014949)
(0.0695366 -0.0863088 -0.0478637)
(0.0488821 -0.100367 -0.0723571)
(0.0228478 -0.105909 -0.0727568)
(-0.00246334 -0.0993074 -0.0534859)
(-0.0211217 -0.0796784 -0.0215393)
(-0.0288117 -0.0498091 0.0161294)
(-0.0237254 -0.0162669 0.053836)
(-0.0075516 0.0117991 0.0880005)
(0.0145434 0.0262314 0.117812)
(0.0421504 0.0254122 0.144832)
(0.014725 -0.0281737 0.149304)
(0.0224186 -0.030924 0.153121)
(0.0260352 -0.0325075 0.140885)
(0.0309465 -0.0338853 0.109501)
(0.0369765 -0.0380815 0.0614823)
(0.0399914 -0.0476842 0.00719795)
(0.034984 -0.0622396 -0.0388164)
(0.0204517 -0.0779883 -0.0657066)
(-0.000465974 -0.0899057 -0.07054)
(-0.0221342 -0.0939645 -0.0565837)
(-0.0389449 -0.0885327 -0.0295943)
(-0.0469267 -0.0748898 0.00465324)
(-0.0445478 -0.0569457 0.0413218)
(-0.0332591 -0.0402385 0.0767579)
(-0.017187 -0.0296964 0.108531)
(0.00212263 -0.0264782 0.135121)
(-0.0365516 -0.0540508 0.132055)
(-0.0339641 -0.0434982 0.134599)
(-0.0326854 -0.0342344 0.124158)
(-0.0264235 -0.0266725 0.098262)
(-0.0156504 -0.0236459 0.0588416)
(-0.00465247 -0.0280998 0.0133979)
(0.000696131 -0.0403469 -0.0270345)
(-0.00302875 -0.0573161 -0.0531945)
(-0.014729 -0.0741705 -0.0615082)
(-0.0301155 -0.0865346 -0.0536409)
(-0.0442418 -0.0919148 -0.0337474)
(-0.0533977 -0.0900893 -0.00626745)
(-0.0560403 -0.0828565 0.0249278)
(-0.0531452 -0.0732702 0.0565214)
(-0.0476484 -0.0644458 0.0854655)
(-0.0389492 -0.0579127 0.107853)
(-0.0854974 -0.0568128 0.0999318)
(-0.086774 -0.0386682 0.1015)
(-0.0886521 -0.0247168 0.0945263)
(-0.0812631 -0.0139648 0.0768016)
(-0.0655629 -0.00857034 0.0495409)
(-0.045732 -0.0111727 0.017333)
(-0.0283074 -0.022294 -0.0129547)
(-0.0189794 -0.0394594 -0.0348167)
(-0.0194539 -0.0583391 -0.0447383)
(-0.0273838 -0.0747216 -0.0427499)
(-0.0386136 -0.0857009 -0.031101)
(-0.0495153 -0.0900412 -0.0126988)
(-0.0582155 -0.0881305 0.00971911)
(-0.0649526 -0.0815859 0.0335689)
(-0.0715189 -0.0727964 0.0561627)
(-0.0723352 -0.0640058 0.0730682)
(-0.132047 0.00981935 0.0412247)
(-0.126722 0.0246607 0.0376944)
(-0.12555 0.0338434 0.0305927)
(-0.115547 0.0372479 0.01742)
(-0.0986816 0.0334879 -6.72347e-05)
(-0.0780018 0.0212045 -0.0178473)
(-0.0576001 0.000926998 -0.0316613)
(-0.0417116 -0.024097 -0.0387509)
(-0.0335987 -0.0485662 -0.0387447)
(-0.0349109 -0.0670127 -0.0333409)
(-0.0449914 -0.0757642 -0.025089)
(-0.0607515 -0.0738567 -0.0158617)
(-0.0780746 -0.0628541 -0.0061725)
(-0.0940873 -0.0460574 0.00414975)
(-0.108371 -0.0275405 0.0151961)
(-0.110099 -0.0116084 0.0256903)
(-0.145858 0.0416273 -0.0160371)
(-0.144397 0.0513365 -0.0160247)
(-0.145974 0.0563626 -0.015132)
(-0.135421 0.0550921 -0.0161963)
(-0.114831 0.0464839 -0.0191028)
(-0.0868916 0.0301786 -0.0220553)
(-0.0558928 0.00773733 -0.0230822)
(-0.0275289 -0.0168987 -0.0210931)
(-0.00767489 -0.0382781 -0.0166754)
(-0.000918368 -0.0518331 -0.0119557)
(-0.00860221 -0.0555584 -0.00965514)
(-0.0277208 -0.0498994 -0.0111164)
(-0.0526509 -0.0367133 -0.015256)
(-0.078699 -0.0188808 -0.0195229)
(-0.10378 5.14378e-05 -0.0210445)
(-0.113218 0.015762 -0.0170559)
(-0.146188 0.0778168 -0.06896)
(-0.148015 0.0799376 -0.0677154)
(-0.1504 0.0778917 -0.0617434)
(-0.138431 0.0689294 -0.0536641)
(-0.114435 0.0526956 -0.0445756)
(-0.0810043 0.0301685 -0.0343016)
(-0.0424058 0.00420691 -0.0225861)
(-0.00474917 -0.0202197 -0.009752)
(0.0247794 -0.0374204 0.00263691)
(0.0390845 -0.0435349 0.0112566)
(0.0338797 -0.0386485 0.0117844)
(0.0111444 -0.0255247 0.00236441)
(-0.021674 -0.00701344 -0.0144283)
(-0.0573625 0.0140678 -0.0332696)
(-0.0917485 0.0344675 -0.048243)
(-0.108162 0.0497551 -0.0528093)
(-0.136144 0.114076 -0.111917)
(-0.140543 0.107671 -0.111941)
(-0.141866 0.0969507 -0.103901)
(-0.12741 0.078545 -0.0902718)
(-0.0999473 0.0528961 -0.072995)
(-0.0623897 0.0224823 -0.053038)
(-0.0189879 -0.00823867 -0.031212)
(0.024209 -0.0329574 -0.00847687)
(0.0600194 -0.0451261 0.0133667)
(0.0804851 -0.041104 0.0299782)
(0.0782138 -0.0235685 0.0341102)
(0.0525359 0.000675437 0.0211678)
(0.0122839 0.0265889 -0.0055339)
(-0.0321855 0.0515442 -0.0375202)
(-0.0742584 0.0730712 -0.0655519)
(-0.096924 0.0870444 -0.0800504)
(-0.118016 0.145415 -0.139774)
(-0.123703 0.129838 -0.142763)
(-0.122314 0.109055 -0.134759)
(-0.1046 0.0800004 -0.118648)
(-0.0739393 0.0441558 -0.0971618)
(-0.0338747 0.00550095 -0.0720956)
(0.011097 -0.0300377 -0.0446909)
(0.0554075 -0.0550947 -0.0157272)
(0.0930338 -0.062113 0.0137275)
(0.117127 -0.0468239 0.0396985)
(0.11869 -0.0135133 0.0522676)
(0.0924249 0.0256231 0.0415174)
(0.0464749 0.0611395 0.00924286)
(-0.00519993 0.0903467 -0.0329893)
(-0.0530324 0.112293 -0.0723371)
(-0.0809856 0.123873 -0.0969907)
(-0.0928534 0.168231 -0.14744)
(-0.0979024 0.143121 -0.15394)
(-0.0925096 0.111283 -0.147151)
(-0.071472 0.0710809 -0.131131)
(-0.0388414 0.02533 -0.109474)
(0.00112021 -0.0206772 -0.0843868)
(0.0437889 -0.0599915 -0.0567868)
(0.0843537 -0.084713 -0.0265433)
(0.118471 -0.0870133 0.00644733)
(0.142011 -0.0615792 0.0396272)
(0.147605 -0.0119258 0.0626904)
(0.125212 0.045356 0.059946)
(0.0777564 0.0933049 0.0279413)
(0.0217313 0.127428 -0.0201162)
(-0.0293919 0.148944 -0.0676083)
(-0.0611393 0.156988 -0.101121)
(-0.0613382 0.180406 -0.131026)
(-0.0635039 0.146252 -0.140543)
(-0.0535343 0.103542 -0.136006)
(-0.0301056 0.0530617 -0.122987)
(0.00214806 -0.000923119 -0.105772)
(0.0385135 -0.0521934 -0.0861889)
(0.0745981 -0.0934019 -0.0637513)
(0.10664 -0.116843 -0.0368199)
(0.132158 -0.115188 -0.0043104)
(0.149987 -0.0827454 0.0322226)
(0.157141 -0.0205141 0.0641007)
(0.143214 0.0550978 0.0732492)
(0.101948 0.118747 0.0484727)
(0.0468208 0.159458 0.000686504)
(-0.00430067 0.180106 -0.050329)
(-0.0375584 0.183472 -0.0895208)
(-0.0247359 0.181319 -0.0897928)