/*--------------------------------*- C++ -*----------------------------------*\
| =========                 |                                                 |
| \\      /  F ield         | OpenFOAM: The Open Source CFD Toolbox           |
|  \\    /   O peration     | Version:  3.0.0                                 |
|   \\  /    A nd           | Web:      www.OpenFOAM.org                      |
|    \\/     M anipulation  |                                                 |
\*---------------------------------------------------------------------------*/
FoamFile
{
    version     2.0;
    format      ascii;
    class       volScalarField;
    location    "300";
    object      nut;
}
// * * * * * * * * * * * * * * * * * * * * * * * * * * * * * * * * * * * * * //

dimensions      [0 2 -1 0 0 0 0];

internalField   nonuniform List<scalar> 
10720
(
0.0970095
0.101693
0.107031
0.112892
0.119579
0.127105
0.135604
0.144879
0.154884
0.165174
0.175259
0.184195
0.19142
0.196759
0.200212
0.201986
0.202295
0.201427
0.199499
0.196703
0.193013
0.18851
0.18323
0.177418
0.171501
0.16576
0.160166
0.154567
0.148858
0.143033
0.137087
0.130985
0.12469
0.118149
0.111169
0.103629
0.0943789
0.0840838
0.0606825
0.0925553
0.0878395
0.0827697
0.0767122
0.0697316
0.061287
0.0506114
0.0381358
0.0346885
0.0324885
0.039228
0.0457857
0.0510596
0.0555967
0.059862
0.0640697
0.0682718
0.0724398
0.0765205
0.0804813
0.0843127
0.0880211
0.0916208
0.0951031
0.0982846
0.100948
0.103066
0.104685
0.105858
0.106617
0.107009
0.107121
0.107013
0.106657
0.105957
0.104892
0.103017
0.100833
0.0916936
0.10038
0.0999985
0.0993435
0.0984447
0.0974882
0.0964156
0.0953158
0.0943216
0.0943971
0.0955003
0.0973012
0.100213
0.10421
0.109126
0.114976
0.12147
0.12849
0.13577
0.143158
0.150295
0.157048
0.163006
0.167834
0.171109
0.172397
0.171781
0.169659
0.166366
0.162252
0.157603
0.152636
0.147504
0.14232
0.137182
0.132196
0.127463
0.1232
0.119389
0.114048
0.10077
0.10085
0.101062
0.100805
0.100294
0.0994761
0.0981877
0.0962536
0.0933306
0.0899495
0.0858482
0.081575
0.0773826
0.0733125
0.0694727
0.0659154
0.0627156
0.0598991
0.0574873
0.0554705
0.0538426
0.0525843
0.0516723
0.051064
0.0507327
0.0506464
0.0507444
0.0509616
0.0512421
0.0515909
0.0526514
0.0550292
0.0582576
0.0616477
0.064758
0.0675522
0.0699226
0.0740327
0.0777082
0.121952
0.121781
0.121402
0.120813
0.120132
0.11925
0.118168
0.116948
0.115521
0.114147
0.11298
0.112094
0.111459
0.111051
0.110736
0.110564
0.110621
0.110964
0.111304
0.110897
0.111028
0.111901
0.113333
0.118269
0.125401
0.132834
0.139646
0.145417
0.149968
0.153245
0.155315
0.156339
0.156524
0.156073
0.155188
0.153913
0.152642
0.149961
0.150061
0.122123
0.12207
0.122077
0.121816
0.121367
0.120692
0.119712
0.118389
0.116749
0.11474
0.112364
0.109687
0.106762
0.103603
0.100297
0.0968882
0.0934402
0.0900002
0.0866217
0.0833193
0.0801217
0.0770264
0.0740361
0.0710619
0.0680548
0.0650775
0.0621706
0.0593764
0.0567256
0.054253
0.0519583
0.0503238
0.050186
0.0511751
0.0528483
0.0550033
0.0575679
0.0604764
0.0654998
0.129091
0.128984
0.128775
0.128462
0.128083
0.127598
0.126998
0.126307
0.125491
0.12456
0.123515
0.122358
0.121157
0.120013
0.118828
0.117277
0.115471
0.113517
0.111435
0.109209
0.106955
0.104826
0.102867
0.10159
0.101403
0.10239
0.104498
0.110351
0.117827
0.125783
0.133671
0.141101
0.147829
0.15376
0.158954
0.163446
0.167657
0.170066
0.173401
0.129172
0.129169
0.129155
0.129021
0.128787
0.128428
0.127905
0.127195
0.126287
0.125161
0.123808
0.122243
0.120474
0.118493
0.116331
0.113999
0.111525
0.108937
0.106269
0.103539
0.100774
0.0979811
0.0951592
0.0922249
0.0891137
0.0858718
0.0825289
0.0791213
0.0756815
0.0722418
0.0688304
0.0654822
0.0623036
0.0594487
0.0568897
0.0555661
0.055882
0.0566364
0.0593203
0.132698
0.132625
0.132484
0.132282
0.13204
0.131727
0.131346
0.130903
0.130381
0.129784
0.129107
0.128341
0.127478
0.126516
0.125447
0.124254
0.122892
0.121335
0.119541
0.117507
0.115207
0.112682
0.109927
0.107294
0.105238
0.103642
0.102297
0.100951
0.10084
0.102181
0.107662
0.115383
0.124484
0.134398
0.144706
0.155135
0.165793
0.176082
0.185618
0.132754
0.132748
0.13274
0.13265
0.1325
0.132266
0.131931
0.131484
0.130918
0.130223
0.129394
0.128436
0.127344
0.126108
0.12474
0.123233
0.121596
0.119836
0.117968
0.115995
0.113932
0.111779
0.109529
0.107115
0.104479
0.101645
0.0986279
0.0954477
0.092126
0.0886858
0.0851511
0.081549
0.0779012
0.0742459
0.0706004
0.0670293
0.0638375
0.0605563
0.0590842
0.134757
0.134704
0.134609
0.134472
0.134304
0.13409
0.133829
0.133525
0.133169
0.132759
0.132295
0.131767
0.131171
0.1305
0.129743
0.128891
0.127922
0.126818
0.125544
0.124075
0.122368
0.120398
0.118124
0.115605
0.113005
0.110439
0.107865
0.105673
0.103858
0.102148
0.10081
0.100878
0.104907
0.112233
0.122388
0.135141
0.150255
0.16834
0.186949
0.134792
0.13479
0.134783
0.134721
0.134621
0.134458
0.134226
0.133918
0.133535
0.133071
0.132521
0.131889
0.131171
0.130358
0.129457
0.128459
0.127365
0.126173
0.12489
0.123513
0.122044
0.120478
0.118805
0.116971
0.114926
0.112672
0.110212
0.107549
0.104689
0.101643
0.0984222
0.0950443
0.0915245
0.0878786
0.0841201
0.0802079
0.0761549
0.0716465
0.0647843
0.136071
0.136033
0.135963
0.135863
0.135742
0.135588
0.135399
0.135181
0.134925
0.134632
0.134299
0.13392
0.133493
0.133011
0.132465
0.131849
0.131149
0.13035
0.129429
0.12837
0.127139
0.125712
0.124053
0.122147
0.120024
0.117721
0.11523
0.112645
0.110057
0.107425
0.105205
0.103224
0.101475
0.101258
0.105511
0.114427
0.128432
0.15018
0.177973
0.136097
0.136093
0.136087
0.136042
0.13597
0.135851
0.135679
0.135455
0.135179
0.134849
0.134461
0.134019
0.13352
0.132959
0.132336
0.131646
0.130887
0.130058
0.129158
0.128185
0.127136
0.126005
0.12478
0.12342
0.121883
0.120163
0.118251
0.116142
0.113829
0.111308
0.10858
0.105647
0.102515
0.0991873
0.0956665
0.0919163
0.0878311
0.0834106
0.0745888
0.136973
0.136944
0.136892
0.136817
0.136726
0.13661
0.136468
0.136304
0.136112
0.135892
0.135643
0.135359
0.135039
0.134677
0.134267
0.133803
0.133274
0.132672
0.131981
0.131187
0.130271
0.129215
0.127997
0.126597
0.125017
0.123252
0.121272
0.11906
0.116638
0.114007
0.111302
0.108532
0.105992
0.103724
0.101971
0.102746
0.110077
0.128208
0.161002
0.136991
0.136987
0.136981
0.136946
0.136892
0.136802
0.13667
0.136499
0.136291
0.136045
0.135759
0.135435
0.135072
0.134668
0.13422
0.133725
0.133181
0.132585
0.131935
0.131229
0.130464
0.129634
0.128727
0.127714
0.126562
0.125261
0.123799
0.122167
0.12035
0.118339
0.116123
0.113693
0.111045
0.108171
0.105059
0.101677
0.0978614
0.0938153
0.0849471
0.137626
0.137604
0.137564
0.137506
0.137436
0.137345
0.137236
0.137109
0.136961
0.136792
0.136601
0.136384
0.13614
0.135864
0.135551
0.135197
0.134794
0.134336
0.133808
0.133202
0.1325
0.13169
0.130757
0.129691
0.128494
0.127154
0.125639
0.123917
0.121965
0.119758
0.117294
0.114578
0.111723
0.108729
0.106001
0.103513
0.102477
0.110718
0.14078
0.137639
0.137634
0.137627
0.137599
0.137558
0.137487
0.137383
0.137248
0.137086
0.136896
0.136677
0.136431
0.136158
0.135855
0.135523
0.135156
0.134753
0.134313
0.133832
0.133308
0.132737
0.132115
0.131432
0.130665
0.129789
0.128797
0.127676
0.126415
0.125
0.123417
0.121652
0.119691
0.11752
0.115123
0.112478
0.109552
0.106156
0.102567
0.0943901
0.138118
0.138101
0.138069
0.138023
0.137968
0.137895
0.137808
0.137707
0.13759
0.137456
0.137304
0.137133
0.13694
0.136722
0.136475
0.136196
0.135879
0.135518
0.135105
0.134632
0.134087
0.133459
0.132735
0.131908
0.13098
0.129941
0.128768
0.127434
0.12591
0.124162
0.122155
0.119857
0.117258
0.114337
0.11121
0.107921
0.104826
0.102667
0.12311
0.138128
0.138122
0.138115
0.13809
0.138058
0.138002
0.137917
0.137808
0.137679
0.137527
0.137354
0.137163
0.136952
0.136719
0.136464
0.136185
0.13588
0.135546
0.135181
0.134783
0.134349
0.133872
0.133348
0.132757
0.132082
0.131315
0.130445
0.129464
0.128357
0.127112
0.125713
0.124144
0.12239
0.12043
0.118235
0.115774
0.112851
0.109753
0.102534
0.138501
0.138488
0.138462
0.138425
0.138379
0.13832
0.138249
0.138167
0.138071
0.137962
0.13784
0.137702
0.137547
0.137373
0.137176
0.136953
0.136701
0.136414
0.136086
0.135709
0.135275
0.134776
0.134203
0.133549
0.132815
0.131994
0.131066
0.130014
0.128813
0.127434
0.125841
0.123992
0.121839
0.119326
0.116423
0.113025
0.109525
0.103808
0.112498
0.138508
0.138502
0.138493
0.138472
0.138446
0.138401
0.138331
0.138241
0.138135
0.138012
0.137872
0.137719
0.137552
0.137369
0.13717
0.136952
0.136716
0.136457
0.136175
0.135866
0.135529
0.135159
0.134749
0.134286
0.133758
0.133155
0.132472
0.131699
0.130826
0.129839
0.128726
0.127471
0.126059
0.124468
0.122669
0.120631
0.11817
0.115553
0.109362
0.138807
0.138796
0.138775
0.138744
0.138706
0.138656
0.138596
0.138527
0.138448
0.138358
0.138257
0.138143
0.138016
0.137873
0.137713
0.137532
0.137326
0.137093
0.136827
0.136524
0.136174
0.135773
0.135313
0.134789
0.134202
0.133544
0.1328
0.131955
0.130993
0.129889
0.128617
0.127137
0.125403
0.123346
0.120897
0.117845
0.114444
0.108683
0.108528
0.138812
0.138805
0.138796
0.138776
0.138755
0.138717
0.138659
0.138583
0.138495
0.138393
0.138279
0.138154
0.138018
0.137872
0.137713
0.137541
0.137354
0.13715
0.136928
0.136685
0.136419
0.136126
0.135801
0.135434
0.135013
0.134535
0.133991
0.133375
0.132678
0.131889
0.130996
0.129987
0.128846
0.127556
0.126086
0.124411
0.122362
0.120182
0.114986
0.139056
0.139047
0.139029
0.139002
0.138969
0.138926
0.138875
0.138816
0.138749
0.138673
0.138589
0.138494
0.138388
0.13827
0.138137
0.137988
0.137818
0.137627
0.137409
0.13716
0.136874
0.136546
0.136172
0.135747
0.135271
0.134737
0.134134
0.133449
0.132667
0.131771
0.13074
0.129543
0.128143
0.126477
0.124478
0.121928
0.118887
0.113947
0.109208
0.13906
0.139052
0.139042
0.139023
0.139006
0.138974
0.138925
0.138861
0.138786
0.138701
0.138605
0.138502
0.13839
0.13827
0.138142
0.138003
0.137853
0.137689
0.137512
0.137318
0.137105
0.136871
0.13661
0.136315
0.135976
0.13559
0.135153
0.134657
0.134094
0.133457
0.132735
0.131917
0.13099
0.129939
0.128736
0.12736
0.125662
0.123857
0.119561
0.139262
0.139255
0.139238
0.139214
0.139185
0.139147
0.139103
0.139052
0.138994
0.138929
0.138857
0.138777
0.138688
0.138589
0.138477
0.138352
0.138211
0.138052
0.13787
0.137664
0.137427
0.137157
0.136849
0.1365
0.13611
0.135673
0.135178
0.134617
0.133976
0.133242
0.132396
0.131416
0.13027
0.128912
0.127282
0.125209
0.122613
0.118614
0.112402
0.139265
0.139257
0.139245
0.139228
0.139213
0.139187
0.139144
0.139089
0.139025
0.138953
0.138872
0.138785
0.138692
0.138593
0.138487
0.138373
0.138251
0.138119
0.137975
0.137818
0.137646
0.137456
0.137244
0.137004
0.136728
0.136414
0.136058
0.135654
0.135196
0.134677
0.134088
0.13342
0.132662
0.1318
0.130811
0.129677
0.128271
0.126776
0.123256
0.139435
0.139428
0.139412
0.139391
0.139365
0.139331
0.139291
0.139247
0.139196
0.139141
0.139079
0.13901
0.138934
0.13885
0.138756
0.13865
0.138531
0.138397
0.138245
0.138071
0.137874
0.137648
0.137392
0.137102
0.136779
0.136418
0.136009
0.135545
0.135015
0.134408
0.133709
0.132898
0.131951
0.130831
0.129488
0.127801
0.12563
0.122516
0.116268
0.139436
0.139428
0.139416
0.139399
0.139387
0.139364
0.139328
0.13928
0.139225
0.139162
0.139093
0.139019
0.138941
0.138858
0.138769
0.138675
0.138575
0.138466
0.138348
0.138219
0.138079
0.137923
0.137749
0.137552
0.137326
0.137068
0.136776
0.136444
0.136067
0.135641
0.135156
0.134606
0.133982
0.133271
0.132453
0.131514
0.130348
0.129105
0.126233
0.139581
0.139575
0.13956
0.13954
0.139515
0.139485
0.139449
0.13941
0.139366
0.139317
0.139264
0.139205
0.13914
0.139067
0.138987
0.138897
0.138796
0.138682
0.138553
0.138406
0.138239
0.138049
0.137834
0.137592
0.137321
0.13702
0.136679
0.136292
0.135851
0.135345
0.134763
0.134088
0.133299
0.132367
0.131249
0.129861
0.128044
0.125643
0.120041
0.139583
0.139575
0.139562
0.139545
0.139534
0.139515
0.139483
0.139441
0.139393
0.139339
0.139279
0.139216
0.139149
0.139078
0.139004
0.138925
0.138841
0.138751
0.138653
0.138547
0.138431
0.138302
0.138159
0.137995
0.137807
0.137594
0.137352
0.137077
0.136766
0.136412
0.136011
0.135555
0.135037
0.134447
0.133768
0.132986
0.132014
0.130976
0.128634
0.139706
0.139699
0.139685
0.139666
0.139643
0.139615
0.139583
0.139548
0.13951
0.139467
0.139421
0.13937
0.139313
0.139251
0.139182
0.139105
0.139018
0.138921
0.13881
0.138686
0.138543
0.138382
0.1382
0.137995
0.137767
0.137513
0.137227
0.136902
0.136531
0.136107
0.135619
0.135053
0.134392
0.133611
0.132674
0.13152
0.12999
0.128109
0.123377
0.139708
0.1397
0.139687
0.13967
0.13966
0.139643
0.139616
0.139579
0.139537
0.139489
0.139437
0.139382
0.139324
0.139264
0.139201
0.139134
0.139063
0.138988
0.138906
0.138818
0.138721
0.138614
0.138494
0.138358
0.138201
0.138023
0.137822
0.137593
0.137333
0.137038
0.136704
0.136324
0.135891
0.135398
0.13483
0.134176
0.133364
0.132491
0.130579
0.139814
0.139807
0.139792
0.139774
0.139752
0.139727
0.139698
0.139667
0.139633
0.139596
0.139555
0.139511
0.139462
0.139409
0.139349
0.139283
0.139208
0.139124
0.139029
0.138922
0.1388
0.138662
0.138506
0.138332
0.138139
0.137924
0.137681
0.137405
0.137092
0.136734
0.136322
0.135844
0.135287
0.13463
0.13384
0.132873
0.131579
0.130063
0.126182
0.139816
0.139809
0.139795
0.139778
0.139769
0.139755
0.139731
0.139698
0.139661
0.139619
0.139573
0.139524
0.139474
0.139422
0.139368
0.139311
0.139251
0.139187
0.139118
0.139044
0.138963
0.138873
0.138773
0.138658
0.138527
0.138378
0.138208
0.138016
0.137799
0.137551
0.13727
0.136952
0.136589
0.136175
0.135698
0.135148
0.134466
0.133729
0.132164
0.139907
0.139899
0.139884
0.139867
0.139847
0.139823
0.139798
0.13977
0.13974
0.139708
0.139673
0.139634
0.139592
0.139546
0.139494
0.139437
0.139372
0.1393
0.139218
0.139125
0.13902
0.138901
0.138767
0.138618
0.138452
0.138269
0.138061
0.137827
0.13756
0.137255
0.136905
0.1365
0.136028
0.135471
0.134803
0.133988
0.132892
0.131635
0.128484
0.13991
0.139903
0.13989
0.139872
0.139864
0.139852
0.13983
0.139802
0.139768
0.139731
0.13969
0.139647
0.139603
0.139558
0.139511
0.139462
0.139411
0.139357
0.139298
0.139235
0.139167
0.139091
0.139006
0.13891
0.138799
0.138673
0.13853
0.138368
0.138185
0.137976
0.13774
0.137471
0.137165
0.136815
0.136412
0.135948
0.135373
0.134749
0.133462
0.139989
0.13998
0.139965
0.139948
0.139929
0.139907
0.139885
0.13986
0.139834
0.139806
0.139776
0.139743
0.139706
0.139666
0.139622
0.139572
0.139516
0.139453
0.139382
0.139301
0.13921
0.139107
0.138991
0.138862
0.13872
0.138562
0.138384
0.138183
0.137955
0.137694
0.137395
0.137049
0.136647
0.136173
0.135604
0.134913
0.133986
0.132921
0.13039
0.139992
0.139986
0.139973
0.139955
0.139948
0.139937
0.139918
0.139892
0.139862
0.139828
0.139792
0.139754
0.139715
0.139675
0.139634
0.139592
0.139548
0.139502
0.139452
0.139399
0.139341
0.139276
0.139205
0.139123
0.139028
0.138922
0.138801
0.138663
0.138508
0.138331
0.138131
0.137903
0.137644
0.137348
0.137007
0.136613
0.136126
0.135594
0.134534
0.14006
0.14005
0.140035
0.140018
0.140001
0.139982
0.139962
0.139941
0.139918
0.139894
0.139868
0.13984
0.139809
0.139774
0.139735
0.139692
0.139643
0.139588
0.139525
0.139455
0.139376
0.139286
0.139186
0.139074
0.138951
0.138814
0.138661
0.138488
0.138291
0.138067
0.13781
0.137513
0.137168
0.136763
0.136277
0.135688
0.134903
0.133987
0.131981
0.140064
0.140059
0.140046
0.140028
0.140021
0.140012
0.139995
0.139972
0.139945
0.139914
0.139881
0.139847
0.139812
0.139777
0.139742
0.139705
0.139667
0.139627
0.139585
0.139539
0.13949
0.139435
0.139374
0.139304
0.139224
0.139133
0.13903
0.138913
0.138781
0.138631
0.138461
0.138267
0.138046
0.137794
0.137504
0.137169
0.136756
0.136301
0.135423
0.140122
0.140111
0.140096
0.140081
0.140065
0.140048
0.140031
0.140013
0.139994
0.139974
0.139952
0.139927
0.1399
0.13987
0.139836
0.139798
0.139755
0.139707
0.139652
0.139591
0.139521
0.139443
0.139355
0.139258
0.139151
0.139033
0.1389
0.13875
0.13858
0.138386
0.138164
0.137908
0.137611
0.137263
0.136846
0.136341
0.135676
0.13488
0.133292
0.140128
0.140124
0.140111
0.140092
0.140087
0.140079
0.140064
0.140043
0.140017
0.139989
0.139959
0.139929
0.139898
0.139867
0.139836
0.139804
0.139771
0.139737
0.1397
0.139661
0.139619
0.139572
0.13952
0.13946
0.139392
0.139314
0.139226
0.139126
0.139014
0.138885
0.13874
0.138575
0.138387
0.138171
0.137923
0.137637
0.137286
0.136896
0.136167
0.140177
0.140166
0.140151
0.140136
0.140122
0.140107
0.140093
0.140079
0.140063
0.140046
0.140028
0.140007
0.139983
0.139956
0.139927
0.139893
0.139855
0.139813
0.139765
0.139711
0.139649
0.139581
0.139504
0.139419
0.139326
0.139223
0.139108
0.138977
0.13883
0.138661
0.138469
0.138248
0.137991
0.13769
0.137331
0.136896
0.136332
0.135638
0.13437
0.140184
0.140182
0.140169
0.14015
0.140145
0.140138
0.140125
0.140105
0.140082
0.140056
0.140029
0.140001
0.139974
0.139946
0.139919
0.139891
0.139863
0.139833
0.139802
0.139768
0.139732
0.139692
0.139647
0.139596
0.139537
0.13947
0.139395
0.139309
0.139213
0.139103
0.138979
0.138837
0.138676
0.138492
0.13828
0.138034
0.137734
0.137399
0.136792
0.140226
0.140214
0.140199
0.140186
0.140173
0.140161
0.14015
0.140139
0.140127
0.140113
0.140096
0.140078
0.140057
0.140034
0.140008
0.139978
0.139945
0.139907
0.139865
0.139817
0.139763
0.139703
0.139635
0.139561
0.13948
0.13939
0.139289
0.139175
0.139047
0.138901
0.138733
0.138541
0.138318
0.138057
0.137747
0.13737
0.136896
0.136289
0.135261
0.140234
0.140234
0.140221
0.140202
0.140197
0.140191
0.140179
0.140161
0.140139
0.140115
0.14009
0.140065
0.140041
0.140017
0.139993
0.139969
0.139944
0.139918
0.139891
0.139862
0.139831
0.139797
0.139758
0.139714
0.139664
0.139606
0.139541
0.139468
0.139385
0.139291
0.139184
0.139063
0.138924
0.138766
0.138584
0.138373
0.138116
0.137828
0.137321
0.140269
0.140256
0.140243
0.14023
0.14022
0.140211
0.140203
0.140195
0.140185
0.140173
0.140159
0.140143
0.140124
0.140104
0.140081
0.140055
0.140026
0.139992
0.139955
0.139913
0.139865
0.139812
0.139752
0.139687
0.139616
0.139537
0.139449
0.139349
0.139237
0.139109
0.138963
0.138796
0.138602
0.138375
0.138107
0.137778
0.137391
0.136859
0.136012
0.140278
0.14028
0.140267
0.140248
0.140243
0.140239
0.140228
0.14021
0.14019
0.140168
0.140145
0.140123
0.140101
0.14008
0.140059
0.140038
0.140016
0.139994
0.139971
0.139946
0.139919
0.139889
0.139856
0.139818
0.139775
0.139725
0.139669
0.139606
0.139535
0.139454
0.139362
0.139258
0.139139
0.139003
0.138846
0.138665
0.138444
0.138196
0.13777
0.140307
0.140295
0.140282
0.140271
0.140264
0.140258
0.140253
0.140246
0.140238
0.140227
0.140215
0.140201
0.140186
0.140168
0.140148
0.140125
0.140099
0.14007
0.140037
0.139999
0.139957
0.13991
0.139857
0.1398
0.139737
0.139668
0.13959
0.139503
0.139404
0.139292
0.139165
0.139019
0.13885
0.138652
0.138422
0.138134
0.137823
0.137361
0.136654
0.140318
0.140321
0.140309
0.140289
0.140286
0.140282
0.140271
0.140255
0.140235
0.140215
0.140194
0.140174
0.140155
0.140137
0.140118
0.1401
0.140081
0.140062
0.140042
0.140021
0.139997
0.139972
0.139943
0.139911
0.139873
0.13983
0.139782
0.139728
0.139667
0.139598
0.139519
0.139429
0.139327
0.13921
0.139075
0.138918
0.138728
0.138514
0.138155
0.140341
0.140329
0.140317
0.140309
0.140304
0.140302
0.140298
0.140293
0.140286
0.140277
0.140267
0.140256
0.140242
0.140227
0.140209
0.14019
0.140167
0.140141
0.140112
0.140079
0.140041
0.139999
0.139953
0.139902
0.139846
0.139785
0.139716
0.139639
0.139553
0.139454
0.139342
0.139214
0.139067
0.138897
0.138705
0.138461
0.138205
0.137806
0.137212
0.140352
0.140358
0.140347
0.140326
0.140324
0.140321
0.14031
0.140294
0.140276
0.140257
0.140239
0.140221
0.140205
0.140188
0.140172
0.140156
0.14014
0.140123
0.140106
0.140088
0.140068
0.140046
0.140021
0.139993
0.139961
0.139925
0.139884
0.139838
0.139786
0.139727
0.13966
0.139583
0.139496
0.139395
0.139278
0.139143
0.138979
0.138793
0.138487
0.140372
0.14036
0.140349
0.140344
0.140343
0.140342
0.14034
0.140336
0.14033
0.140324
0.140316
0.140306
0.140295
0.140282
0.140267
0.140249
0.140229
0.140207
0.140181
0.140151
0.140118
0.140081
0.140039
0.139994
0.139945
0.139891
0.13983
0.139762
0.139686
0.139599
0.1395
0.139389
0.139265
0.139122
0.138964
0.138764
0.138547
0.138207
0.137702
0.140383
0.140391
0.140381
0.14036
0.140358
0.140356
0.140346
0.14033
0.140312
0.140295
0.140279
0.140264
0.14025
0.140235
0.140221
0.140207
0.140193
0.140179
0.140164
0.140149
0.140132
0.140113
0.140093
0.140069
0.140043
0.140013
0.139979
0.139941
0.139898
0.139849
0.139793
0.139728
0.139653
0.139566
0.139465
0.139348
0.139205
0.139043
0.138781
0.140399
0.140389
0.140378
0.140377
0.140379
0.140379
0.140378
0.140375
0.140372
0.140367
0.140361
0.140353
0.140344
0.140333
0.14032
0.140305
0.140287
0.140267
0.140244
0.140218
0.140189
0.140156
0.140119
0.140078
0.140035
0.139987
0.139933
0.139873
0.139805
0.139729
0.139644
0.139551
0.139449
0.139332
0.139201
0.139036
0.138852
0.138569
0.138139
0.140411
0.140421
0.140412
0.140391
0.14039
0.140388
0.140377
0.140361
0.140345
0.14033
0.140316
0.140303
0.140291
0.140278
0.140266
0.140254
0.140243
0.14023
0.140218
0.140205
0.140191
0.140176
0.14016
0.140142
0.140122
0.1401
0.140074
0.140044
0.14001
0.13997
0.139923
0.139868
0.139804
0.139729
0.139642
0.13954
0.139415
0.139273
0.139045
0.140424
0.140414
0.140406
0.140409
0.140413
0.140413
0.140413
0.140412
0.14041
0.140408
0.140403
0.140397
0.14039
0.140381
0.14037
0.140357
0.140342
0.140324
0.140304
0.140281
0.140255
0.140225
0.140193
0.140157
0.140118
0.140075
0.140027
0.139974
0.139915
0.13985
0.139781
0.139705
0.13962
0.139524
0.139415
0.139278
0.139121
0.138888
0.138526
0.140435
0.140447
0.140439
0.140418
0.140418
0.140416
0.140405
0.14039
0.140375
0.140362
0.140351
0.140339
0.140328
0.140318
0.140308
0.140298
0.140288
0.140279
0.140269
0.140259
0.140249
0.140238
0.140228
0.140218
0.140205
0.14019
0.140172
0.14015
0.140123
0.140091
0.140052
0.140006
0.139952
0.139888
0.139812
0.139723
0.139614
0.139489
0.139288
0.140447
0.140437
0.140431
0.14044
0.140443
0.140443
0.140445
0.140446
0.140446
0.140445
0.140442
0.140438
0.140432
0.140425
0.140416
0.140406
0.140394
0.140379
0.140362
0.140343
0.14032
0.140294
0.140264
0.140232
0.140197
0.140159
0.140117
0.140071
0.140022
0.139969
0.139912
0.139849
0.139778
0.139698
0.139605
0.139491
0.139358
0.139166
0.138866
0.140456
0.140468
0.140462
0.140443
0.140443
0.140442
0.14043
0.140415
0.140403
0.140392
0.140382
0.140373
0.140364
0.140355
0.140347
0.14034
0.140333
0.140326
0.140319
0.140313
0.140307
0.140303
0.1403
0.140297
0.140292
0.140283
0.14027
0.140254
0.140234
0.14021
0.140179
0.140142
0.140097
0.140042
0.139977
0.139899
0.139804
0.139693
0.139521
0.140467
0.140458
0.140455
0.140466
0.140468
0.140469
0.140473
0.140474
0.140475
0.140475
0.140474
0.140472
0.140469
0.140464
0.140459
0.140452
0.140443
0.140433
0.14042
0.140406
0.140388
0.140368
0.140345
0.140319
0.14029
0.140258
0.140222
0.140183
0.14014
0.140093
0.140043
0.139987
0.139926
0.139856
0.139776
0.139679
0.139566
0.139406
0.13916
0.140474
0.140482
0.140478
0.140464
0.140464
0.140462
0.140452
0.140438
0.140428
0.140419
0.140411
0.140403
0.140396
0.14039
0.140385
0.14038
0.140376
0.140372
0.140369
0.140367
0.140366
0.140367
0.140368
0.140369
0.140367
0.140361
0.140353
0.140343
0.140331
0.140315
0.140295
0.140269
0.140236
0.140193
0.140138
0.140071
0.139988
0.139886
0.139753
0.140483
0.140476
0.140476
0.140484
0.140486
0.140487
0.14049
0.140492
0.140493
0.140494
0.140494
0.140494
0.140493
0.140491
0.140489
0.140486
0.140481
0.140476
0.140469
0.140461
0.140452
0.14044
0.140426
0.140409
0.140389
0.140365
0.140337
0.140305
0.140268
0.140227
0.14018
0.140128
0.140071
0.140006
0.139934
0.139848
0.139749
0.139615
0.139413
0.140486
0.14049
0.140487
0.140479
0.140477
0.140475
0.140468
0.140458
0.14045
0.140444
0.140437
0.140431
0.140427
0.140423
0.14042
0.140418
0.140416
0.140415
0.140415
0.140415
0.140415
0.140415
0.140416
0.140416
0.140414
0.140411
0.140406
0.1404
0.140393
0.140384
0.140372
0.140358
0.140339
0.140313
0.140279
0.140229
0.140163
0.140072
0.139969
0.140492
0.140489
0.140489
0.140494
0.140496
0.140498
0.140501
0.140503
0.140504
0.140506
0.140507
0.140508
0.140508
0.140508
0.140507
0.140506
0.140504
0.140502
0.140498
0.140494
0.140489
0.140483
0.140475
0.140466
0.140455
0.140441
0.140425
0.140404
0.140378
0.140347
0.14031
0.140265
0.140214
0.140154
0.140087
0.140008
0.139918
0.139799
0.139632
0.140493
0.140495
0.140493
0.140487
0.140485
0.140482
0.140477
0.140471
0.140465
0.140461
0.140457
0.140453
0.140451
0.140449
0.140447
0.140446
0.140445
0.140444
0.140444
0.140443
0.140443
0.140443
0.140443
0.140443
0.140442
0.14044
0.140437
0.140434
0.14043
0.140425
0.140419
0.140411
0.1404
0.140386
0.140368
0.14034
0.140305
0.140233
0.140158
0.140497
0.140496
0.140496
0.1405
0.140502
0.140505
0.140507
0.14051
0.140512
0.140514
0.140516
0.140517
0.140518
0.140519
0.14052
0.14052
0.140519
0.140518
0.140517
0.140515
0.140512
0.140509
0.140505
0.1405
0.140494
0.140486
0.140477
0.140466
0.140452
0.140433
0.140409
0.140378
0.140339
0.140291
0.140232
0.140161
0.140078
0.13997
0.139826
0.140497
0.140498
0.140496
0.140491
0.140489
0.140486
0.140482
0.140477
0.140474
0.140471
0.140468
0.140466
0.140464
0.140463
0.140462
0.140461
0.140461
0.14046
0.14046
0.14046
0.14046
0.14046
0.14046
0.14046
0.14046
0.140459
0.140458
0.140456
0.140454
0.140452
0.140448
0.140444
0.140439
0.140431
0.140421
0.140406
0.140388
0.140348
0.140302
0.1405
0.1405
0.140501
0.140504
0.140506
0.140509
0.140512
0.140515
0.140517
0.14052
0.140522
0.140524
0.140526
0.140527
0.140529
0.140529
0.14053
0.14053
0.14053
0.14053
0.140529
0.140527
0.140525
0.140522
0.140519
0.140514
0.140509
0.140503
0.140495
0.140485
0.140472
0.140455
0.140431
0.140399
0.140356
0.140299
0.140228
0.140131
0.140004
0.1405
0.1405
0.140498
0.140494
0.140491
0.140489
0.140485
0.140481
0.140478
0.140476
0.140474
0.140473
0.140472
0.140471
0.140471
0.14047
0.14047
0.14047
0.14047
0.14047
0.14047
0.140471
0.140471
0.140472
0.140472
0.140472
0.140472
0.140471
0.140471
0.14047
0.140468
0.140466
0.140464
0.14046
0.140454
0.140446
0.140437
0.140416
0.140393
0.140502
0.140502
0.140503
0.140506
0.140509
0.140512
0.140515
0.140518
0.140521
0.140524
0.140527
0.140529
0.140531
0.140533
0.140535
0.140537
0.140538
0.140539
0.14054
0.14054
0.140541
0.14054
0.140539
0.140538
0.140536
0.140534
0.140531
0.140528
0.140523
0.140518
0.140511
0.140501
0.140489
0.140471
0.140446
0.140408
0.140356
0.140276
0.140168
0.140501
0.140501
0.140499
0.140495
0.140492
0.140489
0.140486
0.140482
0.14048
0.140478
0.140477
0.140476
0.140476
0.140476
0.140476
0.140476
0.140476
0.140476
0.140476
0.140477
0.140477
0.140478
0.140479
0.14048
0.14048
0.140481
0.140481
0.140482
0.140482
0.140482
0.140482
0.140482
0.140481
0.14048
0.140477
0.140473
0.140468
0.140457
0.140446
0.140502
0.140503
0.140504
0.140508
0.140511
0.140514
0.140517
0.140521
0.140524
0.140527
0.14053
0.140533
0.140536
0.140538
0.14054
0.140543
0.140545
0.140546
0.140548
0.140549
0.14055
0.140551
0.140551
0.140551
0.14055
0.140549
0.140548
0.140546
0.140543
0.14054
0.140536
0.140531
0.140525
0.140516
0.140503
0.140482
0.140452
0.140396
0.140313
0.140501
0.140501
0.140499
0.140495
0.140492
0.140489
0.140486
0.140483
0.140481
0.140479
0.140479
0.140478
0.140478
0.140478
0.140479
0.140479
0.140479
0.14048
0.14048
0.140481
0.140482
0.140482
0.140484
0.140485
0.140486
0.140487
0.140488
0.140489
0.14049
0.140491
0.140492
0.140493
0.140493
0.140493
0.140493
0.140492
0.14049
0.140484
0.14048
0.140502
0.140502
0.140504
0.140508
0.140511
0.140515
0.140518
0.140522
0.140526
0.140529
0.140533
0.140536
0.140539
0.140542
0.140544
0.140547
0.140549
0.140552
0.140554
0.140556
0.140557
0.140559
0.14056
0.140561
0.140561
0.140561
0.140561
0.14056
0.140559
0.140558
0.140556
0.140553
0.140549
0.140545
0.140539
0.140528
0.140514
0.140481
0.140429
0.1405
0.1405
0.140498
0.140494
0.140491
0.140488
0.140485
0.140482
0.14048
0.140479
0.140479
0.140479
0.140479
0.140479
0.14048
0.140481
0.140481
0.140482
0.140483
0.140483
0.140484
0.140485
0.140486
0.140488
0.140489
0.140491
0.140492
0.140494
0.140495
0.140497
0.140498
0.1405
0.140502
0.140503
0.140504
0.140505
0.140505
0.140503
0.140503
0.140501
0.140502
0.140504
0.140508
0.140511
0.140515
0.140519
0.140523
0.140527
0.140531
0.140534
0.140538
0.140541
0.140544
0.140548
0.140551
0.140553
0.140556
0.140559
0.140561
0.140563
0.140566
0.140567
0.140569
0.14057
0.140571
0.140572
0.140572
0.140572
0.140572
0.140571
0.14057
0.140568
0.140566
0.140563
0.140558
0.140553
0.140535
0.140512
0.140499
0.140498
0.140496
0.140492
0.140489
0.140486
0.140483
0.14048
0.140479
0.140478
0.140478
0.140478
0.140479
0.140479
0.14048
0.140481
0.140482
0.140482
0.140483
0.140484
0.140485
0.140487
0.140488
0.140489
0.140491
0.140493
0.140495
0.140496
0.140498
0.1405
0.140503
0.140505
0.140507
0.140509
0.140512
0.140514
0.140516
0.140516
0.140519
0.140499
0.1405
0.140503
0.140507
0.14051
0.140514
0.140519
0.140523
0.140527
0.140531
0.140535
0.140539
0.140543
0.140546
0.14055
0.140553
0.140556
0.14056
0.140563
0.140566
0.140568
0.140571
0.140573
0.140575
0.140577
0.140579
0.14058
0.140582
0.140583
0.140583
0.140584
0.140584
0.140584
0.140583
0.140582
0.14058
0.140579
0.140569
0.140565
0.140497
0.140496
0.140494
0.14049
0.140487
0.140483
0.14048
0.140478
0.140477
0.140476
0.140476
0.140477
0.140478
0.140478
0.140479
0.14048
0.140481
0.140482
0.140483
0.140484
0.140485
0.140486
0.140488
0.14049
0.140491
0.140493
0.140495
0.140498
0.1405
0.140502
0.140505
0.140508
0.14051
0.140513
0.140516
0.140519
0.140523
0.140524
0.140529
0.140497
0.140498
0.140501
0.140505
0.140509
0.140514
0.140518
0.140523
0.140527
0.140531
0.140536
0.14054
0.140544
0.140548
0.140551
0.140555
0.140559
0.140562
0.140566
0.140569
0.140572
0.140575
0.140578
0.140581
0.140583
0.140586
0.140588
0.14059
0.140591
0.140593
0.140594
0.140596
0.140597
0.140597
0.140598
0.140597
0.140598
0.140592
0.140598
0.140495
0.140493
0.140491
0.140488
0.140484
0.14048
0.140477
0.140475
0.140474
0.140474
0.140474
0.140475
0.140476
0.140477
0.140478
0.140479
0.14048
0.140481
0.140482
0.140483
0.140484
0.140485
0.140487