/*--------------------------------*- C++ -*----------------------------------*\
| =========                 |                                                 |
| \\      /  F ield         | OpenFOAM: The Open Source CFD Toolbox           |
|  \\    /   O peration     | Version:  3.0.0                                 |
|   \\  /    A nd           | Web:      www.OpenFOAM.org                      |
|    \\/     M anipulation  |                                                 |
\*---------------------------------------------------------------------------*/
FoamFile
{
    version     2.0;
    format      ascii;
    class       volScalarField;
    location    "300";
    object      p;
}
// * * * * * * * * * * * * * * * * * * * * * * * * * * * * * * * * * * * * * //

dimensions      [0 2 -2 0 0 0 0];

internalField   nonuniform List<scalar> 
10720
(
0.000224201
-80.7717
-175.432
-265.95
-346.581
-427.788
-497.417
-553.392
-600.465
-635.003
-659.143
-675.153
-684.278
-687.081
-683.985
-674.522
-659.901
-638.815
-612.504
-579.59
-541.175
-496.456
-447.744
-395.986
-344.727
-299.091
-257.984
-217.705
-177.941
-138.897
-100.365
-62.1809
-24.2217
13.7658
52.0455
91.7613
133.091
182
228.584
83.6977
160.309
245.687
328.155
401.807
462.338
505.814
529.739
537.2
534.064
521.387
502.249
480.987
459.573
438.759
418.609
399.411
380.942
363.013
345.192
327.44
309.463
291.341
273.435
257.524
244.651
233.874
224.85
217.592
212.163
208.488
206.454
205.977
207.056
209.692
214.271
221.289
234.314
257.068
148.602
86.4296
17.9285
-53.4709
-125.623
-198.418
-267.844
-331.774
-389.743
-439.995
-482.626
-517.716
-545.093
-564.939
-577.179
-581.97
-579.971
-570.705
-554.784
-531.615
-501.847
-465.251
-423.625
-378.184
-332.11
-289.804
-250.753
-212.053
-173.504
-135.406
-97.6397
-60.0761
-22.618
14.971
52.9424
92.4227
133.573
182.41
228.255
205.227
259.948
315.657
371.158
422.182
465.996
499.379
519.857
528.08
526.13
515.711
499.815
481.277
461.705
441.946
422.39
403.365
384.867
366.793
348.879
331.057
313.144
295.217
277.655
261.849
248.695
237.557
228.153
220.514
214.705
210.663
208.299
207.528
208.346
210.764
215.169
222.052
234.997
256.758
172.108
116.353
54.647
-12.6167
-81.2479
-150.43
-218.574
-282.79
-341.468
-393.735
-438.437
-475.144
-503.938
-525.284
-539.327
-546.359
-546.556
-539.803
-526.37
-506.08
-479.305
-446.146
-407.941
-366.024
-323.016
-282.532
-244.645
-207.101
-169.557
-132.283
-95.1986
-58.1875
-21.1698
16.0703
53.7709
93.0372
134.015
182.676
228.102
223.146
273.836
325.379
375.586
420.715
459.081
488.413
507.046
515.63
515.412
507.656
494.568
478.215
460.145
441.378
422.488
403.851
385.595
367.686
349.957
332.319
314.658
297.039
279.813
264.085
250.731
239.404
229.834
222.036
216.064
211.865
209.355
208.45
209.146
211.462
215.787
222.61
235.443
256.269
209.507
162.589
109.742
52.3492
-7.13877
-68.5391
-130.062
-189.786
-246.3
-298.485
-345.236
-385.906
-420.185
-447.959
-469.094
-483.416
-490.682
-490.781
-483.76
-469.579
-448.494
-420.787
-387.56
-350.215
-311.021
-273.066
-236.917
-200.913
-164.655
-128.42
-92.1928
-55.8816
-19.4269
17.3651
54.7157
93.6986
134.438
182.8
227.838
251.994
293.496
335.896
377.952
416.196
449.358
475.403
492.726
501.657
502.941
497.49
486.991
473.037
456.97
439.773
422.057
404.235
386.531
368.995
351.552
334.15
316.739
299.396
282.455
266.832
253.349
241.851
232.093
224.086
217.886
213.46
210.726
209.616
210.128
212.289
216.492
223.213
235.861
255.764
224.383
182.58
135.26
83.4492
29.557
-26.7672
-84.0226
-140.429
-194.884
-246.213
-293.251
-335.218
-371.505
-401.677
-425.422
-442.416
-452.501
-455.594
-451.677
-440.801
-423.138
-399.036
-369.403
-335.567
-299.489
-263.743
-229.136
-194.502
-159.435
-124.201
-88.8334
-53.254
-17.4119
18.8731
55.81
94.4427
134.871
182.827
227.332
262.365
299.269
337.024
374.37
408.257
437.887
461.549
477.912
487.104
489.593
486.132
477.972
466.326
452.296
436.77
420.36
403.509
386.507
369.482
352.443
335.384
318.305
301.301
284.688
269.233
255.692
244.058
234.141
225.955
219.562
214.939
212.017
210.732
211.087
213.116
217.207
223.823
236.262
255.229
235.862
198.812
156.595
110.38
62.2292
11.4576
-40.5147
-92.2737
-142.998
-191.589
-237.039
-278.577
-315.492
-347.203
-373.269
-393.304
-407.032
-414.19
-414.552
-408.065
-394.8
-375.07
-349.632
-319.715
-287.035
-253.774
-220.914
-187.751
-153.943
-119.751
-85.2656
-50.4373
-15.2297
20.5202
57.008
95.2414
135.295
182.729
226.586
269.494
302.006
335.462
368.762
399.081
425.874
447.627
463.186
472.524
475.946
474.112
467.96
458.419
446.375
432.596
417.644
401.957
385.853
369.515
353.023
336.418
319.746
303.123
286.855
271.601
258.049
246.311
236.259
227.91
221.331
216.51
213.393
211.923
212.108
213.988
217.951
224.443
236.628
254.647
241.71
208.257
170.015
128.098
84.485
38.2174
-9.4317
-57.2191
-104.581
-150.523
-194.157
-234.772
-271.612
-304.02
-331.453
-353.42
-369.437
-379.197
-382.389
-378.946
-368.919
-352.593
-330.611
-304.066
-274.441
-243.554
-212.441
-180.756
-148.231
-115.11
-81.5281
-47.4693
-12.9153
22.277
58.2863
96.08
135.697
182.491
225.609
272.101
301.365
331.598
361.772
389.3
413.822
434.03
448.878
458.247
462.382
461.852
457.383
449.703
439.51
427.445
413.996
399.567
384.482
368.959
353.125
337.07
320.878
304.688
288.799
273.79
260.29
248.493
238.338
229.849
223.098
218.09
214.784
213.132
213.147
214.877
218.706
225.06
236.951
254.021
244.952
214.578
179.757
141.613
102.006
59.8241
16.2461
-27.6441
-71.4709
-114.379
-155.588
-194.496
-230.391
-262.606
-290.55
-313.668
-331.426
-343.466
-349.406
-349.045
-342.339
-329.487
-311.004
-287.836
-261.268
-232.831
-203.57
-173.432
-142.246
-110.248
-77.6122
-44.357
-10.4842
24.1279
59.6332
96.9521
136.075
182.12
224.405
272.575
299.098
326.626
354.201
379.426
402.053
420.963
435.159
444.467
449.131
449.625
446.544
440.466
431.945
421.504
409.543
396.423
382.448
367.846
352.776
337.363
321.727
306.026
290.552
275.829
262.437
250.627
240.398
231.791
224.885
219.7
216.209
214.377
214.219
215.794
219.478
225.676
237.231
253.358
246.131
218.318
186.379
151.407
115.194
76.5424
36.5221
-3.88749
-44.4672
-84.4639
-123.22
-160.238
-194.861
-226.453
-254.423
-278.179
-297.146
-310.869
-318.915
-320.989
-316.999
-307.09
-291.674
-271.558
-247.834
-221.777
-194.382
-165.813
-135.997
-105.16
-73.5086
-41.0945
-7.93679
26.0643
61.039
97.852
136.433
181.633
222.995
271.455
295.717
321.001
346.408
369.696
390.721
408.514
422.107
431.286
436.324
437.618
435.665
430.946
423.902
414.953
404.422
392.611
379.792
366.183
351.958
337.268
322.257
307.097
292.081
277.689
264.46
252.683
242.416
233.718
226.676
221.327
217.659
215.648
215.317
216.732
220.261
226.287
237.467
252.658
246.025
220.413
190.967
158.758
125.498
89.9571
53.1292
15.8971
-21.6331
-58.7946
-95.0449
-129.98
-163.011
-193.573
-221.091
-244.967
-264.618
-279.546
-289.303
-293.505
-291.988
-284.812
-272.279
-255.056
-234.065
-210.358
-184.862
-157.893
-129.478
-99.8404
-69.2106
-37.6735
-5.26658
28.0891
62.5001
98.7731
136.776
181.044
221.413
269.378
291.711
315.08
338.634
360.265
379.908
396.719
409.739
418.748
424.036
425.945
424.902
421.319
415.557
407.955
398.762
388.225
376.573
364.001
350.684
336.783
322.457
307.893
293.375
279.359
266.347
254.652
244.384
235.623
228.466
222.967
219.13
216.945
216.441
217.691
221.055
226.89
237.659
251.922
245.027
221.319
194.039
164.234
133.554
100.746
66.7474
32.3589
-2.37805
-36.8848
-70.7165
-103.557
-134.882
-164.194
-190.965
-214.623
-234.584
-250.328
-261.38
-267.308
-267.868
-263.061
-253.099
-238.516
-220.076
-198.639
-175.039
-149.688
-122.696
-94.2905
-64.7169
-34.0909
-2.46948
30.2058
64.0175
99.7117
137.101
180.365
219.688
266.676
287.351
309.065
331.015
351.203
369.643
385.57
398.043
406.858
412.3
414.673
414.36
411.722
407.061
400.652
392.689
383.362
372.856
361.338
348.968
335.907
322.321
308.399
294.422
280.824
268.08
256.518
246.287
237.493
230.245
224.613
220.618
218.264
217.587
218.668
221.857
227.484
237.806
251.154
243.442
221.404
196.031
168.345
139.936
109.553
78.0832
46.2634
14.0782
-17.9569
-49.4767
-80.2407
-109.794
-137.712
-163.513
-186.662
-206.605
-222.814
-234.805
-242.13
-244.461
-241.742
-234.1
-221.946
-205.898
-186.65
-164.932
-141.208
-115.658
-88.5113
-60.0267
-30.3455
0.456289
32.416
65.5923
100.667
137.404
179.599
217.843
263.601
282.827
303.093
323.632
342.552
359.928
375.049
387.003
395.601
401.124
403.845
404.113
402.253
398.528
393.166
386.314
378.115
368.713
358.24
346.835
334.649
321.846
308.608
295.211
282.073
269.647
258.266
248.113
239.319
232.005
226.258
222.117
219.6
218.752
219.661
222.665
228.066
237.91
250.356
241.476
220.913
197.232
171.427
145.032
116.809
87.6014
58.098
28.2361
-1.52506
-30.8735
-59.6383
-87.4257
-113.876
-138.57
-161.018
-180.696
-197.093
-209.712
-218.121
-221.916
-220.99
-215.396
-205.438
-191.603
-174.44
-154.57
-132.47
-108.37
-82.5061
-55.1399
-26.4356
3.51213
34.7206
67.2243
101.636
137.683
178.751
215.891
260.312
278.267
297.247
316.534
334.325
350.749
365.131
376.589
384.958
390.502
393.478
394.204
392.983
390.049
385.595
379.734
372.573
364.215
354.759
344.319
333.027
321.034
308.515
295.736
283.098
271.035
259.883
249.849
241.088
233.736
227.894
223.621
220.95
219.934
220.667
223.476
228.634
237.972
249.532
239.271
220.023
197.857
173.734
149.14
122.852
95.677
68.2661
40.5167
12.8477
-14.4758
-41.3358
-67.398
-92.3597
-115.863
-137.468
-156.687
-173.037
-186.023
-195.233
-200.22
-200.819
-197.022
-189.039
-177.243
-162.053
-143.982
-123.492
-100.845
-76.28
-50.058
-22.361
6.69953
37.121
68.9137
102.621
137.933
177.826
213.839
256.927
273.747
291.583
309.744
326.522
342.082
355.783
366.771
374.898
380.422
383.578
384.663
383.964
381.694
378.022
373.037
366.816
359.431
350.951
341.457
331.061
319.896
308.123
295.993
283.89
272.234
261.355
251.482
242.79
235.428
229.514
225.125
222.308
221.128
221.683
224.288
229.185
237.993
248.685
236.929
218.864
198.063
175.456
152.478
127.932
102.594
77.0742
51.2505
25.5059
0.0613305
-25.0053
-49.4097
-72.9036
-95.177
-115.845
-134.463
-150.582
-163.722
-173.49
-179.417
-181.288
-179.047
-172.82
-162.882
-149.54
-133.203
-114.297
-93.0969
-69.8401
-44.7841
-18.1223
10.0191
39.6175
70.6608
103.62
138.154
176.828
211.699
253.524
269.325
286.128
303.273
319.133
333.903
346.971
357.512
365.393
370.862
374.139
375.503
375.229
373.515
370.512
366.296
360.92
354.431
346.869
338.289
328.778
318.447
307.438
295.981
284.445
273.234
262.672
253.001
244.412
237.07
231.109
226.62
223.669
222.329
222.705
225.096
229.718
237.975
247.819
234.523
217.53
197.965
176.733
155.214
132.248
108.575
84.7722
60.7049
36.7257
13.0178
-10.3706
-33.1964
-55.2585
-76.2973
-95.9734
-113.89
-129.634
-142.75
-152.86
-159.508
-162.424
-161.51
-156.83
-148.572
-136.947
-122.268
-104.91
-85.1416
-63.1964
-39.3232
-13.7215
13.47
42.2107
72.4659
104.634
138.344
175.764
209.479
250.157
265.037
280.902
297.12
312.145
326.187
338.665
348.782
356.414
361.801
365.154
366.731
366.801
365.549
363.118
359.571
354.948
349.274
342.568
334.86
326.21
316.707
306.469
295.703
284.76
274.028
263.823
254.392
245.943
238.653
232.668
228.099
225.026
223.533
223.729
225.899
230.229
237.921
246.937
232.105
216.088
197.65
177.672
157.478
135.949
113.79
91.5528
69.0907
46.7279
24.6248
2.80438
-18.5306
-39.2155
-59.036
-77.6967
-94.8445
-110.106
-123.057
-133.33
-140.501
-144.253
-144.457
-141.123
-134.37
-124.328
-111.219
-95.3586
-76.999
-56.3614
-33.6823
-9.16216
17.0512
44.9001
74.3287
105.663
138.507
174.64
207.189
246.863
260.906
275.913
291.28
305.542
318.909
330.832
340.547
347.929
353.217
356.607
358.345
358.691
357.825
355.88
352.913
348.955
344.017
338.1
331.212
323.391
314.699
305.23
295.166
284.836
274.613
264.8
255.647
247.372
240.164
234.183
229.554
226.373
224.734
224.751
226.692
230.717
237.832
246.044
229.714
214.59
197.187
178.353
159.372
139.153
118.379
97.5711
76.5791
55.7025
35.0816
14.7162
-5.21762
-24.592
-43.2264
-60.8674
-77.2071
-91.9062
-104.577
-114.864
-122.386
-126.79
-127.919
-125.745
-120.328
-111.731
-100.096
-85.6745
-68.6913
-49.35
-27.8705
-4.44924
20.7602
47.6848
76.2489
106.708
138.642
173.464
204.842
243.668
256.945
271.164
285.748
299.305
312.044
323.445
332.775
339.911
345.086
348.485
350.341
350.909
350.362
348.828
346.362
342.989
338.71
333.513
327.39
320.356
312.449
303.739
294.379
284.677
274.986
265.597
256.756
248.689
241.595
235.645
230.976
227.702
225.927
225.765
227.471
231.18
237.712
245.145
227.375
213.073
196.622
178.843
160.972
141.957
122.451
102.955
83.31
63.8004
44.547
25.5336
6.91017
-11.2204
-28.7128
-45.3478
-60.8589
-74.9426
-87.2466
-97.4305
-105.153
-110.045
-111.926
-110.737
-106.492
-99.2026
-88.9396
-75.8902
-60.2432
-42.1792
-21.8987
0.41062
24.5932
50.5631
78.2264
107.77
138.753
172.247
202.448
240.589
253.16
266.651
280.511
293.413
305.567
316.476
325.438
332.331
337.383
340.767
342.708
343.453
343.17
341.984
339.95
337.088
333.396
328.852
323.435
317.141
309.986
302.015
293.356
284.288
275.147
266.207
257.711
249.885
242.935
237.042
232.357
229.006
227.103
226.767
228.235
231.617
237.564
244.243
225.107
211.565
195.993
179.189
162.341
144.432
126.095
107.803
89.3976
71.1471
53.1583
35.3993
18.002
1.04436
-15.3564
-31.0123
-45.6918
-59.1273
-70.9987
-80.9856
-88.7821
-94.0198
-96.498
-96.1326
-92.9068
-86.7896
-77.7924
-66.0403
-51.6812
-34.8686
-15.7803
5.40908
28.5457
53.5327
80.2601
108.849
138.843
170.997
200.02
237.635
249.555
262.373
275.559
287.851
299.455
309.899
318.51
325.165
330.087
333.44
335.438
336.321
336.258
335.365
333.702
331.286
328.113
324.157
319.385
313.78
307.338
300.081
292.111
283.68
275.099
266.631
258.505
250.949
244.173
238.365
233.688
230.276
228.258
227.75
228.977
232.025
237.391
243.344
222.924
210.086
195.331
179.43
163.526
146.64
129.38
112.199
94.9366
77.8479
61.0259
44.4312
28.1755
12.3205
-3.04103
-17.7513
-31.6077
-44.3751
-55.7662
-65.4849
-73.2495
-78.7107
-81.648
-81.961
-79.6112
-74.5352
-66.6957
-56.1605
-43.034
-27.4399
-9.53056
10.5361
32.6113
56.5905
82.3494
109.948
138.917
169.726
197.573
234.816
246.131
258.32
270.878
282.599
293.687
303.692
311.967
318.39
323.176
326.485
328.518
329.51
329.626
328.982
327.635
325.608
322.893
319.462
315.277
310.308
304.536
297.963
290.663
282.862
274.849
266.866
259.135
251.876
245.302
239.606
234.958
231.505
229.383
228.71
229.695
232.404
237.195
242.451
220.832
208.651
194.656
179.595
164.566
148.628
132.366
116.21
100.007
83.991
68.2491
52.7328
37.5415
22.7199
8.33995
-5.46107
-18.5126
-30.6064
-41.486
-50.8809
-58.5278
-64.1081
-67.3848
-68.2447
-66.6382
-62.4789
-55.6891
-46.2864
-34.3313
-19.9167
-3.16674
15.7799
36.783
59.7323
84.493
111.069
138.98
168.444
195.121
232.132
242.883
254.485
266.455
277.642
288.244
297.833
305.785
311.982
316.631
319.885
321.935
323.011
323.274
322.839
321.764
320.074
317.762
314.799
311.143
306.757
301.61
295.684
289.031
281.849
274.402
266.916
259.597
252.659
246.313
240.754
236.159
232.684
230.47
229.639
230.384
232.752
236.98
241.57
218.84
207.27
193.985
179.707
165.492
150.435
135.098
119.894
104.669
89.6487
74.9072
60.393
46.1925
32.3378
18.8844
5.94917
-6.32143
-17.7462
-28.096
-37.126
-44.588
-50.1982
-53.7103
-55.0031
-54.018
-50.6565
-44.8105
-36.4532
-25.6044
-12.3238
3.29222
21.1268
41.0516
62.954
86.6896
112.213
139.037
167.163
192.677
229.584
239.81
250.861
262.28
272.963
283.106
292.3
299.944
305.92
310.432
313.623
315.676
316.817
317.201
316.941
316.099
314.7
312.74
310.191
307.012
303.157
298.587
293.27
287.236
280.655
273.769
266.784
259.891
253.294
247.199
241.801
237.282
233.803
231.513
230.533
231.04
233.067
236.749
240.705
216.947
205.95
193.33
179.785
166.328
152.093
137.617
123.295
108.979
94.8806
81.0674
67.4838
54.2067
41.2569
28.6759
16.5628
5.0431
-5.7232
-15.5347
-24.1702
-31.3965
-36.9638
-40.6218
-42.2462
-41.7729
-39.0996
-34.0957
-26.6964
-16.8853
-4.68808
9.82552
26.5628
45.4073
66.2491
88.9378
113.384
139.096
165.894
190.257
227.171
236.905
247.439
258.34
268.548
278.255
287.075
294.422
300.185
304.56
307.684
309.729
310.917
311.399
311.287
310.644
309.497
307.845
305.663
302.909
299.535
295.495
290.746
285.299
279.298
272.962
266.477
260.018
253.777
247.953
242.74
238.319
234.856
232.504
231.384
231.659
233.349
236.503
239.859
215.156
204.697
192.701
179.843
167.095
153.626
139.953
126.454
112.983
99.7407
86.7899
74.0719
61.654
49.5484
37.7874
26.4529
15.6528
5.527
-3.74651
-11.9676
-18.9211
-24.3857
-28.1142
-29.9813
-29.9235
-27.8372
-23.5773
-17.0492
-8.20405
2.96324
16.4122
32.07
49.8391
69.6123
91.2351
114.583
139.164
164.649
187.875
224.892
234.162
244.211
254.622
264.382
273.676
282.139
289.204
294.761
298.999
302.051
304.08
305.301
305.864
305.875
305.402
304.473
303.091
301.231
298.855
295.915
292.359
288.136
283.241
277.795
271.993
266.002
259.981
254.108
248.573
243.563
239.26
235.832
233.434
232.187
232.238
233.598
236.245
239.036
213.466
203.513
192.103
179.89
167.807
155.055
142.133
129.401
116.717
104.272
92.123
80.2107
68.5941
57.2772
46.285
35.6862
25.5723
16.0651
7.32363
-0.473645
-7.12617
-12.4418
-16.1783
-18.2135
-18.4852
-16.893
-13.2849
-7.54285
0.409031
10.6039
23.0276
37.632
54.3349
73.0351
93.5806
115.813
139.25
163.441
185.547
222.742
231.577
241.166
251.114
260.451
269.353
277.476
284.27
289.628
293.733
296.71
298.716
299.96
300.587
300.703
300.375
299.634
298.485
296.909
294.869
292.318
289.201
285.462
281.082
276.163
270.876
265.369
259.785
254.287
249.053
244.265
240.1
236.726
234.297
232.935
232.771
233.81
235.978
238.24
211.876
202.399
191.543
179.936
168.477
156.398
144.179
132.164
120.214
108.513
97.1101
85.9478
75.077
64.4978
54.2256
44.3201
34.8585
25.9467
17.7263
10.3555
4.02177
-1.10694
-4.80116
-6.93978
-7.46592
-6.28622
-3.24541
1.79199
8.9236
18.2062
29.6498
43.2292
58.8811
76.5115
95.9698
117.078
139.36
162.279
183.287
220.717
229.142
238.297
247.808
256.742
265.272
273.07
279.606
284.771
288.746
291.646
293.625
294.882
295.561
295.764
295.56
294.982
294.037
292.709
290.966
288.762
286.041
282.745
278.845
274.422
269.627
264.589
259.437
254.317
249.394
244.842
240.831
237.528
235.085
233.621
233.256
233.987
235.702
237.472
210.383
201.357
191.022
179.988
169.115
157.668
146.108
134.763
123.5
112.493
101.787
91.3227
81.1486
71.2573
61.6605
52.4077
43.564
35.222
27.5075
20.5619
14.5562
9.64291
6.03078
3.84185
3.1259
3.96687
6.51951
10.9289
17.3113
25.7421
36.2545
48.8436
63.4633
80.0316
98.4016
118.38
139.502
161.176
181.107
218.814
226.851
235.595
244.691
253.243
261.42
268.908
275.195
280.176
284.022
286.847
288.793
290.058
290.777
291.054
290.955
290.517
289.749
288.639
287.158
285.262
282.899
280.005
276.547
272.588
268.26
263.674
258.943
254.2
249.595
245.29
241.449
238.233
235.791
234.241
233.688
234.127
235.418
236.734
208.985
200.384
190.542
180.049
169.728
158.876
147.935
137.219
126.599
116.24
106.184
96.3725
86.8474
77.5999
68.6351
59.9948
51.7351
43.9366
36.7106
30.1844
24.5115
19.8327
16.3355
14.1383
13.2873
13.855
15.9895
19.8443
25.5456
33.186
42.8177
54.4545
68.068
83.5861
100.872
119.721
139.688
160.141
179.02
217.027
224.697
233.052
241.754
249.944
257.783
264.976
271.025
275.827
279.549
282.298
284.21
285.475
286.227
286.564
286.556
286.238
285.624
284.705
283.453
281.831
279.788
277.26
274.207
270.679
266.79
262.636
258.314
253.942
249.656
245.607
241.949
238.836
236.411
234.789
234.064
234.229
235.128
236.027
207.678
199.48
190.105
180.123
170.323
160.031
149.672
139.547
129.53
119.778
110.33
101.128
92.2089
83.5624
75.1891
67.1243
59.4154
52.1337
45.3765
39.2587
33.9186
29.4868
26.1284
23.9597
23.0194
23.3691
25.1496
28.5164
33.603
40.5139
49.3168
60.0425
72.6789
87.1665
103.376
121.104
139.921
159.187
177.038
215.353
222.674
230.66
238.988
246.832
254.351
261.261
267.081
271.712
275.313
277.987
279.862
281.123
281.9
282.289
282.358
282.144
281.663
280.909
279.86
278.481
276.722
274.523
271.841
268.712
265.233
261.488
257.56
253.55
249.583
245.794
242.328
239.33
236.938
235.26
234.381
234.292
234.831
235.351
206.46
198.643
189.71
180.212
170.904
161.141
151.331
141.76
132.309
123.126
114.247
105.614
97.2618
89.1773
81.3577
73.8327
66.6425
59.85
53.5417
47.8197
42.8089
38.6307
35.429
33.316
32.3246
32.505
33.9879
36.9274
41.4614
47.7021
55.7293
65.5883
77.2812
90.7613
105.912
122.53
140.212
158.32
175.172
213.785
220.776
228.411
236.382
243.898
251.111
257.75
263.352
267.818
271.303
273.901
275.739
276.993
277.789
278.22
278.354
278.23
277.864
277.255
276.384
275.218
273.712
271.81
269.463
266.7
263.603
260.243
256.689
253.031
249.377
245.85
242.584
239.714
237.368
235.65
234.635
234.314
234.527
234.706
205.326
197.871
189.358
180.318
171.474
162.211
152.918
143.869
134.95
126.3
117.954
109.854
102.032
94.4733
87.1717
80.1528
73.4509
67.1209
61.2398
55.8987
51.2109
47.2876
44.2557
42.2203
41.2084
41.2601
42.4951
45.0628
49.1023
54.7298
62.0342
71.0722
81.8596
94.3611
108.473
124
140.565
157.549
173.431
212.318
218.997
226.298
233.929
241.132
248.053
254.434
259.827
264.134
267.505
270.031
271.831
273.074
273.883
274.349
274.539
274.492
274.227
273.743
273.027
272.049
270.768
269.13
267.088
264.659
261.915
258.914
255.715
252.394
249.045
245.78
242.718
239.984
237.697
235.956
234.824
234.295
234.214
234.09
204.272
197.161
189.047
180.442
172.038
163.246
154.442
145.885
137.465
129.317
121.47
113.869
106.543
99.475
92.6586
86.1141
79.8711
73.9773
68.5017
63.526
59.1519
55.482
52.627
50.685
49.6776
49.6346
50.6648
52.911
56.5091
61.5782
68.212
76.4768
86.3987
97.955
111.055
125.516
140.986
156.882
171.822
210.949
217.33
224.313
231.621
238.525
245.167
251.301
256.492
260.648
263.91
266.364
268.125
269.355
270.174
270.669
270.906
270.926
270.746
270.372
269.791
268.979
267.897
266.495
264.726
262.602
260.181
257.513
254.647
251.647
248.594
245.586
242.73
240.14
237.924
236.174
234.946
234.234
233.893
233.501
203.295
196.511
188.775
180.583
172.596
164.251
155.908
147.815
139.866
132.189
124.81
117.677
110.814
104.206
97.8431
91.7428
85.9305
80.4474
75.3559
70.7286
66.6574
63.2366
60.5623
58.7253
57.7412
57.6312
58.4936
60.4622
63.6686
68.2305
74.2453
81.7846
90.8845
101.533
113.652
127.075
141.481
156.325
170.353
209.672
215.769
222.45
229.449
236.068
242.443
248.341
253.34
257.349
260.505
262.891
264.612
265.827
266.652
267.17
267.448
267.524
267.42
267.141
266.678
266.01
265.103
263.91
262.387
260.538
258.413
256.053
253.498
250.8
248.031
245.273
242.623
240.182
238.048
236.304
234.999
234.129
233.561
232.937
202.391
195.918
188.542
180.742
173.149
165.227
157.321
149.665
142.16
134.925
127.986
121.291
114.863
108.685
102.747
97.0628
91.6542
86.5577
81.8285
77.5323
73.7516
70.5731
68.0793
66.3546
65.4091
65.2553
65.9808
67.7103
70.5698
74.6732
80.118
86.9801
95.3028
105.083
116.259
128.677
142.052
155.881
169.028
208.482
214.309
220.702
227.406
233.752
239.874
245.544
250.36
254.228
257.282
259.6
261.282
262.481
263.309
263.846
264.158
264.283
264.243
264.046
263.685
263.144
262.391
261.384
260.08
258.48
256.623
254.545
252.277
249.864
247.363
244.848
242.401
240.112
238.068
236.344
234.982
233.979
233.217
232.394
201.555
195.379
188.346
180.918
173.7
166.178
158.684
151.443
144.354
137.537
131.01
124.727
118.706
112.931
107.389
102.095
97.0646
92.331
87.9433
83.9606
80.4571
77.5123
75.197
73.5888
72.6922
72.5128
73.1275
74.6522
77.2047
80.8945
85.8166
92.0492
99.6407
108.597
118.868
130.322
142.701
155.554
167.851
207.375
212.945
219.062
225.486
231.572
237.45
242.903
247.542
251.275
254.231
256.483
258.126
259.308
260.136
260.689
261.028
261.195
261.21
261.084
260.813
260.382
259.764
258.921
257.812
256.434
254.821
253
250.997
248.848
246.6
244.317
242.068
239.932
237.985
236.294
234.895
233.783
232.858
231.869
200.785
194.89
188.183
181.109
174.247
167.105
160.002
153.15
146.457
140.031
133.893
127.995
122.356
116.958
111.788
106.857
102.182
97.7885
93.722
90.0349
86.7948
84.0742
81.9332
80.4424
79.602
79.4113
79.9376
81.2866
83.5681
86.885
91.3296
96.9795
103.887
112.064
121.475
132.004
143.428
155.345
166.824
206.345
211.67
217.525
223.681
229.518
235.163
240.408
244.877
248.481
251.342
253.53
255.135
256.299
257.125
257.689
258.052
258.254
258.317
258.252
258.058
257.723
257.223
256.524
255.588
254.41
253.016
251.428
249.667
247.761
245.751
243.687
241.631
239.647
237.802
236.155
234.736
233.542
232.483
231.357
200.077
194.45
188.053
181.316
174.792
168.01
161.276
154.794
148.472
142.416
136.643
131.107
125.826
120.78
115.958
111.369
107.024
102.949
99.1842
95.7758
92.7845
90.2771
88.3047
86.9307
86.1515
85.9601
86.4158
87.6143
89.6566
92.6385
96.6479
101.76
108.03
115.475
124.071
133.721
144.233
155.256
165.948
205.389
210.481
216.085
221.984
227.583
233.006
238.052
242.358
245.838
248.607
250.733
252.3
253.445
254.267
254.84
255.222
255.454
255.558
255.546
255.418
255.166
254.769
254.197
253.414
252.413
251.215
249.838
248.297
246.615
244.825
242.968
241.095
239.261
237.523
235.93
234.508
233.253
232.089
230.855
199.426
194.055
187.954
181.537
175.333
168.893
162.51
156.376
150.406
144.697
139.268
134.072
129.126
124.41
119.914
115.643
111.608
107.831
104.348
101.201
98.445
96.1393
94.3287
93.0688
92.3526
92.1688
92.5686
93.638
95.4693
98.1506
101.764
106.383
112.061
118.822
126.65
135.468
145.114
155.284
165.22
204.503
209.372
214.737
220.39
225.762
230.972
235.827
239.977
243.337
246.018
248.083
249.613
250.738
251.555
252.134
252.532
252.789
252.927
252.96
252.89
252.709
252.402
251.941
251.292
250.449
249.425
248.237
246.896
245.418
243.831
242.167
240.469
238.781
237.152
235.621
234.211
232.917
231.674
230.359
198.83
193.702
187.883
181.771
175.871
169.755
163.704
157.9
152.261
146.881
141.774
136.898
132.266
127.86
123.667
119.694
115.948
112.45
109.231
106.329
103.793
101.678
100.021
98.8711
98.2185
98.0483
98.4039
99.3624
101.007
103.419
106.674
110.84
115.972
122.096
129.206
137.24
146.066
155.427
164.64
203.681
208.338
213.474
218.894
224.048
229.054
233.726
237.726
240.971
243.567
245.573
247.066
248.172
248.982
249.564
249.975
250.253
250.42
250.491
250.47
250.351
250.121
249.756
249.226
248.521
247.654
246.634
245.472
244.18
242.778
241.294
239.76
238.214
236.693
235.232
233.848
232.534
231.237
229.865
198.284
193.389
187.838
182.016
176.405
170.597
164.86
159.368
154.043
148.972
144.169
139.592
135.255
131.138
127.23
123.534
120.059
116.821
113.848
111.175
108.846
106.908
105.397
104.352
103.762
103.609
103.93
104.793
106.273
108.444
111.374
115.127
119.757
125.291
131.731
139.032
147.086
155.68
164.203
202.921
207.375
212.294
217.488
222.435
227.245
231.742
235.598
238.732
241.246
243.195
244.652
245.737
246.539
247.123
247.544
247.838
248.03
248.134
248.154
248.089
247.926
247.644
247.218
246.635
245.905
245.036
244.034
242.909
241.677
240.357
238.977
237.566
236.154
234.768
233.421
232.105
230.777
229.368
197.786
193.112
187.817
182.271
176.935
171.419
165.98
160.783
155.753
150.973
146.456
142.161
138.1
134.254
130.612
127.176
123.952
120.957
118.213
115.754
113.617
111.847
110.472
109.527
108.997
108.864
109.157
109.938
111.272
113.226
115.863
119.241
123.409
128.4
134.22
140.836
148.168
156.039
163.904
202.218
206.479
211.189
216.17
220.918
225.54
229.868
233.587
236.614
239.049
240.943
242.364
243.428
244.221
244.804
245.232
245.541
245.753
245.884
245.94
245.919
245.813
245.604
245.268
244.792
244.183
243.447
242.588
241.613
240.534
239.366
238.129
236.846
235.541
234.233
232.933
231.632
230.291
228.866
197.333
192.869
187.818
182.535
177.459
172.22
167.064
162.146
157.395
152.89
148.642
144.611
140.809
137.217
133.823
130.629
127.64
124.87
122.34
120.079
118.122
116.507
115.26
114.408
113.936
113.824
114.095
114.804
116.009
117.769
120.141
123.178
126.927
131.418
136.665
142.648
149.304
156.496
163.737
201.569
205.645
210.156
214.932
219.49
223.933
228.1
231.685
234.61
236.968
238.808
240.194
241.237
242.02
242.602
243.034
243.354
243.582
243.736
243.822
243.84
243.783
243.636
243.378
242.996
242.493
241.874
241.141
240.301
239.359
238.329
237.224
236.062
234.861
233.634
232.388
231.115
229.779
228.356
196.92
192.658
187.838
182.805
177.978
173.002
168.113
163.459
158.972
154.726
150.73
146.948
143.388
140.033
136.871
133.903
131.133
128.572
126.241
124.165
122.374
120.903
119.774
119.009
118.593
118.501
118.754
119.4
120.491
122.078
124.211
126.939
130.305
134.341
139.062
144.459
150.489
157.045
163.695
200.971
204.871
209.191
213.771
218.147
222.418
226.43
229.888
232.714
234.998
236.786
238.137
239.159
239.931
240.509
240.944
241.272
241.514
241.686
241.797
241.847
241.832
241.739
241.548
241.247
240.836
240.32
239.7
238.978
238.16
237.254
236.271
235.222
234.121
232.976
231.792
230.556
229.241
227.834
196.546
192.476
187.877
183.082
178.489
173.763
169.128
164.724
160.485
156.483
152.725
149.176
145.843
142.71
139.764
137.007
134.44
132.074
129.928
128.022
126.385
125.048
124.029
123.345
122.979
122.907
123.146
123.737
124.726
126.157
128.076
130.525
133.544
137.165
141.405
146.263
151.714
157.677
163.769
200.419
204.151
208.29
212.683
216.884
220.991
224.854
228.19
230.921
233.133
234.869
236.186
237.187
237.947
238.52
238.957
239.29
239.543
239.73
239.861
239.939
239.958
239.911
239.778
239.547
239.217
238.791
238.269
237.652
236.945
236.151
235.278
234.335
233.329
232.266
231.147
229.959
228.677
227.3
196.208
192.32
187.931
183.362
178.993
174.504
170.109
165.941
161.937
158.164
154.63
151.3
148.18
145.254
142.51
139.948
137.571
135.386
133.41
131.663
130.168
128.954
128.036
127.426
127.107
127.055
127.281
127.824
128.721
130.014
131.739
133.937
136.643
139.886
143.688
148.054
152.972
158.383
163.952
199.911
203.483
207.449
211.662
215.697
219.646
223.367
226.585
229.224
231.367
233.053
234.337
235.316
236.063
236.63
237.066
237.404
237.664
237.863
238.011
238.111
238.16
238.151
238.068
237.897
237.637
237.29
236.853
236.329
235.719
235.026
234.254
233.408
232.493
231.511
230.459
229.327
228.087
226.751
195.903
192.188
188
183.646
179.489
175.224
171.056
167.111
163.329
159.773
156.449
153.324
150.403
147.671
145.115
142.736
140.534
138.517
136.699
135.097
133.735
132.634
131.808
131.266
130.99
130.956
131.172
131.671
132.487
133.655
135.207
137.179
139.602
142.505
145.909
149.826
154.254
159.155