/*--------------------------------*- C++ -*----------------------------------*\
| =========                 |                                                 |
| \\      /  F ield         | OpenFOAM: The Open Source CFD Toolbox           |
|  \\    /   O peration     | Version:  3.0.0                                 |
|   \\  /    A nd           | Web:      www.OpenFOAM.org                      |
|    \\/     M anipulation  |                                                 |
\*---------------------------------------------------------------------------*/
FoamFile
{
    version     2.0;
    format      ascii;
    class       surfaceScalarField;
    location    "300";
    object      phi;
}
// * * * * * * * * * * * * * * * * * * * * * * * * * * * * * * * * * * * * * //

dimensions      [0 3 -1 0 0 0 0];

internalField   nonuniform List<scalar> 
21254
(
-0.270011
0.288915
-0.0189037
0.31037
-0.0214555
0.328171
-0.0178012
0.343726
-0.0155549
0.358274
-0.0145474
0.369351
-0.0110772
0.377625
-0.00827412
0.383985
-0.00636049
0.387474
-0.00348882
0.389258
-0.00178383
0.389447
-0.00018856
0.387672
0.00177418
0.384569
0.00310379
0.380367
0.00420191
0.375033
0.00533343
0.368918
0.00611529
0.361816
0.00710156
0.353818
0.00799809
0.344733
0.00908542
0.33475
0.00998299
0.323487
0.0112628
0.311491
0.0119959
0.299002
0.0124889
0.287332
0.0116699
0.277696
0.00963625
0.269384
0.00831208
0.26124
0.00814371
0.252947
0.00829385
0.244169
0.00877728
0.234821
0.00934802
0.224874
0.00994724
0.21431
0.0105643
0.203045
0.0112648
0.190814
0.0122313
0.177042
0.013772
0.160607
0.0164347
0.13911
0.0214972
0.107624
0.0314858
0.0904248
0.0172007
-0.247093
-0.0229179
-0.223533
-0.0235595
-0.194034
-0.0294993
-0.16132
-0.0327142
-0.126574
-0.0347455
-0.0902856
-0.0362888
-0.0539813
-0.0363043
-0.0196289
-0.0343524
0.0115113
-0.0311402
0.0391958
-0.0276845
0.0631237
-0.0239279
0.0835923
-0.0204687
0.101037
-0.0174443
0.115755
-0.0147188
0.128394
-0.0126388
0.139309
-0.0109148
0.148991
-0.00968224
0.157699
-0.00870763
0.165753
-0.00805379
0.173295
-0.00754274
0.18051
-0.00721445
0.187405
-0.00689488
0.193927
-0.00652227
0.19948
-0.00555334
0.203881
-0.00440078
0.207397
-0.00351618
0.210028
-0.00263027
0.211883
-0.00185574
0.212998
-0.00111438
0.213398
-0.000400189
0.212962
0.000436219
0.2117
0.00126221
0.209728
0.00197101
0.207144
0.00258441
0.203849
0.00329464
0.199469
0.00438036
0.192919
0.00654955
0.179105
0.013814
0.158524
0.0205817
-0.24712
0.26874
-0.0405243
0.290761
-0.0434762
0.313599
-0.0406393
0.334772
-0.036728
0.355328
-0.0351034
0.374197
-0.0299462
0.391023
-0.0250999
0.406086
-0.0214231
0.418975
-0.0163777
0.429757
-0.0125658
0.438687
-0.00911888
0.44604
-0.00557876
0.4518
-0.00265591
0.455827
0.000174909
0.457992
0.0031676
0.458003
0.00610425
0.455855
0.00924993
0.451737
0.0121164
0.445199
0.015623
0.436619
0.0185635
0.42565
0.0222314
0.412662
0.0249838
0.397705
0.0274464
0.381482
0.0278925
0.365306
0.0258128
0.349606
0.0240113
0.334437
0.0233133
0.319971
0.0227596
0.305984
0.0227646
0.292293
0.0230382
0.278667
0.0235738
0.264924
0.0243068
0.250797
0.025392
0.236042
0.0269862
0.220217
0.0295974
0.202224
0.0344273
0.180664
0.0430581
0.146516
0.0656336
0.104277
0.0594404
-0.224932
-0.0451058
-0.201169
-0.0473223
-0.173295
-0.0573733
-0.143678
-0.062331
-0.112064
-0.0663592
-0.0789013
-0.0694519
-0.0457369
-0.0694688
-0.0139874
-0.0661019
0.0156706
-0.0607982
0.042492
-0.0545058
0.0660007
-0.0474366
0.0864859
-0.0409538
0.10439
-0.0353485
0.119993
-0.030322
0.133719
-0.0263649
0.145867
-0.0230619
0.156728
-0.0205441
0.166613
-0.0185924
0.175779
-0.0172199
0.184351
-0.016114
0.192492
-0.0153562
0.200283
-0.014686
0.207662
-0.0139011
0.214192
-0.0120829
0.219604
-0.00981327
0.224095
-0.00800733
0.227662
-0.00619673
0.230357
-0.00455091
0.23221
-0.00296723
0.233295
-0.00148568
0.233753
-2.1426e-05
0.233648
0.00136749
0.232859
0.00276006
0.231317
0.00412649
0.228947
0.00566421
0.225506
0.00782123
0.22103
0.0110261
0.211064
0.0237793
0.191914
0.0397317
-0.239551
0.26114
-0.0621133
0.282772
-0.0651082
0.306039
-0.0639068
0.327201
-0.0578897
0.347165
-0.0550673
0.366159
-0.0489401
0.382885
-0.0418259
0.397773
-0.0363116
0.410376
-0.02898
0.421031
-0.0232211
0.429714
-0.0178022
0.43666
-0.0125245
0.441762
-0.0077577
0.445555
-0.00361827
0.447896
0.000826785
0.44945
0.00455015
0.449816
0.00888414
0.44929
0.0126417
0.447484
0.0174298
0.444287
0.0217596
0.439549
0.0269703
0.433067
0.0314651
0.42481
0.0357031
0.414899
0.0378043
0.403908
0.0368032
0.391955
0.0359642
0.37898
0.0362885
0.365176
0.0365634
0.350749
0.0371923
0.335807
0.0379801
0.320491
0.0388894
0.304811
0.0399869
0.288676
0.0415268
0.27187
0.0437926
0.253948
0.0475195
0.233819
0.0545565
0.21021
0.0666661
0.175206
0.100638
0.1261
0.108547
-0.217754
-0.0669031
-0.193685
-0.0713907
-0.164776
-0.0862821
-0.13456
-0.0925474
-0.102848
-0.0980709
-0.069763
-0.102537
-0.0369362
-0.102296
-0.00614986
-0.0968882
0.0224001
-0.0893481
0.0484284
-0.0805341
0.0716024
-0.0706107
0.0920872
-0.0614386
0.110169
-0.0534299
0.126115
-0.0462679
0.140241
-0.040491
0.152865
-0.035686
0.164248
-0.0319277
0.174656
-0.0290001
0.1843
-0.0268643
0.19335
-0.0251634
0.201992
-0.0239987
0.210252
-0.0229463
0.218053
-0.0217013
0.225105
-0.0191355
0.231132
-0.0158404
0.23623
-0.0131054
0.240458
-0.0104239
0.243847
-0.00793989
0.246462
-0.00558314
0.248296
-0.00331932
0.249412
-0.00113735
0.249815
0.000964526
0.24954
0.00303463
0.24853
0.00513644
0.246698
0.0074967
0.243681
0.010838
0.239096
0.0156115
0.229387
0.0334882
0.210941
0.058178
-0.230886
0.253613
-0.0848399
0.276301
-0.0877967
0.301166
-0.0887715
0.323788
-0.0805116
0.345596
-0.0768754
0.366377
-0.0697208
0.385362
-0.0608113
0.402323
-0.0532723
0.417507
-0.0441642
0.430701
-0.0364151
0.442014
-0.0291152
0.451472
-0.0219824
0.459127
-0.0154124
0.465018
-0.00950985
0.469406
-0.00356113
0.471893
0.00206334
0.472679
0.00809771
0.471556
0.0137653
0.468902
0.0200833
0.464612
0.0260502
0.458843
0.0327389
0.451835
0.0384729
0.443683
0.0438549
0.434852
0.046636
0.425718
0.0459371
0.416298
0.0453841
0.406192
0.046395
0.395239
0.0475158
0.38327
0.0491616
0.370136
0.0511144
0.355874
0.0531511
0.340512
0.0553485
0.324073
0.0579656
0.306427
0.0614391
0.287279
0.0666672
0.265593
0.0762424
0.240037
0.0922219
0.203544
0.137132
0.152724
0.159367
-0.208438
-0.0893514
-0.18427
-0.0955586
-0.154886
-0.115665
-0.12461
-0.122824
-0.0929196
-0.129761
-0.0598329
-0.135624
-0.0272483
-0.13488
0.00308773
-0.127224
0.030974
-0.117234
0.0564194
-0.10598
0.0791152
-0.0933065
0.0992766
-0.0816
0.117262
-0.0714152
0.133292
-0.0622978
0.147681
-0.0548807
0.16066
-0.048665
0.172495
-0.0437619
0.183366
-0.0398713
0.193501
-0.0369995
0.203044
-0.0347061
0.212108
-0.0330628
0.220765
-0.0316036
0.228966
-0.0299021
0.236406
-0.0265757
0.242848
-0.022282
0.248348
-0.0186051
0.252949
-0.0150255
0.256702
-0.0116923
0.259638
-0.00851963
0.261816
-0.00549677
0.263264
-0.00258623
0.264012
0.000217358
0.264067
0.00297953
0.263421
0.00578235
0.26197
0.00894755
0.259363
0.0134448
0.255059
0.0199156
0.245884
0.0426631
0.227678
0.0763836
-0.226224
0.249736
-0.108352
0.273284
-0.111344
0.299568
-0.115056
0.322946
-0.10389
0.345801
-0.0997305
0.367716
-0.0916359
0.387633
-0.0807278
0.405619
-0.071259
0.422011
-0.0605563
0.436131
-0.0505347
0.448383
-0.0413672
0.458712
-0.0323111
0.467425
-0.0241254
0.474172
-0.0162568
0.479117
-0.00850681
0.482332
-0.0011514
0.483981
0.00644868
0.484087
0.0136594
0.482391
0.0217793
0.479172
0.0292688
0.474291
0.0376204
0.467904
0.0448601
0.460264
0.0514944
0.451775
0.0551255
0.443
0.0547122
0.434122
0.0542612
0.424965
0.0555523
0.415423
0.0570584
0.405303
0.059281
0.394392
0.0620256
0.382404
0.0651387
0.369099
0.0686542
0.35427
0.0727941
0.337652
0.0780573
0.318844
0.0854755
0.296925
0.0981614
0.270405
0.118742
0.232832
0.174706
0.181399
0.210801
-0.202721
-0.112855
-0.17784
-0.120439
-0.147196
-0.14631
-0.116103
-0.153918
-0.0837267
-0.162137
-0.050074
-0.169277
-0.0170986
-0.167856
0.0132229
-0.157546
0.0408001
-0.144812
0.0658817
-0.131061
0.0881696
-0.115594
0.107972
-0.101403
0.125768
-0.0892111
0.141753
-0.078283
0.156232
-0.0693596
0.169463
-0.0618957
0.181614
-0.0559132
0.192862
-0.051119
0.203393
-0.0475304
0.213344
-0.0446575
0.222813
-0.0425311
0.23184
-0.0406314
0.2404
-0.0384615
0.248227
-0.0344029
0.255066
-0.0291212
0.260944
-0.0244834
0.265894
-0.0199753
0.269968
-0.0157658
0.273194
-0.0117457
0.275606
-0.00790902
0.277248
-0.0042281
0.278172
-0.00070671
0.278383
0.00276818
0.27785
0.00631568
0.276532
0.0102651
0.274066
0.0159109
0.269891
0.0240908
0.261246
0.0513077
0.243641
0.0939889
-0.222393
0.24693
-0.132888
0.27186
-0.136274
0.299548
-0.142744
0.32419
-0.128532
0.348106
-0.123646
0.371472
-0.115002
0.39242
-0.101676
0.411786
-0.0906247
0.429244
-0.078014
0.444697
-0.0659882
0.45837
-0.0550397
0.470068
-0.0440094
0.480038
-0.0340953
0.488255
-0.0244734
0.494569
-0.0148215
0.499314
-0.00589574
0.502084
0.00367807
0.502976
0.0127673
0.502127
0.022629
0.499369
0.0320267
0.494772
0.0422175
0.488578
0.0510539
0.480953
0.0591195
0.472332
0.063746
0.463238
0.0638068
0.453932
0.0635674
0.444364
0.0651197
0.434539
0.0668833
0.424438
0.0693822
0.41395
0.0725131
0.402949
0.0761397
0.391131
0.0804729
0.378146
0.0857788
0.363495
0.0927084
0.346506
0.102465
0.325935
0.118732
0.300102
0.144576
0.262674
0.212133
0.211289
0.262186
-0.197922
-0.137326
-0.172239
-0.146122
-0.140303
-0.178246
-0.108081
-0.18614
-0.0747332
-0.195484
-0.0402026
-0.203808
-0.00654981
-0.201508
0.0240578
-0.188153
0.0516404
-0.172394
0.0765642
-0.155985
0.0985739
-0.137604
0.118057
-0.120885
0.135604
-0.106759
0.151457
-0.0941361
0.165921
-0.0838235
0.17925
-0.0752248
0.191598
-0.0682614
0.203143
-0.0626634
0.214009
-0.0583964
0.224318
-0.0549671
0.234161
-0.0523738
0.243562
-0.0500321
0.252472
-0.047372
0.260712
-0.0426422
0.267958
-0.0363673
0.274197
-0.0307228
0.279512
-0.0252902
0.283899
-0.0201528
0.287406
-0.0152523
0.290062
-0.0105657
0.29191
-0.00607594
0.292976
-0.0017727
0.293275
0.00246918
0.29283
0.00676123
0.291503
0.0115916
0.289027
0.0183866
0.284752
0.028366
0.276376
0.0596838
0.25942
0.110945
-0.220067
0.24595
-0.158771
0.271901
-0.162226
0.301173
-0.172016
0.327115
-0.154474
0.352318
-0.148849
0.376776
-0.13946
0.398943
-0.123843
0.419188
-0.11087
0.437749
-0.0965755
0.454194
-0.0824324
0.468744
-0.0695898
0.481554
-0.0568193
0.492485
-0.0450263
0.501601
-0.0335897
0.508972
-0.0221923
0.514399
-0.0113226
0.51807
6.22631e-06
0.519896
0.0109418
0.519898
0.0226265
0.518017
0.033908
0.514301
0.0459338
0.508818
0.0565369
0.501906
0.0660312
0.493755
0.0718972
0.484884
0.0726779
0.475534
0.0729178
0.465716
0.0749368
0.455474
0.0771257
0.444895
0.0799608
0.433944
0.0834648
0.422611
0.0874723
0.410819
0.0922649
0.398372
0.0982256
0.384832
0.106248
0.369545
0.117753
0.351115
0.137161
0.327467
0.168223
0.292047
0.247554
0.241816
0.312417
-0.194379
-0.163015
-0.167583
-0.172918
-0.134208
-0.21162
-0.100687
-0.219661
-0.066159
-0.230012
-0.0304039
-0.239563
0.00418318
-0.236095
0.0354009
-0.219371
0.063286
-0.200279
0.0883101
-0.181009
0.110168
-0.159462
0.129415
-0.140133
0.146728
-0.124072
0.162394
-0.109802
0.176751
-0.0981808
0.19009
-0.088563
0.20256
-0.0807322
0.214302
-0.0744054
0.225441
-0.0695349
0.236064
-0.0655902
0.246237
-0.0625465
0.255975
-0.0597699
0.265255
-0.0566523
0.27384
-0.0512269
0.281496
-0.0440235
0.288145
-0.0373721
0.293807
-0.0309516
0.298529
-0.0248753
0.302316
-0.0190388
0.305227
-0.0134775
0.307268
-0.00811623
0.308496
-0.00300059
0.308924
0.00204063
0.308511
0.00717467
0.307212
0.0128899
0.304673
0.0209259
0.300244
0.0327949
0.291952
0.067976
0.275585
0.127312
-0.218556
0.245778
-0.185993
0.273184
-0.189631
0.304154
-0.202986
0.331302
-0.181622
0.357816
-0.175363
0.383551
-0.165195
0.406761
-0.147053
0.428272
-0.132381
0.447678
-0.115981
0.465109
-0.0998628
0.480773
-0.0852545
0.494499
-0.0705446
0.506367
-0.0568942
0.516497
-0.0437202
0.524819
-0.0305144
0.531289
-0.0177923
0.535934
-0.00463871
0.538706
0.00816962
0.539495
0.0218373
0.538326
0.0350766
0.535302
0.0489585
0.530429
0.0614092
0.523962
0.0724979
0.516263
0.0795968
0.507655
0.0812861
0.498394
0.0821785
0.48854
0.0847908
0.478101
0.087565
0.467128
0.0909339
0.455691
0.094901
0.443748
0.099416
0.431346
0.104666
0.418381
0.111191
0.404713
0.119916
0.389852
0.132614
0.372758
0.154256
0.351516
0.189465
0.319572
0.279497
0.27201
0.35998
-0.191641
-0.18993
-0.163694
-0.200865
-0.128599
-0.246715
-0.0935589
-0.254701
-0.0576142
-0.265957
-0.020504
-0.276673
0.0152703
-0.27187
0.0473192
-0.25142
0.0757137
-0.228674
0.100979
-0.206275
0.122864
-0.181346
0.141963
-0.159233
0.159077
-0.141185
0.174543
-0.125268
0.188757
-0.112394
0.202052
-0.101858
0.214548
-0.0932277
0.226414
-0.0862717
0.237744
-0.0808651
0.248623
-0.0764686
0.259076
-0.0729999
0.269143
-0.0698369
0.278763
-0.0662725
0.28773
-0.0601935
0.295773
-0.0520671
0.302808
-0.0444068
0.308844
-0.0369876
0.313909
-0.0299404
0.317998
-0.0231273
0.321152
-0.0166324
0.323421
-0.0103847
0.32481
-0.00438962
0.325353
0.00149751
0.325017
0.00751058
0.323701
0.0142058
0.321102
0.0235251
0.316536
0.0373604
0.308261
0.0762513
0.292484
0.143089
-0.218009
0.246594
-0.214578
0.275453
-0.21849
0.308123
-0.235656
0.336671
-0.210171
0.364677
-0.203369
0.391787
-0.192305
0.416243
-0.171509
0.438649
-0.154787
0.45921
-0.136543
0.477506
-0.118159
0.493908
-0.101657
0.508492
-0.0851278
0.52127
-0.0696728
0.532243
-0.0546931
0.541414
-0.0396858
0.548809
-0.0251873
0.554283
-0.0101123
0.557818
0.00463507
0.55939
0.0202646
0.558969
0.0354983
0.556644
0.0512831
0.552465
0.0655879
0.54661
0.0783531
0.539403
0.0868042
0.531172
0.0895172
0.52212
0.0912299
0.512302
0.0946091
0.501793
0.0980744
0.490655
0.102071
0.478883
0.106673
0.466491
0.111808
0.45349
0.117667
0.439833
0.124847
0.42541
0.13434
0.409986
0.148038
0.392856
0.171385
0.372887
0.209434
0.344594
0.30779
0.300663
0.403911
-0.189589
-0.21835
-0.160285
-0.230169
-0.123418
-0.283582
-0.0868351
-0.291284
-0.0492415
-0.30355
-0.0105557
-0.315359
0.0266842
-0.30911
0.059745
-0.284481
0.0888407
-0.257769
0.114548
-0.231982
0.136583
-0.203382
0.155659
-0.178309
0.172642
-0.158167
0.187933
-0.140559
0.201981
-0.126443
0.215154
-0.115031
0.227626
-0.1057
0.239543
-0.0981885
0.250998
-0.09232
0.262074
-0.087545
0.272799
-0.0837251
0.283139
-0.0801769
0.293073
-0.0762063
0.302405
-0.0695256
0.310854
-0.0605156
0.31826
-0.0518127
0.324672
-0.0433997
0.330061
-0.0353297
0.334473
-0.0275394
0.337906
-0.0200651
0.34039
-0.0128684
0.341965
-0.00596522
0.342622
0.000840661
0.34236
0.00777293
0.341074
0.0154917
0.338432
0.0261666
0.333714
0.0420787
0.32548
0.0844847
0.310294
0.158276
-0.217967
0.248177
-0.244788
0.27859
-0.248903
0.313163
-0.270229
0.34317
-0.240177
0.372458
-0.232657
0.401057
-0.220904
0.426698
-0.19715
0.450266
-0.178355
0.471835
-0.158111
0.491037
-0.13736
0.508328
-0.118948
0.523829
-0.10063
0.537347
-0.0831906
0.549073
-0.0664192
0.559152
-0.0497649
0.567286
-0.0333211
0.573581
-0.0164066
0.577889
0.000326859
0.580292
0.0178619
0.580678
0.0351115
0.578975
0.0529865
0.575454
0.0691087
0.570182
0.0836253
0.563478
0.093508
0.555597
0.0973987
0.546706
0.10012
0.536985
0.104331
0.526478
0.108581
0.515181
0.113368
0.503202
0.118653
0.49049
0.12452
0.477021
0.131136
0.462763
0.139105
0.447605
0.149498
0.431343
0.164299
0.413379
0.18935
0.393241
0.229572
0.367431
0.3336
0.32712
0.444222
-0.188189
-0.248127
-0.157417
-0.260941
-0.118585
-0.322414
-0.0801353
-0.329734
-0.0408783
-0.342807
-0.000347413
-0.35589
0.0384102
-0.347867
0.0726994
-0.31877
0.102669
-0.287739
0.128998
-0.25831
0.151325
-0.225709
0.170455
-0.197439
0.187384
-0.175096
0.202538
-0.155714
0.216422
-0.140327
0.229459
-0.128068
0.241854
-0.118094
0.253752
-0.110087
0.265297
-0.103865
0.276515
-0.0987634
0.287413
-0.0946232
0.298024
-0.0907871
0.308267
-0.0864497
0.31794
-0.0791989
0.326751
-0.0693258
0.334556
-0.0596177
0.341319
-0.0501634
0.347073
-0.0410832
0.351792
-0.0322586
0.355502
-0.0237753
0.358238
-0.0156043
0.359986
-0.00771291
0.360791
3.54056e-05
0.360616
0.0079479
0.359343
0.0167646
0.356647
0.0288625
0.351842
0.0468835
0.343675
0.0926518
0.329057
0.172894
-0.218632
0.250407
-0.276563
0.282394
-0.28089
0.318896
-0.306732
0.350599
-0.27188
0.381514
-0.263572
0.411589
-0.25098
0.438372
-0.223932
0.463188
-0.203171
0.485809
-0.180732
0.505974
-0.157525
0.524076
-0.137049
0.54023
-0.116784
0.55458
-0.097541
0.567189
-0.0790285
0.577881
-0.0604572
0.586825
-0.0422647
0.593869
-0.0234504
0.598992
-0.00479625
0.602078
0.014776
0.603155
0.0340347
0.602189
0.0539519
0.599257
0.0720413
0.594571
0.0883105
0.588381
0.0996986
0.580898
0.104882
0.572305
0.108713
0.56269
0.113946
0.552138
0.119133
0.540777
0.12473
0.528562
0.130868
0.515555
0.137526
0.501727
0.144964
0.486992
0.153841
0.471214
0.165276
0.454155
0.181358
0.435266
0.208239
0.41411
0.250729
0.389308
0.358402
0.351682
0.481848
-0.187168
-0.279592
-0.154894
-0.293215
-0.113984
-0.363324
-0.0736026
-0.370115
-0.0323683
-0.384041
0.0100137
-0.398272
0.0505271
-0.388381
0.0862061
-0.354449
0.11724
-0.318773
0.144258
-0.285329
0.167031
-0.248482
0.186346
-0.216754
0.203308
-0.192058
0.218358
-0.170763
0.232097
-0.154066
0.244992
-0.140963
0.257271
-0.130374
0.269134
-0.12195
0.280672
-0.115403
0.291975
-0.110067
0.303057
-0.105705
0.313882
-0.101612
0.324385
-0.0969532
0.334394
-0.0892074
0.343567
-0.0784991
0.351739
-0.0677893
0.358886
-0.0573112
0.364982
-0.0471792
0.370039
-0.0373151
0.374035
-0.0277717
0.376998
-0.018567
0.378968
-0.00968278
0.379911
-0.000907217
0.379832
0.00802687
0.378582
0.0180139
0.375871
0.0315739
0.370965
0.0517892
0.362881
0.100736
0.348894
0.186882
-0.219664
0.253248
-0.310147
0.286998
-0.31464
0.325538
-0.345273
0.358834
-0.305175
0.391362
-0.2961
0.423025
-0.282644
0.451332
-0.252239
0.477284
-0.229123
0.500987
-0.204435
0.522067
-0.178606
0.541089
-0.156072
0.558134
-0.133828
0.573117
-0.112524
0.586369
-0.0922802
0.597866
-0.0719545
0.607523
-0.0519222
0.615252
-0.0311786
0.621032
-0.0105771
0.624823
0.010985
0.62661
0.0322481
0.626337
0.0542248
0.624081
0.0742978
0.619986
0.0924055
0.614296
0.105389
0.607199
0.111978
0.598874
0.117038
0.589399
0.12342
0.578904
0.129628
0.567429
0.136205
0.555047
0.14325
0.541759
0.150815
0.527551
0.159172
0.51239
0.169002
0.496066
0.1816
0.478337
0.199087
0.458647
0.227929
0.436312
0.273064
0.411367
0.383347
0.3754
0.517815
-0.186567
-0.312689
-0.152555
-0.327227
-0.109517
-0.406362
-0.0670375
-0.412594
-0.0237597
-0.427319
0.0206659
-0.442697
0.0631237
-0.430838
0.100298
-0.391623
0.132496
-0.350971
0.160413
-0.313245
0.18375
-0.271819
0.203355
-0.236359
0.220383
-0.209085
0.235411
-0.185792
0.249037
-0.167691
0.261791
-0.153717
0.273934
-0.142517
0.285703
-0.133718
0.297232
-0.126932
0.308568
-0.121403
0.319749
-0.116885
0.330745
-0.112608
0.341518
-0.107726
0.351832
-0.0995216
0.361352
-0.0880193
0.369889
-0.0763257
0.377391
-0.0648134
0.383852
-0.0536404
0.389214
-0.0426773
0.393517
-0.0320748
0.396742
-0.0217915
0.398908
-0.0118492
0.400026
-0.00202478
0.40003
0.00802232
0.398831
0.0192136
0.396094
0.0343109
0.391116
0.0567666
0.383182
0.108671
0.369846
0.200218
-0.221264
0.256543
-0.345426
0.292156
-0.350252
0.332855
-0.385971
0.368011
-0.340331
0.402292
-0.330382
0.435593
-0.315944
0.46532
-0.281966
0.492615
-0.256418
0.517378
-0.229198
0.539454
-0.200682
0.559319
-0.175938
0.577113
-0.151621
0.592941
-0.128353
0.60692
-0.106259
0.619053
-0.0840871
0.629326
-0.0621954
0.637751
-0.039603
0.644247
-0.0170732
0.648716
0.00651515
0.65109
0.0298745
0.651464
0.0538513
0.649801
0.0759599
0.64628
0.0959268
0.641146
0.110523
0.634545
0.118579
0.626512
0.125071
0.617233
0.1327
0.606775
0.140085
0.595236
0.147744
0.582694
0.155792
0.569154
0.164355
0.554592
0.173734
0.538961
0.184634
0.5221
0.19846
0.503749
0.217437
0.483364
0.248315
0.460063
0.296365
0.434461
0.408948
0.399404
0.552873
-0.186231
-0.347722
-0.150573
-0.362885
-0.105159
-0.451776
-0.0604953
-0.457258
-0.0149573
-0.472857
0.0317453
-0.4894
0.076155
-0.475248
0.115038
-0.430506
0.148535
-0.384468
0.177454
-0.342164
0.201449
-0.295814
0.221436
-0.256346
0.238676
-0.226325
0.253728
-0.200844
0.267281
-0.181244
0.279913
-0.166349
0.291919
-0.154524
0.303568
-0.145367
0.315019
-0.138383
0.326363
-0.132747
0.337606
-0.128128
0.348754
-0.123757
0.359729
-0.118701
0.370336
-0.110129
0.380179
-0.0978624
0.389064
-0.0852106
0.396923
-0.0726722
0.40371
-0.0604282
0.409417
-0.0483836
0.414021
-0.0366787
0.417516
-0.0252872
0.419916
-0.0142488
0.421195
-0.00330356
0.421321
0.00789566
0.420161
0.0203743
0.417439
0.0370326
0.412419
0.0617863
0.404598
0.116492
0.391967
0.212849
-0.223143
0.260369
-0.382651
0.297949
-0.387832
0.340947
-0.428969
0.377991
-0.377375
0.414049
-0.36644
0.449105
-0.351
0.480381
-0.313242
0.508984
-0.28502
0.534985
-0.255199
0.55806
-0.223756
0.578904
-0.196782
0.597492
-0.170209
0.614043
-0.144904
0.628712
-0.120928
0.641401
-0.0967757
0.65238
-0.0731744
0.661446
-0.0486695
0.668559
-0.0241859
0.673694
0.00138042
0.676755
0.0268136
0.677727
0.0528795
0.676691
0.076996
0.673755
0.0988619
0.669134
0.115144
0.662956
0.124758
0.655249
0.132778
0.646196
0.141752
0.635849
0.150433
0.62428
0.159313
0.61159
0.168482
0.597789
0.178156
0.582887
0.188635
0.566792
0.200729
0.549415
0.215836
0.530443
0.23641
0.509397
0.269361
0.48525
0.320512
0.458956
0.435242
0.424462
0.587367
-0.186344
-0.384521
-0.14862
-0.400609
-0.100834
-0.499562
-0.0537847
-0.504307
-0.00593739
-0.520705
0.0431008
-0.538438
0.0897876
-0.521935
0.130455
-0.471174
0.165432
-0.419445
0.195454
-0.372186
0.220231
-0.320591
0.240684
-0.276799
0.258182
-0.243823
0.27332
-0.215982
0.286825
-0.194749
0.299364
-0.178889
0.311249
-0.166409
0.322758
-0.156876
0.334117
-0.149743
0.345426
-0.144055
0.3567
-0.139403
0.36794
-0.134997
0.37911
-0.12987
0.389969
-0.120988
0.400111
-0.108005
0.409324
-0.0944239
0.417526
-0.0808743
0.42467
-0.0675719
0.430707
-0.0544209
0.435617
-0.0415881
0.43938
-0.0290508
0.441999
-0.0168674
0.443466
-0.00477039
0.443715
0.00764618
0.442619
0.0214702
0.439908
0.0397442
0.434879
0.0668147
0.42726
0.124111
0.415319
0.22479
-0.225381
0.264721
-0.421991
0.304318
-0.42743
0.349729
-0.474379
0.388721
-0.416368
0.426706
-0.404425
0.46372
-0.388014
0.496512
-0.346034
0.52656
-0.315068
0.553925
-0.282564
0.578103
-0.247934
0.599833
-0.218512
0.619278
-0.189654
0.636462
-0.162088
0.65182
-0.136287
0.665283
-0.110239
0.676842
-0.0847335
0.68653
-0.0583567
0.694233
-0.0318896
0.699866
-0.00425182
0.703515
0.0231644
0.705119
0.0512753
0.704617
0.0774978
0.70225
0.101229
0.698163
0.119232
0.692461
0.13046
0.685161
0.140078
0.676313
0.1506
0.666092
0.160654
0.654566
0.170839
0.641762
0.181285
0.627746
0.192173
0.612495
0.203886
0.595999
0.217226
0.578079
0.233756
0.558458
0.25603
0.536744
0.291076
0.511907
0.345349
0.484937
0.462212
0.450962
0.621342
-0.186578
-0.423324
-0.146991
-0.440196
-0.0965305
-0.550023
-0.046996
-0.553842
0.00335034
-0.571051
0.0549687
-0.590056
0.103947
-0.570913
0.146611
-0.513838
0.183108
-0.455942
0.214402
-0.40348
0.240031
-0.34622
0.261082
-0.29785
0.278928
-0.261669
0.294218
-0.231271
0.307755
-0.208287
0.320207
-0.19134
0.331965
-0.178167
0.343363
-0.168274
0.354607
-0.160987
0.365836
-0.155284
0.3771
-0.150667
0.388422
-0.146319
0.399741
-0.141189
0.410823
-0.13207
0.421258
-0.11844
0.430778
-0.103944
0.439308
-0.0894041
0.446774
-0.0750376
0.453139
-0.0607865
0.458344
-0.0467931
0.462393
-0.0330998
0.465267
-0.0197406
0.466908
-0.00641154
0.467307
0.00724705
0.466294
0.0224827
0.463611
0.0424271
0.458604
0.0718221
0.451157
0.131558
0.439963
0.235984
-0.228036
0.269535
-0.463491
0.311257
-0.469153
0.359175
-0.522296
0.400227
-0.45742
0.440333
-0.444531
0.479294
-0.426975
0.513787
-0.380527
0.545388
-0.346669
0.57404
-0.311216
0.59931
-0.273204
0.622033
-0.241235
0.642357
-0.209977
0.660427
-0.180159
0.676419
-0.152279
0.690478
-0.124298
0.702632
-0.0968874
0.712882
-0.0686072
0.721157
-0.040164
0.72746
-0.0105553
0.731642
0.0189822
0.733754
0.0491636
0.733854
0.0773977
0.731998
0.103085
0.728419
0.122811
0.723161
0.135717
0.716236
0.147003
0.707693
0.159144
0.697631
0.170715
0.68613
0.18234
0.673248
0.194167
0.659049
0.206373
0.64351
0.219424
0.626572
0.234164
0.608128
0.252201
0.587902
0.276256
0.565533
0.313445
0.540004
0.370878
0.512455
0.489761
0.479013
0.654784
-0.187061
-0.464299
-0.145322
-0.481935
-0.0921619
-0.603183
-0.0399899
-0.606014
0.0130051
-0.624046
0.0673184
-0.64437
0.118808
-0.622403
0.163553
-0.558583
0.201764
-0.494153
0.234389
-0.436105
0.261015
-0.372846
0.28271
-0.319545
0.300956
-0.279915
0.316479
-0.246794
0.330069
-0.221877
0.342502
-0.203773
0.35415
-0.189815
0.365417
-0.179541
0.376539
-0.172108
0.387683
-0.166428
0.398908
-0.161892
0.410253
-0.157664
0.421697
-0.152632
0.432997
-0.14337
0.443677
-0.12912
0.453478
-0.113744
0.462316
-0.0982423
0.470103
-0.082825
0.47679
-0.0674734
0.482314
-0.052317
0.486643
-0.0374288
0.489741
-0.0228387
0.491607
-0.00827694
0.492144
0.00670951
0.491231
0.0233965
0.488601
0.0450567
0.483633
0.0767903
0.476421
0.13877
0.466005
0.2464
-0.230934
0.274647
-0.507203
0.318701
-0.513207
0.3693
-0.572896
0.412581
-0.500701
0.454845
-0.486795
0.495826
-0.467956
0.532172
-0.416873
0.565379
-0.379876
0.595399
-0.341237
0.621898
-0.299702
0.645759
-0.265096
0.666932
-0.231151
0.685766
-0.198992
0.702493
-0.169005
0.717154
-0.138959
0.729917
-0.109651
0.740715
-0.0794054
0.749566
-0.0490151
0.756348
-0.0173376
0.761106
0.0142249
0.763734
0.0465352
0.764316
0.076816
0.763005
0.104396
0.759914
0.125902
0.755148
0.140483
0.748596
0.153556
0.74034
0.167399
0.730468
0.180587
0.719027
0.193781
0.70612
0.207074
0.691754
0.220738
0.675942
0.235236
0.658622
0.251484
0.639675
0.271148
0.618867
0.297064
0.595796
0.336515
0.569641
0.397033
0.541576
0.517826
0.50865
0.68771
-0.187737
-0.507496
-0.14379
-0.525882
-0.0877576
-0.659215
-0.0327408
-0.661031
0.0230313
-0.679818
0.0801596
-0.701498
0.134376
-0.676619
0.181312
-0.605519
0.221372
-0.534214
0.255443
-0.470176
0.283123
-0.400526
0.305554
-0.341976
0.324322
-0.298682
0.340113
-0.262586
0.353829
-0.235593
0.366272
-0.216216
0.377857
-0.2014
0.389006
-0.19069
0.400002
-0.183104
0.41103
-0.177457
0.422201
-0.173063
0.433551
-0.169014
0.445086
-0.164167
0.456549
-0.154833
0.467447
-0.140019
0.477524
-0.12382
0.486648
-0.107366
0.494753
-0.0909304
0.501739
-0.07446
0.507568
-0.0581455
0.512178
-0.0420388
0.515546
-0.0262069
0.517609
-0.0103394
0.518299
0.00601869
0.517506
0.0241895
0.514941
0.0476219
0.510075
0.0816565
0.503091
0.145753
0.493433
0.256059
-0.234202
0.280316
-0.553317
0.326812
-0.559703
0.38008
-0.626164
0.425833
-0.546454
0.470244
-0.531206
0.513495
-0.511207
0.551675
-0.455054
0.586588
-0.414788
0.618144
-0.372793
0.645945
-0.327504
0.670772
-0.289923
0.692983
-0.253361
0.712573
-0.218583
0.730016
-0.186448
0.745416
-0.154359
0.758719
-0.122954
0.770105
-0.0907906
0.779466
-0.0583766
0.786815
-0.0246862
0.792033
0.00900651
0.795145
0.0434227
0.796265
0.0756968
0.795382
0.105279
0.792766
0.128517
0.788423
0.144827
0.78226
0.159719
0.774329
0.17533
0.764674
0.190242
0.753377
0.205077
0.740445
0.220007
0.725949
0.235234
0.70988
0.251305
0.692193
0.269171
0.672787
0.290554
0.651364
0.318487
0.62768
0.360199
0.600891
0.423822
0.572298
0.54642
0.53992
0.720087
-0.188665
-0.553033
-0.142332
-0.572215
-0.0832094
-0.718337
-0.0252823
-0.718958
0.0334962
-0.738597
0.0936451
-0.761647
0.150608
-0.733582
0.199996
-0.654907
0.241972
-0.57619
0.277648
-0.505852
0.306498
-0.429376
0.329764
-0.365242
0.349086
-0.318004
0.365224
-0.278724
0.379115
-0.249483
0.391589
-0.22869
0.403149
-0.212959
0.414186
-0.201727
0.425055
-0.193974
0.43597
-0.188371
0.44706
-0.184153
0.458389
-0.180344
0.469992
-0.17577
0.481601
-0.166441
0.492704
-0.151123
0.503006
-0.134122
0.512391
-0.116751
0.520771
-0.0993101
0.528069
-0.0817582
0.534183
-0.0642599
0.539087
-0.0469427
0.542694
-0.0298133
0.54499
-0.0126356
0.545873
0.00513508
0.54518
0.0248827
0.542744
0.050058
0.537973
0.0864273
0.531293
0.152433
0.52241
0.264942
-0.237735
0.286377
-0.601959
0.335334
-0.60866
0.391676
-0.682506
0.439718
-0.594496
0.486654
-0.578142
0.532154
-0.556707
0.57244
-0.49534
0.609063
-0.451411
0.642191
-0.405921
0.67131
-0.356623
0.697413
-0.316026
0.720538
-0.276486
0.741069
-0.239114
0.759261
-0.204639
0.775287
-0.170385
0.789212
-0.136879
0.801116
-0.102695
0.810964
-0.0682247
0.818753
-0.0324752
0.82446
0.0033002
0.82808
0.0398018
0.829581
0.0741958
0.82916
0.1057
0.827012
0.130665
0.823097
0.148742
0.817363
0.165452
0.809752
0.182941
0.800317
0.199677
0.789126
0.216268
0.776239
0.232894
0.76165
0.249823
0.745361
0.267593
0.727342
0.28719
0.70748
0.310416
0.685533
0.340433
0.661225
0.384508
0.633842
0.451204
0.604767
0.575494
0.572894
0.751961
-0.189731
-0.601037
-0.140892
-0.621054
-0.0785473
-0.780682
-0.0175508
-0.779954
0.0443797
-0.800527
0.107729
-0.824997
0.167717
-0.79357
0.219591
-0.706781
0.263656
-0.620255
0.301
-0.543196
0.331129
-0.459505
0.355314
-0.389428
0.375268
-0.337958
0.391828
-0.295283
0.405949
-0.263605
0.418521
-0.241262
0.430058
-0.224496
0.441026
-0.212695
0.451778
-0.204727
0.462594
-0.199186
0.473577
-0.195136
0.484882
-0.191649
0.496517
-0.187404
0.50824
-0.178164
0.51952
-0.162402
0.530016
-0.144618
0.539659
-0.126394
0.548304
-0.107955
0.555862
-0.0893165
0.56229
-0.0706875
0.56746
-0.0521131
0.571334
-0.0336867
0.573833
-0.0151354
0.5749
0.00406818
0.574379
0.0254035
0.572048
0.0523896
0.567452
0.0910232
0.561051
0.158834
0.552959
0.273034
-0.241597
0.292851
-0.653212
0.344477
-0.660286
0.40386
-0.74189
0.454626
-0.645261
0.503987
-0.627503
0.552011
-0.604731
0.594291
-0.537619
0.63286
-0.48998
0.66767
-0.440731
0.698264
-0.387218
0.725526
-0.343289
0.749797
-0.300757
0.771197
-0.260513
0.790176
-0.223619
0.806837
-0.187046
0.8214
-0.151443
0.833811
-0.115106
0.844148
-0.0785616
0.852452
-0.0407786
0.85857
-0.00281793
0.862584
0.0357879
0.864525
0.0722546
0.864515
0.10571
0.862778
0.132402
0.859292
0.152229
0.853917
0.170827
0.846629
0.190229
0.837486
0.208821
0.826462
0.227291