/*--------------------------------*- C++ -*----------------------------------*\
| =========                 |                                                 |
| \\      /  F ield         | OpenFOAM: The Open Source CFD Toolbox           |
|  \\    /   O peration     | Version:  3.0.0                                 |
|   \\  /    A nd           | Web:      www.OpenFOAM.org                      |
|    \\/     M anipulation  |                                                 |
\*---------------------------------------------------------------------------*/
FoamFile
{
    version     2.0;
    format      ascii;
    class       volVectorField;
    location    "300";
    object      U;
}
// * * * * * * * * * * * * * * * * * * * * * * * * * * * * * * * * * * * * * //

dimensions      [0 1 -1 0 0 0 0];

internalField   nonuniform List<vector> 
10720
(
(-0.197678 31.7242 4.74306e-18)
(1.83483 33.9725 -4.43608e-18)
(4.315 36.1062 0)
(7.11223 37.6739 -3.09884e-16)
(10.1547 38.789 3.41273e-16)
(13.3692 39.4177 2.48004e-16)
(16.5902 39.4583 3.79556e-16)
(19.7233 38.9623 0)
(22.6896 38.0041 0)
(25.4119 36.6233 0)
(27.8677 34.9316 1.2548e-16)
(30.0141 32.9514 0)
(31.8489 30.7336 2.01585e-15)
(33.3898 28.3451 0)
(34.632 25.8218 0)
(35.5913 23.2216 0)
(36.2578 20.5707 -3.29401e-15)
(36.6371 17.924 -4.93858e-15)
(36.7104 15.3044 4.34134e-15)
(36.4885 12.7686 0)
(35.9515 10.3471 3.41026e-15)
(35.1352 8.10706 -6.54027e-15)
(34.0863 6.09349 3.16442e-15)
(32.915 4.36269 -9.33126e-17)
(31.823 2.95635 0)
(30.8952 1.81757 1.08837e-15)
(30.0315 0.855886 1.6383e-17)
(29.1306 0.0291436 -4.14554e-16)
(28.155 -0.685031 -1.35997e-15)
(27.1014 -1.30051 -4.3164e-15)
(25.973 -1.82293 1.55882e-15)
(24.7722 -2.25477 2.01593e-15)
(23.4957 -2.59624 8.01428e-16)
(22.1328 -2.84721 -1.93865e-15)
(20.6315 -3.00213 3.66291e-15)
(18.9532 -3.05828 4.09936e-17)
(16.7743 -2.95815 -9.53256e-17)
(14.2547 -2.69911 -6.16724e-14)
(8.61358 -2.10668 9.2854e-14)
(-1.85712 29.2823 -5.48836e-18)
(-3.26425 26.4877 -2.29747e-17)
(-4.34987 23.3042 7.79001e-17)
(-4.96559 19.5426 -2.17933e-16)
(-4.94728 15.6203 -6.35013e-16)
(-4.23311 11.6528 1.02223e-15)
(-2.83872 7.89044 4.66446e-15)
(-0.921112 4.63394 2.63098e-15)
(1.20987 2.06178 0)
(3.35948 -0.0848281 0)
(5.63268 -1.84741 4.50324e-15)
(7.84667 -3.10347 1.6333e-15)
(9.84561 -3.89696 -2.66911e-15)
(11.6027 -4.3525 2.23921e-15)
(13.1471 -4.58408 3.82956e-15)
(14.5134 -4.66373 2.54303e-15)
(15.7293 -4.64379 3.40345e-15)
(16.8249 -4.55767 2.38004e-15)
(17.8311 -4.42897 0)
(18.7712 -4.26398 0)
(19.6641 -4.06646 -4.06846e-15)
(20.5217 -3.82806 -2.24112e-16)
(21.3474 -3.53502 3.55512e-15)
(22.1129 -3.1581 -3.02895e-15)
(22.755 -2.69231 2.26273e-17)
(23.2552 -2.17407 0)
(23.6377 -1.62927 1.20098e-15)
(23.9182 -1.07397 0)
(24.1019 -0.519416 0)
(24.1933 0.0232167 1.04264e-15)
(24.1841 0.544039 0)
(24.0649 1.03607 -3.98045e-15)
(23.8502 1.49398 -7.68042e-15)
(23.5578 1.9129 -3.82471e-14)
(23.187 2.28912 1.53501e-14)
(22.7326 2.62324 -5.97703e-17)
(22.0762 2.90816 0)
(21.1633 3.10752 3.33226e-14)
(18.4877 3.27675 3.83247e-14)
(7.2996 27.6468 -1.67771e-17)
(9.43936 29.3646 1.14305e-17)
(12.0098 30.8804 0)
(14.932 32.0887 0)
(18.036 32.9371 -9.36373e-17)
(21.3264 33.3662 -2.37849e-16)
(24.6774 33.336 0)
(27.9458 32.8788 0)
(31.0748 32.0117 5.01233e-16)
(33.9767 30.7965 0)
(36.5893 29.2909 1.96428e-15)
(38.9189 27.6176 0)
(40.9539 25.8106 7.02787e-16)
(42.6892 23.8861 -6.93315e-16)
(44.097 21.8743 1.37507e-15)
(45.166 19.7981 -2.74543e-15)
(45.9017 17.6704 2.99301e-15)
(46.2979 15.5192 2.66369e-15)
(46.3594 13.3568 2.58654e-15)
(46.0755 11.219 1.54902e-16)
(45.4521 9.13545 -2.66707e-15)
(44.488 7.16523 2.47218e-15)
(43.2151 5.35246 -1.3697e-16)
(41.6762 3.75742 0)
(39.9887 2.43112 0)
(38.3037 1.31757 0)
(36.6758 0.336685 8.27106e-17)
(35.0916 -0.523944 -1.64212e-17)
(33.5473 -1.26902 9.83157e-16)
(32.0338 -1.90683 3.68448e-17)
(30.5323 -2.44142 -2.90821e-17)
(29.0226 -2.87609 -5.28925e-17)
(27.4842 -3.21355 5.08051e-16)
(25.8998 -3.45615 6.65405e-16)
(24.2243 -3.60298 2.61387e-17)
(22.4362 -3.65406 8.68808e-15)
(20.2528 -3.56364 0)
(17.9144 -3.33725 1.73199e-14)
(12.3089 -2.52632 4.86589e-14)
(5.45335 25.7932 2.29636e-17)
(3.81358 23.7081 -7.47756e-17)
(2.3062 21.2434 -7.98042e-16)
(1.08417 18.4081 9.25561e-16)
(0.33008 15.2923 0)
(0.139146 12.0218 -1.74317e-15)
(0.562958 8.77936 -1.19229e-15)
(1.5644 5.82065 -9.6445e-15)
(2.99034 3.29939 4.0467e-15)
(4.67255 1.1557 -3.61413e-15)
(6.51785 -0.543683 4.39259e-15)
(8.39724 -1.74338 -1.2427e-15)
(10.1911 -2.53115 0)
(11.8457 -3.02327 -9.02634e-16)
(13.3513 -3.31307 4.64632e-17)
(14.7171 -3.45769 -2.16679e-15)
(15.9546 -3.50484 0)
(17.0832 -3.48452 0)
(18.1256 -3.41866 -2.65489e-16)
(19.1036 -3.30866 2.53802e-16)
(20.0327 -3.15524 -3.38202e-15)
(20.9254 -2.94432 -4.08425e-16)
(21.7839 -2.65792 1.9084e-16)
(22.5866 -2.26131 2.70369e-15)
(23.2815 -1.76684 -2.52505e-15)
(23.8445 -1.23898 -2.22281e-15)
(24.2906 -0.705929 0)
(24.6317 -0.179014 0)
(24.8722 0.335194 0)
(25.0122 0.828279 8.35662e-18)
(25.0696 1.29244 0)
(25.0622 1.7223 0)
(24.9833 2.11698 1.3123e-14)
(24.824 2.47576 1.27728e-14)
(24.5733 2.80039 -1.25587e-14)
(24.2388 3.09646 1.24926e-14)
(23.7207 3.36273 -2.48775e-14)
(23.2143 3.59639 -2.5236e-14)
(21.2378 3.65926 -2.65963e-14)
(8.19837 25.4199 -4.62441e-18)
(9.75644 26.9315 -4.85338e-17)
(11.623 28.3773 3.5646e-17)
(13.7419 29.6833 7.21941e-18)
(16.0477 30.7273 -8.55806e-17)
(18.5403 31.4837 3.48229e-16)
(21.1392 31.9165 -2.58304e-16)
(23.7633 31.9919 -3.26836e-16)
(26.3558 31.7119 1.99784e-19)
(28.8586 31.0938 -4.87418e-16)
(31.2204 30.1594 4.20782e-16)
(33.412 28.9365 -1.23056e-15)
(35.411 27.4632 -5.66611e-16)
(37.2019 25.778 0)
(38.7963 23.9081 -1.42531e-15)
(40.199 21.8845 2.83878e-15)
(41.4005 19.7367 0)
(42.376 17.5099 -5.25241e-15)
(43.1137 15.2337 -2.62077e-15)
(43.5833 12.9595 2.96255e-16)
(43.7707 10.7242 -2.93959e-16)
(43.6532 8.59433 -1.26998e-16)
(43.2321 6.61845 -1.76148e-15)
(42.5169 4.85753 8.53507e-16)
(41.5649 3.35689 0)
(40.4604 2.06044 6.75313e-16)
(39.2302 0.898631 -7.58778e-17)
(37.8742 -0.129496 0)
(36.4146 -1.02175 8.3114e-16)
(34.8814 -1.78362 1.35713e-15)
(33.2956 -2.41917 -1.92987e-15)
(31.6693 -2.93339 -1.18112e-15)
(30.0021 -3.332 -4.50077e-17)
(28.2866 -3.61987 6.64997e-16)
(26.4823 -3.79857 2.19936e-15)
(24.5678 -3.86647 -7.4299e-15)
(22.281 -3.78624 0)
(19.8634 -3.51934 1.39452e-14)
(14.6853 -2.79713 -7.23626e-14)
(6.89794 23.8068 -2.89188e-17)
(5.73299 22.0197 -8.59157e-17)
(4.71254 19.8915 3.3419e-16)
(3.84238 17.4831 0)
(3.2822 14.873 5.64885e-16)
(3.08638 12.1203 0)
(3.29972 9.34196 3.63883e-15)
(3.91934 6.72378 2.41286e-15)
(4.89099 4.39305 2.75595e-15)
(6.14712 2.36638 0)
(7.60213 0.700301 -4.29921e-15)
(9.1383 -0.584368 -9.47851e-16)
(10.6624 -1.53664 4.30952e-15)
(12.1186 -2.22194 0)
(13.4831 -2.69634 -2.13608e-15)
(14.751 -3.00555 -6.58693e-16)
(15.9244 -3.18998 2.92769e-15)
(17.0129 -3.27952 1.60322e-15)
(18.0315 -3.29597 4.81297e-16)
(18.9962 -3.24777 -2.43019e-16)
(19.9191 -3.13968 3.08421e-15)
(20.8092 -2.96535 0)
(21.6671 -2.713 0)
(22.4745 -2.36215 2.16568e-17)
(23.1895 -1.92567 0)
(23.7889 -1.45033 4.43694e-15)
(24.2825 -0.955467 -6.57705e-17)
(24.6811 -0.449331 -4.88766e-16)
(24.9883 0.0599795 0)
(25.2057 0.562183 -8.93054e-16)
(25.3374 1.04828 1.74919e-15)
(25.3892 1.51253 0)
(25.3642 1.94985 -6.58716e-15)
(25.2641 2.35499 0)
(25.0782 2.72593 0)
(24.8074 3.0634 3.88163e-17)
(24.343 3.36741 3.57265e-17)
(23.8108 3.59923 2.526e-14)
(22.047 3.66709 5.1576e-14)
(10.8913 23.2748 -2.55514e-17)
(12.3369 24.5654 -3.5498e-17)
(14.0444 25.8005 4.72673e-17)
(15.9842 26.9052 4.32207e-17)
(18.0981 27.7883 0)
(20.3917 28.4296 0)
(22.8021 28.7886 -3.58207e-16)
(25.2623 28.8341 5.19704e-16)
(27.7227 28.5621 0)
(30.1255 27.9802 -6.9239e-16)
(32.4182 27.1066 -9.84196e-16)
(34.5612 25.9705 -8.95605e-16)
(36.5207 24.6096 1.1404e-15)
(38.2745 23.0587 1.04191e-15)
(39.8044 21.3521 0)
(41.0839 19.5311 1.64929e-15)
(42.0948 17.632 5.77997e-16)
(42.8382 15.6817 4.64514e-15)
(43.3169 13.7058 2.76971e-16)
(43.5385 11.7343 -2.75144e-16)
(43.5128 9.79921 2.25139e-15)
(43.2548 7.94595 -3.651e-16)
(42.791 6.21527 1.93955e-15)
(42.1542 4.65183 7.54787e-16)
(41.3957 3.28739 -4.25833e-17)
(40.5692 2.0837 -6.09136e-16)
(39.6751 0.985209 4.04874e-18)
(38.6785 -0.0122225 -4.06142e-18)
(37.5607 -0.904376 -7.91719e-16)
(36.318 -1.69111 -1.64469e-17)
(34.9519 -2.3683 9.24368e-16)
(33.4702 -2.93182 -1.06161e-15)
(31.8806 -3.37955 -3.68644e-16)
(30.1896 -3.71063 5.13655e-17)
(28.3726 -3.92338 -1.98776e-15)
(26.4173 -4.01134 0)
(24.0867 -3.94202 -9.40028e-15)
(21.583 -3.62958 -1.21053e-14)
(16.6687 -2.95773 2.9925e-14)
(9.65157 21.9097 -4.24428e-17)
(8.51642 20.4113 1.34748e-16)
(7.48268 18.6282 5.12725e-16)
(6.57553 16.5918 0)
(5.93261 14.3725 -5.11683e-16)
(5.5961 12.0093 0)
(5.60378 9.59364 -3.07407e-15)
(5.9596 7.28191 -1.03397e-16)
(6.62247 5.16736 2.06824e-15)
(7.5499 3.27443 1.86769e-15)
(8.67856 1.66287 4.44411e-17)
(9.92127 0.36072 3.18217e-15)
(11.2077 -0.652735 -2.17266e-15)
(12.4846 -1.41683 6.86158e-16)
(13.7193 -1.97217 2.47665e-15)
(14.8962 -2.35875 2.84799e-15)
(16.0083 -2.61171 -2.65013e-15)
(17.0561 -2.76009 2.36362e-18)
(18.0467 -2.82587 0)
(18.9905 -2.82079 3.2936e-15)
(19.896 -2.75016 1.8395e-16)
(20.7691 -2.61054 -2.95046e-15)
(21.6095 -2.39273 0)
(22.4013 -2.08148 2.02035e-17)
(23.1095 -1.68411 0)
(23.7114 -1.238 -2.0164e-15)
(24.212 -0.765679 0)
(24.6211 -0.279186 4.57972e-16)
(24.9424 0.211174 -2.02806e-17)
(25.1783 0.694696 1.32837e-17)
(25.333 1.16249 -1.57599e-15)
(25.4119 1.6071 -5.03429e-17)
(25.4186 2.02345 0)
(25.3558 2.40862 6.07614e-15)
(25.2149 2.76277 9.50279e-17)
(24.9966 3.08622 -1.20917e-14)
(24.5989 3.38097 4.88289e-14)
(24.1161 3.58164 9.25883e-17)
(22.5315 3.6409 0)
(12.3976 21.6392 -3.75642e-17)
(13.6218 22.7853 -2.9073e-17)
(15.0776 23.9065 9.40121e-17)
(16.724 24.9396 -2.33318e-16)
(18.5113 25.8003 3.8774e-17)
(20.462 26.4809 -1.10373e-17)
(22.5237 26.9433 1.38085e-16)
(24.6444 27.1531 0)
(26.7921 27.1012 6.89785e-16)
(28.9181 26.7833 3.97507e-16)
(30.9803 26.2028 0)
(32.9443 25.3729 8.63959e-16)
(34.7773 24.313 -4.58939e-16)
(36.4539 23.0439 1.2281e-15)
(37.9526 21.5873 0)
(39.2552 19.9655 -2.19508e-15)
(40.3561 18.1931 2.00206e-15)
(41.2383 16.3036 -1.74742e-16)
(41.8863 14.3335 0)
(42.2861 12.329 2.13513e-15)
(42.4306 10.3363 -2.16439e-15)
(42.3222 8.41298 -1.05663e-16)
(41.9818 6.61113 -1.56881e-15)
(41.4479 4.98095 -1.414e-15)
(40.7812 3.55644 0)
(40.0481 2.30839 0)
(39.2721 1.18323 -1.27647e-16)
(38.4387 0.166747 -1.26686e-17)
(37.5345 -0.743105 7.29639e-16)
(36.5489 -1.55089 -1.53518e-17)
(35.4648 -2.25647 1.53089e-17)
(34.2633 -2.85654 9.91104e-16)
(32.9262 -3.34685 0)
(31.4408 -3.72229 -1.349e-15)
(29.776 -3.97635 9.89843e-18)
(27.9212 -4.09559 0)
(25.6619 -4.04868 -2.77172e-17)
(23.1712 -3.71089 0)
(18.4692 -3.05734 -2.59561e-14)
(11.3438 20.4339 5.73003e-17)
(10.3782 19.1243 -2.95495e-16)
(9.47803 17.566 3.17629e-16)
(8.65831 15.7908 4.36411e-16)
(8.04184 13.8641 -1.77172e-15)
(7.66022 11.8033 -2.17589e-15)
(7.55099 9.6793 2.63323e-15)
(7.7293 7.62235 -3.20047e-15)
(8.17299 5.70648 -1.60442e-15)
(8.85669 3.95985 -1.45922e-15)
(9.73146 2.43622 2.79816e-15)
(10.7336 1.16241 -2.70453e-15)
(11.8099 0.128926 -1.24209e-15)
(12.9142 -0.687989 1.2031e-15)
(14.0129 -1.31377 -2.76561e-15)
(15.0862 -1.77848 5.15684e-16)
(16.1218 -2.1089 0)
(17.1143 -2.3287 -2.21289e-15)
(18.0649 -2.45672 8.22496e-16)
(18.9784 -2.50508 -3.4171e-15)
(19.86 -2.47949 0)
(20.7126 -2.37881 2.55744e-15)
(21.5342 -2.19681 2.21899e-15)
(22.3106 -1.92372 -2.02777e-15)
(23.0115 -1.56555 0)
(23.6147 -1.1534 -1.90497e-15)
(24.1212 -0.710614 0)
(24.5383 -0.249399 0)
(24.8693 0.220307 0)
(25.1161 0.688024 7.86619e-16)
(25.2828 1.14442 0)
(25.3743 1.58205 0)
(25.3944 1.99599 -5.87305e-15)
(25.3461 2.38189 -5.75034e-15)
(25.2221 2.73813 0)
(25.0247 3.06254 -1.14666e-14)
(24.66 3.35636 6.33425e-17)
(24.2186 3.5404 0)
(22.8176 3.58762 -2.29599e-14)
(13.9035 20.2023 5.4575e-17)
(15.0147 21.2182 -4.02964e-17)
(16.331 22.2186 0)
(17.8144 23.1443 6.23198e-18)
(19.4174 23.9214 1.48899e-16)
(21.172 24.5478 1.0447e-17)
(23.0327 24.9865 4.87833e-17)
(24.957 25.2068 -2.5786e-16)
(26.9222 25.1966 -1.0667e-16)
(28.8877 24.9472 6.47578e-16)
(30.8164 24.4569 -2.45991e-16)
(32.6776 23.7313 5.89392e-16)
(34.4377 22.7832 2.93826e-16)
(36.0682 21.629 1.53256e-16)
(37.5442 20.2885 0)
(38.8429 18.7856 -4.56624e-16)
(39.9383 17.1554 -1.02816e-15)
(40.8096 15.4324 -3.67486e-15)
(41.4438 13.6471 1.05728e-15)
(41.8343 11.8304 -1.38044e-15)
(41.9787 10.0177 -2.11627e-16)
(41.8826 8.25131 0)
(41.5641 6.57518 1.41034e-15)
(41.0565 5.03257 8.74875e-17)
(40.4125 3.65624 -3.57731e-17)
(39.691 2.43227 -4.79168e-16)
(38.9213 1.32151 1.05157e-16)
(38.1026 0.312475 1.99991e-16)
(37.2347 -0.594493 -6.84262e-16)
(36.3202 -1.40296 -2.83034e-17)
(35.3545 -2.11477 7.80015e-16)
(34.3239 -2.72889 8.40576e-16)
(33.2047 -3.24268 0)
(31.9667 -3.65072 -6.87253e-17)
(30.5549 -3.94365 1.95142e-15)
(28.9349 -4.10114 0)
(26.8868 -4.08896 1.67012e-14)
(24.558 -3.74895 0)
(20.123 -3.12153 2.34487e-14)
(12.9381 19.1386 -5.55865e-17)
(12.05 17.9906 1.32568e-16)
(11.2082 16.6221 0)
(10.4287 15.0596 0)
(9.8204 13.3648 7.89362e-16)
(9.40493 11.5454 3.77e-15)
(9.21683 9.65913 0)
(9.27148 7.81577 -2.57073e-15)
(9.55794 6.07803 -2.52546e-15)
(10.0595 4.47419 2.49333e-15)
(10.7363 3.04763 -6.09372e-17)
(11.5418 1.82388 1.13539e-15)
(12.4366 0.799651 2.57852e-17)
(13.3834 -0.0385027 3.14669e-15)
(14.3515 -0.705013 2.95193e-15)
(15.3204 -1.22088 -2.82973e-15)
(16.2755 -1.60592 4.29784e-16)
(17.2074 -1.87897 -8.18438e-16)
(18.1124 -2.05586 3.88748e-16)
(18.9909 -2.14794 2.47284e-15)
(19.8445 -2.16127 3.33517e-16)
(20.6733 -2.09644 -2.92253e-16)
(21.4739 -1.94925 -1.91807e-15)
(22.2326 -1.71345 0)
(22.9235 -1.39419 1.16602e-16)
(23.5248 -1.01672 3.46765e-15)
(24.0342 -0.603467 -2.5906e-17)
(24.4566 -0.167042 2.5649e-17)
(24.7945 0.282126 0)
(25.0495 0.732937 -7.37754e-16)
(25.2249 1.17543 0)
(25.3255 1.6016 0)
(25.3544 2.00553 5.42901e-15)
(25.3148 2.38235 5.51936e-15)
(25.1997 2.73017 0)
(25.0113 3.04533 1.06766e-14)
(24.6617 3.32868 -4.31736e-14)
(24.2371 3.48975 1.61751e-16)
(22.9808 3.51377 2.10362e-14)
(15.1055 18.9838 6.7413e-18)
(16.1047 19.8966 -3.92985e-17)
(17.2889 20.8036 9.58135e-17)
(18.6182 21.6496 -9.36425e-17)
(20.0464 22.3686 -8.79801e-17)
(21.6115 22.9643 0)
(23.2723 23.404 -1.60507e-18)
(24.9927 23.6595 1.95524e-17)
(26.7591 23.7192 -1.88499e-16)
(28.5369 23.573 -3.80821e-16)
(30.296 23.2147 0)
(32.0117 22.6446 -1.03634e-15)
(33.6528 21.8686 -9.57303e-16)
(35.1923 20.8961 -2.35339e-15)
(36.6055 19.7408 0)
(37.867 18.421 -1.47061e-15)
(38.9557 16.9559 -1.54748e-15)
(39.8546 15.365 1.70716e-15)
(40.5462 13.6775 -1.67511e-15)
(41.0158 11.9304 1.50109e-15)
(41.2542 10.1647 1.82717e-16)
(41.2592 8.42904 -1.54601e-15)
(41.0421 6.77146 0)
(40.6291 5.23628 -1.24707e-15)
(40.0636 3.85516 7.25323e-17)
(39.3974 2.62046 5.03086e-16)
(38.6613 1.50044 0)
(37.8615 0.483201 -1.79432e-17)
(37.0029 -0.431137 2.77705e-17)
(36.0951 -1.24573 9.19772e-16)
(35.1444 -1.96295 -6.96582e-16)
(34.152 -2.58315 -8.11998e-16)
(33.1104 -3.10591 1.88144e-16)
(32.0039 -3.52866 -5.99259e-17)
(30.784 -3.84432 -1.88533e-15)
(29.4113 -4.03169 -6.10936e-15)
(27.6539 -4.05535 -8.19277e-15)
(25.633 -3.72987 1.49466e-16)
(21.591 -3.14774 -7.66786e-17)
(14.2318 18.0306 2.53348e-17)
(13.4253 17.0085 2.59658e-16)
(12.6484 15.7888 3.06943e-16)
(11.9157 14.3953 -6.05229e-16)
(11.3263 12.8867 -2.21488e-15)
(10.8956 11.2636 7.69387e-16)
(10.6566 9.5734 1.9671e-15)
(10.6256 7.91025 5.4346e-15)
(10.7979 6.33022 2.16063e-15)
(11.1617 4.85934 -2.05613e-15)
(11.6842 3.53203 -4.8449e-17)
(12.3309 2.37135 -1.01608e-15)
(13.0722 1.37626 0)
(13.8789 0.539206 -3.06502e-17)
(14.7249 -0.147304 -1.80106e-15)
(15.5913 -0.697484 8.3633e-16)
(16.4633 -1.12512 -8.1835e-16)
(17.3292 -1.44376 0)
(18.1826 -1.66555 1.40799e-15)
(19.0205 -1.8 -2.62451e-15)
(19.8412 -1.8524 0)
(20.6425 -1.82401 2.25402e-15)
(21.4194 -1.71229 0)
(22.159 -1.51353 -1.17948e-16)
(22.8379 -1.23238 1.16497e-16)
(23.4353 -0.889635 -1.64313e-15)
(23.946 -0.506198 -2.68824e-17)
(24.3726 -0.0952269 -2.44351e-17)
(24.7169 0.332414 1.12781e-17)
(24.9797 0.765383 -7.20001e-16)
(25.1636 1.19336 -1.37833e-15)
(25.2728 1.60788 2.61941e-15)
(25.3102 2.00267 8.2737e-17)
(25.2786 2.37222 2.54882e-17)
(25.171 2.71376 0)
(24.9893 3.02157 1.59513e-16)
(24.6509 3.29537 1.97968e-14)
(24.236 3.43534 -9.374e-18)
(23.0894 3.43314 1.95929e-14)
(16.1664 17.9116 1.068e-17)
(17.0823 18.7355 7.09889e-17)
(18.1665 19.5581 0)
(19.3795 20.3275 -2.84068e-17)
(20.6753 20.9845 -1.3907e-16)
(22.0954 21.5365 0)
(23.6022 21.9533 4.44863e-17)
(25.1644 22.2098 2.02982e-16)
(26.7741 22.2954 -4.24798e-16)
(28.4025 22.199 1.22445e-16)
(30.0247 21.9126 2.82229e-16)
(31.6205 21.433 1.19612e-15)
(33.1626 20.7616 8.9206e-16)
(34.6257 19.9027 1.1894e-15)
(35.9852 18.8655 3.17117e-16)
(37.2155 17.6633 1.09429e-15)
(38.2935 16.314 1.49883e-15)
(39.1954 14.8442 1.3694e-15)
(39.9007 13.2837 -1.0058e-15)
(40.3953 11.6633 -3.12875e-15)
(40.6706 10.0178 0)
(40.7252 8.38744 8.7248e-17)
(40.5689 6.81476 1.14368e-15)
(40.2238 5.33989 1.18489e-15)
(39.726 3.99306 -6.54374e-17)
(39.1178 2.7744 -4.36395e-16)
(38.4276 1.6621 2.85268e-18)
(37.6637 0.647083 -1.94214e-16)
(36.831 -0.269051 1.93619e-17)
(35.9384 -1.08738 -1.70948e-15)
(34.994 -1.80919 -8.12373e-18)
(34.0036 -2.43413 -1.52925e-17)
(32.9688 -2.96144 -1.86296e-16)
(31.8891 -3.38923 -5.99797e-17)
(30.7378 -3.71265 1.89346e-15)
(29.5031 -3.91273 1.18656e-14)
(27.981 -3.9594 -7.93252e-15)
(26.3171 -3.65139 -9.23553e-15)
(22.7999 -3.12822 2.04314e-14)
(15.3605 17.0532 -1.05927e-16)
(14.6153 16.1366 -3.62519e-16)
(13.8884 15.0412 -2.53172e-16)
(13.1943 13.7878 -5.92225e-16)
(12.6235 12.4329 1.2983e-15)
(12.1865 10.9727 -4.31552e-17)
(11.9137 9.44634 -5.13907e-15)
(11.8225 7.93672 -1.86903e-15)
(11.9112 6.49594 6.65313e-18)
(12.1698 5.14595 0)
(12.572 3.91469 -1.78205e-15)
(13.0906 2.82253 1.72578e-15)
(13.7033 1.86864 -1.69746e-15)
(14.3875 1.0484 -8.62024e-16)
(15.122 0.358548 7.86404e-16)
(15.8909 -0.21035 7.77708e-16)
(16.6802 -0.666956 2.94307e-15)
(17.4779 -1.02021 -7.10347e-16)
(18.2761 -1.27876 -1.31194e-15)
(19.0693 -1.44993 0)
(19.8534 -1.53789 -2.28092e-15)
(20.6241 -1.544 -1.85676e-15)
(21.3752 -1.46659 -1.25182e-17)
(22.0938 -1.30374 -2.35609e-16)
(22.7587 -1.05979 -1.05168e-16)
(23.3498 -0.751565 1.73341e-15)
(23.8597 -0.39839 -4.70997e-17)
(24.2891 -0.0136508 4.14085e-16)
(24.6385 0.391543 9.87813e-17)
(24.9081 0.805744 6.63002e-16)
(25.1 1.2183 -9.69245e-18)
(25.2174 1.62029 -5.24335e-15)
(25.2631 2.00486 -4.921e-15)
(25.2393 2.36582 -4.91373e-15)
(25.1392 2.69959 -1.51437e-16)
(24.9643 2.99869 7.4024e-17)
(24.637 3.26148 -1.90441e-14)
(24.233 3.38128 -1.85419e-14)
(23.1791 3.35356 -1.80029e-14)
(17.0815 16.9641 -3.83533e-17)
(17.9254 17.7124 -3.08564e-17)
(18.9233 18.4625 -1.89794e-16)
(20.0358 19.1662 6.71752e-16)
(21.2179 19.7689 -2.71581e-16)
(22.5121 20.2814 1.7232e-16)
(23.8838 20.6766 -1.44876e-16)
(25.3049 20.9317 0)
(26.7721 21.0383 1.17709e-16)
(28.2605 20.9853 6.91383e-18)
(29.7499 20.7643 -2.06683e-16)
(31.2247 20.3704 -1.06491e-15)
(32.6611 19.8018 -4.98527e-16)
(34.0364 19.0593 0)
(35.3279 18.1482 0)
(36.5108 17.0776 0)
(37.5611 15.8623 0)
(38.4571 14.5197 -1.33407e-15)
(39.1783 13.0728 1.32089e-15)
(39.7075 11.5503 1.28944e-15)
(40.0329 9.98743 -9.97614e-16)
(40.1497 8.42492 8.91822e-16)
(40.063 6.90531 -8.95623e-16)
(39.7911 5.46849 -6.36833e-17)
(39.3637 4.14382 -2.66872e-17)
(38.8172 2.93534 4.42039e-16)
(38.1789 1.82786 8.69673e-17)
(37.4593 0.814121 0)
(36.6644 -0.103913 0)
(35.802 -0.925989 3.86682e-17)
(34.8794 -1.65261 0)
(33.9015 -2.28266 5.90891e-16)
(32.871 -2.81469 -9.57967e-17)
(31.7911 -3.24606 7.48431e-16)
(30.6459 -3.57193 -3.60209e-15)
(29.4463 -3.7733 -5.72445e-15)
(28.0325 -3.82668 7.63006e-15)
(26.6345 -3.52396 1.80629e-14)
(23.6923 -3.05709 -1.97009e-14)
(16.3353 16.1856 0)
(15.6437 15.3573 1.08141e-16)
(14.9617 14.3659 4.73389e-16)
(14.3033 13.2301 -2.05984e-15)
(13.7524 12.0039 1.73514e-15)
(13.3157 10.6811 -1.35886e-15)
(13.021 9.2934 -1.17023e-18)
(12.887 7.91575 1.48414e-15)
(12.9141 6.59791 1.5372e-15)
(13.0922 5.35712 0)
(13.4 4.21643 7.65129e-16)
(13.8153 3.19394 -2.33225e-15)
(14.321 2.28813 3.81387e-15)
(14.8996 1.4955 7.31476e-16)
(15.5343 0.814751 -1.47768e-15)
(16.2122 0.239862 -1.42426e-15)
(16.9213 -0.234234 -1.36223e-15)
(17.6505 -0.612787 0)
(18.3911 -0.901164 0)
(19.1365 -1.10421 0)
(19.8808 -1.22474 2.14001e-15)
(20.618 -1.2636 0)
(21.3409 -1.21952 -1.63316e-15)
(22.0368 -1.09165 -2.23269e-16)
(22.6857 -0.883807 -1.6442e-15)
(23.2684 -0.60981 -1.54333e-15)
(23.7758 -0.287111 0)
(24.2064 0.0709281 -3.49215e-16)
(24.5598 0.453088 -1.04504e-16)
(24.8355 0.847844 2.06475e-17)
(25.0347 1.24429 2.53115e-15)
(25.1601 1.63309 -1.66591e-17)
(25.2138 2.00688 4.79731e-15)
(25.1978 2.35885 -4.67806e-15)
(25.1053 2.68457 0)
(24.9376 2.97478 -1.44538e-16)
(24.6219 3.22631 9.07468e-17)
(24.2307 3.32769 1.76293e-14)
(23.2628 3.27629 -1.26626e-16)
(17.8873 16.1156 3.99002e-17)
(18.6707 16.7978 0)
(19.5962 17.4838 3.86018e-16)
(20.6247 18.128 -3.44452e-16)
(21.7118 18.6802 1.20864e-16)
(22.9007 19.1533 -1.62176e-16)
(24.1588 19.5225 8.6338e-17)
(25.4603 19.7679 4.56937e-17)
(26.8053 19.8825 0)
(28.1721 19.8558 -1.45842e-16)
(29.5443 19.6794 -1.71288e-16)
(30.91 19.3477 1.6821e-16)
(32.2486 18.8568 8.49161e-16)
(33.5409 18.205 3.96558e-16)
(34.766 17.3939 -1.19609e-15)
(35.9002 16.4298 -8.96352e-16)
(36.9204 15.3231 7.17761e-16)
(37.8044 14.089 5.51661e-16)
(38.53 12.7501 -2.72474e-16)
(39.0785 11.3328 2.72357e-16)
(39.437 9.8683 7.08327e-16)
(39.5993 8.39275 1.27825e-16)
(39.5683 6.94486 -1.15036e-16)
(39.3582 5.56199 -7.4032e-16)
(38.9935 4.27232 0)
(38.5043 3.08339 -3.56143e-16)
(37.9158 1.98683 -1.61343e-16)
(37.2405 0.978504 -1.34745e-16)
(36.4852 0.0614353 -4.43382e-16)
(35.6579 -0.762598 1.42685e-15)
(34.7653 -1.49301 4.43198e-16)
(33.8119 -2.12797 -3.76298e-17)
(32.7986 -2.66506 3.88033e-17)
(31.7278 -3.10052 0)
(30.5843 -3.42871 1.74147e-15)
(29.3851 -3.62868 0)
(27.9955 -3.68116 0)
(26.7117 -3.36987 -8.76787e-15)
(24.2741 -2.93978 1.31773e-16)
(17.1913 15.4061 -1.29902e-16)
(16.5451 14.6535 3.94742e-16)
(15.9021 13.7511 7.71962e-18)
(15.2758 12.7159 4.66364e-16)
(14.7445 11.5993 -1.6112e-15)
(14.3122 10.3938 1.22397e-15)
(14.0041 9.12488 4.85992e-17)
(13.8399 7.86209 -1.26818e-15)
(13.8208 6.65276 -1.26234e-15)
(13.9369 5.51 -1.31249e-15)
(14.1703 4.45347 -2.66363e-15)
(14.5025 3.49921 0)
(14.9195 2.64455 -1.38296e-15)
(15.4078 1.88612 -2.74746e-17)
(15.9542 1.22368 0)
(16.5488 0.652909 -1.284e-15)
(17.1818 0.171359 -6.24799e-16)
(17.8436 -0.223589 -6.057e-16)
(18.5259 -0.534621 2.25593e-15)
(19.2214 -0.764185 2.13215e-15)
(19.9234 -0.913411 -2.4582e-16)
(20.6248 -0.982467 1.88895e-15)
(21.3175 -0.970066 4.35824e-16)
(21.9889 -0.875672 -2.11601e-16)
(22.62 -0.70269 1.46042e-15)
(23.1922 -0.462399 9.48313e-17)
(23.695 -0.170245 0)
(24.1254 0.160719 0)
(24.4815 0.519235 -1.99221e-17)
(24.7623 0.893819 5.85383e-17)
(24.9683 1.27338 -2.47733e-15)
(25.1012 1.64823 -1.61655e-17)
(25.1628 2.0105 4.82062e-15)
(25.1546 2.35279 4.49309e-15)
(25.0699 2.66978 1.40545e-16)
(24.9097 2.95058 2.8124e-18)
(24.6064 3.1904 3.43995e-14)
(24.2292 3.27472 -1.67531e-14)
(23.3436 3.20208 1.18961e-16)
(18.5989 15.3498 1.77285e-17)
(19.3298 15.9743 0)
(20.1924 16.6034 -1.89174e-16)
(21.1481 17.1944 0)
(22.1532 17.701 2.22319e-16)
(23.2509 18.1374 -2.16038e-16)
(24.41 18.481 -1.32144e-16)
(25.6071 18.7143 -4.31937e-17)
(26.8439 18.8313 0)
(28.1014 18.8231 -3.6575e-18)
(29.3666 18.6818 2.04531e-16)
(30.6305 18.4012 -4.25075e-16)
(31.8756 17.9767 -2.72515e-16)
(33.0853 17.4049 -2.72998e-16)
(34.2413 16.6851 7.62116e-16)
(35.3219 15.8206 8.58505e-16)
(36.3051 14.8187 -9.45175e-16)
(37.1689 13.6918 -9.10071e-16)
(37.8921 12.457 0)
(38.455 11.1375 2.41197e-16)
(38.843 9.76179 -4.66254e-16)
(39.0479 8.36394 1.16454e-16)
(39.0694 6.98094 5.1066e-18)
(38.918 5.64853 1.73333e-15)
(38.6133 4.39378 -9.10663e-17)
(38.18 3.22622 6.32644e-17)
(37.6408 2.14261 1.45647e-16)
(37.0094 1.14164 1.42535e-16)
(36.2936 0.227298 3.84548e-16)
(35.5018 -0.597235 -6.44526e-16)
(34.641 -1.33032 -4.11999e-16)
(33.7157 -1.96941 -9.38055e-16)
(32.7269 -2.5113 6.11154e-17)
(31.6757 -2.95117 5.50455e-18)
(30.5458 -3.28243 -1.76211e-15)
(29.3522 -3.48153 1.29281e-16)
(27.9698 -3.53265 -9.2689e-17)
(26.6944 -3.2081 1.40924e-16)
(24.6184 -2.78867 -1.79008e-14)
(17.9469 14.7006 7.51843e-17)
(17.3407 14.0132 -1.93185e-16)
(16.7325 13.1879 3.74682e-16)
(16.1357 12.2396 0)
(15.6237 11.218 9.71459e-16)
(15.1982 10.1135 0)
(14.883 8.94782 0)
(14.6975 7.78588 0)
(14.6438 6.6726 2.31111e-15)
(14.7119 5.61779 -1.16331e-15)
(14.8865 4.63874 1.25482e-15)
(15.1514 3.74978 0)
(15.4951 2.94702 0)
(15.9066 2.22667 -1.23996e-15)
(16.3756 1.58878 0)
(16.895 1.02999 1.19361e-15)
(17.4571 0.549021 1.51145e-17)
(18.0539 0.145364 0)
(18.6782 -0.181525 -1.59543e-15)
(19.323 -0.432184 -2.5096e-15)
(19.9809 -0.606228 -1.87941e-15)
(20.6445 -0.702777 -1.76967e-15)
(21.3051 -0.720083 3.31906e-15)
(21.9504 -0.657582 0)
(22.562 -0.518095 1.39754e-15)
(23.1216 -0.310666 1.50702e-15)
(23.618 -0.0488579 6.76172e-16)
(24.0465 0.254836 0)
(24.4042 0.589258 -7.80268e-17)
(24.6893 0.943036 -6.04825e-16)
(24.9012 1.30503 2.35141e-15)
(25.0412 1.66524 -1.56448e-17)
(25.1105 2.01531 -4.42376e-15)
(25.1101 2.34733 4.16277e-15)
(25.0334 2.65505 -1.28439e-18)
(24.881 2.92607 1.30752e-16)
(24.5909 3.15383 -3.29605e-14)
(24.2287 3.2227 1.57157e-14)
(23.4221 3.1315 2.9557e-14)
(19.2322 14.6534 1.3707e-17)
(19.9171 15.2268 -5.9323e-17)
(20.7247 15.8051 0)
(21.6169 16.348 -3.13267e-16)
(22.551 16.813 0)
(23.5694 17.2147 0)
(24.6424 17.5328 1.70256e-17)
(25.7481 17.7516 -7.12471e-17)
(26.8898 17.8664 -7.1472e-17)
(28.0505 17.8693 1.29645e-16)
(29.2194 17.7534 1.3917e-16)
(30.3903 17.5126 2.42557e-16)
(31.5482 17.1417 0)
(32.6795 16.6361 7.03376e-16)
(33.7679 15.9937 -2.64965e-16)
(34.794 15.2154 0)
(35.7372 14.306 7.02668e-16)
(36.5767 13.2747 8.73482e-16)
(37.2914 12.136 0)
(37.8612 10.9106 8.05785e-16)
(38.2704 9.62399 -7.89885e-16)
(38.5094 8.30671 0)
(38.5758 6.99271 -9.19525e-17)
(38.4766 5.71548 -4.45754e-18)
(38.2271 4.5008 4.25212e-17)
(37.8471 3.35962 5.93359e-16)
(37.3563 2.29284 -4.06128e-18)
(36.7685 1.3022 -1.28114e-17)
(36.0922 0.392977 -7.59375e-18)
(35.3359 -0.430327 2.04424e-17)
(34.5069 -1.16476 3.67691e-16)
(33.6104 -1.80696 7.68888e-16)
(32.6477 -2.35297 -3.19107e-17)
(31.6201 -2.79697 8.53749e-16)
(30.5115 -3.13158 1.57168e-15)
(29.3344 -3.33073 5.07415e-15)
(27.9725 -3.38147 6.68716e-15)
(26.6751 -3.04838 -2.38792e-16)
(24.8234 -2.61968 1.69028e-14)
(18.6188 14.0573 -1.52813e-16)
(18.048 13.4272 -5.17681e-16)
(17.4711 12.6693 9.94845e-16)
(16.9015 11.7971 0)
(16.4084 10.8584 1.71384e-15)
(15.9913 9.84218 0)
(15.6734 8.76687 -9.61429e-16)
(15.4733 7.69421 3.85295e-15)
(15.3934 6.66619 -2.96252e-15)
(15.4242 5.69062 0)
(15.552 4.78258 2.15647e-15)
(15.7624 3.95502 2.16093e-15)
(16.0454 3.20319 0)
(16.392 2.52283 -2.20232e-15)
(16.7939 1.91369 5.47764e-16)
(17.2461 1.37247 -5.47679e-16)
(17.7429 0.898669 5.42568e-16)
(18.2782 0.49295 1.021e-15)
(18.846 0.156274 -1.48921e-17)
(19.4398 -0.110272 1.38374e-15)
(20.0527 -0.3049 4.40933e-16)
(20.677 -0.425694 -4.25092e-16)
(21.3042 -0.470368 -1.56788e-15)
(21.9218 -0.437889 1.48491e-15)
(22.5122 -0.330268 -1.23653e-15)
(23.0573 -0.154723 -1.51633e-15)
(23.5454 0.0770809 -6.42602e-16)
(23.9704 0.353416 -9.51285e-18)
(24.3284 0.663361 8.39409e-17)
(24.6166 0.995783 5.77934e-16)
(24.8339 1.33955 8.22307e-18)
(24.9806 1.68444 -1.50877e-17)
(25.0572 2.02164 4.44131e-15)
(25.0645 2.34274 -4.27805e-15)
(24.996 2.6406 1.30996e-16)
(24.8518 2.90142 -8.26816e-15)
(24.5757 3.11694 1.58702e-14)
(24.2294 3.1718 0)
(23.4982 3.06433 -2.83288e-14)
(19.7984 14.0163 3.09616e-17)
(20.4425 14.5441 0)
(21.2014 15.0768 0)
(22.0375 15.5764 5.68809e-16)
(22.9089 16.0034 -1.9179e-17)
(23.8575 16.3728 0)
(24.8546 16.6663 0)
(25.8796 16.8696 3.72188e-16)
(26.9367 16.9796 -4.29028e-17)
(28.0107 16.9891 -5.02279e-17)
(29.0926 16.892 -2.80627e-16)
(30.1783 16.6827 -1.56839e-16)
(31.255 16.3561 2.57024e-16)
(32.3114 15.9071 -7.56852e-17)
(33.3337 15.3323 0)
(34.3046 14.631 0)
(35.2054 13.8057 -1.84465e-15)
(36.0161 12.8634 -3.58849e-16)
(36.717 11.8154 3.58023e-16)
(37.2881 10.679 -7.81523e-16)
(37.7128 9.47688 1.45604e-15)
(37.9801 8.23693 6.71223e-16)
(38.0858 6.9904 -6.40931e-16)
(38.0338 5.76871 -7.30608e-16)
(37.8354 4.59627 1.10575e-16)
(37.5063 3.48458 -5.65638e-16)
(37.0629 2.43761 -6.06499e-17)
(36.5186 1.45986 1.14616e-17)
(35.8821 0.557919 -1.14605e-17)
(35.1617 -0.262347 2.63214e-17)
(34.365 -0.996736 -4.08438e-17)
(33.4975 -1.64099 -3.60904e-16)
(32.5612 -2.19026 -3.08507e-17)
(31.5579 -2.63782 4.98582e-17)
(30.4732 -2.97553 0)
(29.3178 -3.1753 -4.74679e-15)
(27.9892 -3.22573 -6.21985e-15)
(26.6831 -2.89165 0)
(24.9686 -2.44459 0)
(19.2196 13.4674 0)
(18.6803 12.8879 4.79605e-16)
(18.1322 12.1895 -1.52977e-15)
(17.5877 11.3845 -6.96354e-16)
(17.1128 10.519 -1.59117e-15)
(16.7054 9.58047 0)
(16.3877 8.5852 0)
(16.1781 7.59208 -1.72962e-15)
(16.0786 6.64029 1.79291e-15)
(16.0804 5.73605 0)
(16.1708 4.89285 -9.52254e-16)
(16.3369 4.12263 -1.01043e-15)
(16.5697 3.42001 9.97857e-16)
(16.8613 2.77998 1.03048e-15)
(17.2053 2.2018 -1.99989e-15)
(17.5979 1.68215 0)
(18.0354 1.22061 -4.8213e-16)
(18.5132 0.81843 1.15126e-17)
(19.0266 0.477452 2.27245e-15)
(19.5704 0.199933 -4.41985e-16)
(20.138 -0.0111141 4.30053e-16)
(20.7222 -0.152841 -3.84608e-16)
(21.3147 -0.222267 5.59669e-16)
(21.9033 -0.217742 -2.99034e-15)
(22.4708 -0.140278 -1.18012e-15)
(22.9997 0.00461941 1.20232e-15)
(23.4777 0.207008 -7.87989e-17)
(23.8976 0.456101 0)
(24.2546 0.741378 -7.20186e-17)
(24.5449 1.052 5.25839e-16)
(24.7667 1.37694 -1.05422e-15)
(24.9195 1.70585 2.14654e-15)
(25.0032 2.02953 -8.55785e-15)
(25.0182 2.3391 8.46578e-15)
(24.9579 2.62652 -1.25642e-16)
(24.8224 2.87678 7.82659e-15)
(24.5609 3.07983 2.43364e-16)