/*--------------------------------*- C++ -*----------------------------------*\
| =========                 |                                                 |
| \\      /  F ield         | OpenFOAM: The Open Source CFD Toolbox           |
|  \\    /   O peration     | Version:  3.0.0                                 |
|   \\  /    A nd           | Web:      www.OpenFOAM.org                      |
|    \\/     M anipulation  |                                                 |
\*---------------------------------------------------------------------------*/
FoamFile
{
    version     2.0;
    format      ascii;
    class       volScalarField;
    location    "0.023";
    object      p;
}
// * * * * * * * * * * * * * * * * * * * * * * * * * * * * * * * * * * * * * //

dimensions      [1 -1 -2 0 0 0 0];

internalField   nonuniform List<scalar> 
1000
(
32494.5
32488.3
32482.1
32476.7
32471.4
32466.1
32460.7
32455.2
32449.8
32444.4
32439
32433.5
32428.1
32422.6
32417.1
32411.7
32406.2
32400.7
32395.2
32389.6
32384.1
32378.6
32373.1
32367.5
32361.9
32356.4
32350.8
32345.2
32339.6
32334
32328.4
32322.8
32317.1
32311.5
32305.8
32300.2
32294.5
32288.8
32283.1
32277.4
32271.7
32266
32260.3
32254.6
32248.8
32243.1
32237.3
32231.5
32225.7
32219.9
32214.1
32208.3
32202.5
32196.7
32190.8
32185
32179.1
32173.2
32167.4
32161.5
32155.6
32149.7
32143.7
32137.8
32131.9
32125.9
32120
32114
32108
32102
32096
32090
32084
32078
32071.9
32065.9
32059.8
32053.7
32047.7
32041.6
32035.5
32029.4
32023.2
32017.1
32011
32004.8
31998.7
31992.5
31986.3
31980.1
31973.9
31967.7
31961.5
31955.3
31949
31942.8
31936.5
31930.2
31923.9
31917.6
31911.3
31905
31898.6
31892.3
31885.9
31879.6
31873.2
31866.8
31860.4
31854
31847.6
31841.1
31834.7
31828.2
31821.7
31815.3
31808.8
31802.3
31795.8
31789.2
31782.7
31776.1
31769.6
31763
31756.4
31749.8
31743.2
31736.6
31730
31723.3
31716.7
31710
31703.4
31696.7
31690
31683.3
31676.5
31669.8
31663.1
31656.3
31649.5
31642.8
31636
31629.2
31622.3
31615.5
31608.7
31601.8
31595
31588.1
31581.2
31574.3
31567.4
31560.4
31553.5
31546.6
31539.6
31532.6
31525.6
31518.6
31511.6
31504.6
31497.6
31490.5
31483.4
31476.4
31469.3
31462.2
31455.1
31447.9
31440.8
31433.7
31426.5
31419.3
31412.1
31404.9
31397.7
31390.5
31383.3
31376
31368.7
31361.5
31354.2
31346.9
31339.6
31332.2
31324.9
31317.5
31310.2
31302.8
31295.4
31288
31280.6
31273.2
31265.7
31258.3
31250.8
31243.3
31235.8
31228.3
31220.8
31213.2
31205.7
31198.1
31190.6
31183
31175.4
31167.8
31160.1
31152.5
31144.8
31137.2
31129.5
31121.8
31114.1
31106.4
31098.6
31090.9
31083.1
31075.4
31067.6
31059.8
31052
31044.1
31036.3
31028.4
31020.6
31012.7
31004.8
30996.9
30989
30981
30973.1
30965.1
30957.2
30949.2
30941.2
30933.2
30925.1
30917.1
30909
30901
30892.9
30884.8
30876.7
30868.6
30860.4
30852.3
30844.1
30835.9
30827.8
30819.6
30811.3
30803.1
30794.9
30786.6
30778.3
30770.1
30761.8
30753.5
30745.1
30736.8
30728.5
30720.1
30711.7
30703.3
30694.9
30686.5
30678.1
30669.6
30661.2
30652.7
30644.2
30635.7
30627.2
30618.7
30610.2
30601.6
30593.1
30584.5
30575.9
30567.3
30558.7
30550.1
30541.5
30532.8
30524.2
30515.5
30506.8
30498.1
30489.4
30480.7
30471.9
30463.2
30454.4
30445.6
30436.9
30428.1
30419.3
30410.4
30401.6
30392.8
30383.9
30375
30366.2
30357.3
30348.4
30339.5
30330.5
30321.6
30312.7
30303.7
30294.7
30285.8
30276.8
30267.8
30258.8
30249.7
30240.7
30231.7
30222.6
30213.6
30204.5
30195.4
30186.3
30177.2
30168.1
30159
30149.9
30140.8
30131.7
30122.5
30113.4
30104.2
30095
30085.9
30076.7
30067.5
30058.3
30049.1
30039.9
30030.7
30021.5
30012.3
30003.1
29993.9
29984.7
29975.4
29966.2
29957
29947.7
29938.5
29929.3
29920.1
29910.8
29901.6
29892.4
29883.1
29873.9
29864.7
29855.5
29846.3
29837.1
29827.9
29818.7
29809.5
29800.3
29791.1
29782
29772.8
29763.7
29754.6
29745.5
29736.4
29727.3
29718.2
29709.2
29700.1
29691.1
29682.2
29673.2
29664.3
29655.3
29646.5
29637.6
29628.8
29620
29611.2
29602.5
29593.8
29585.1
29576.5
29568
29559.4
29551
29542.5
29534.2
29525.8
29517.6
29509.4
29501.2
29493.2
29485.1
29477.2
29469.3
29461.5
29453.8
29446.2
29438.7
29431.2
29423.9
29416.6
29409.5
29402.4
29395.5
29388.7
29382
29375.4
29369
29362.7
29356.5
29350.5
29344.7
29339
29333.5
29328.1
29322.9
29318
29313.2
29308.6
29304.2
29300
29296.1
29292.3
29288.9
29285.6
29282.6
29279.9
29277.5
29275.3
29273.4
29271.9
29270.6
29269.6
29269
29268.8
29269
29269.3
29270
29271.1
29272.6
29274.5
29276.8
29279.5
29282.6
29286.2
29290.1
29294.5
29299.4
29304.6
29310.4
29316.6
29323.2
29330.3
29337.8
29345.8
29354.3
29363.2
29372.6
29382.4
29392.7
29403.4
29414.6
29426.1
29438.1
29450.5
29463.3
29476.4
29489.9
29503.8
29517.9
29532.4
29547.2
29562.3
29577.6
29593.1
29608.9
29624.8
29640.9
29657.1
29673.5
29689.9
29706.4
29722.9
29739.5
29756.1
29772.6
29789.1
29805.5
29821.8
29838.1
29854.1
29870.1
29885.8
29901.4
29916.8
29932
29946.9
29961.6
29976
29990.2
30004.1
30017.7
30031
30044
30056.7
30069.1
30081.2
30092.9
30104.4
30115.5
30126.2
30136.7
30146.8
30156.6
30166.1
30175.2
30184
30192.5
30200.7
30208.6
30216.2
30223.5
30230.5
30237.2
30243.6
30249.7
30255.6
30261.2
30266.5
30271.6
30276.4
30281
30285.4
30289.6
30293.5
30297.2
30300.8
30304.1
30307.2
30310.2
30313
30315.6
30318.1
30320.5
30322.6
30324.7
30326.6
30328.4
30330.1
30331.7
30333.1
30334.5
30335.7
30336.9
30338
30339
30340
30340.8
30341.7
30342.4
30343.1
30343.7
30344.3
30344.8
30345.3
30345.8
30346.2
30346.6
30346.9
30347.2
30347.5
30347.8
30348
30348.3
30348.5
30348.7
30348.8
30349
30349.1
30349.2
30349.3
30349.4
30349.5
30349.6
30349.7
30349.7
30349.8
30349.9
30349.9
30350
30350
30350
30350.1
30350.1
30350.1
30350.1
30350.1
30350.2
30350.2
30350.2
30350.2
30350.2
30350.2
30350.2
30350.2
30350.2
30350.2
30350.2
30350.2
30350.2
30350.2
30350.2
30350.2
30350.2
30350.2
30350.2
30350.2
30350.2
30350.2
30350.2
30350.2
30350.2
30350.2
30350.2
30350.2
30350.2
30350.2
30350.2
30350.2
30350.2
30350.2
30350.2
30350.2
30350.2
30350.2
30350.2
30350.2
30350.2
30350.2
30350.2
30350.2
30350.2
30350.2
30350.2
30350.2
30350.2
30350.2
30350.2
30350.2
30350.2
30350.2
30350.2
30350.2
30350.2
30350.1
30350.1
30350.1
30350.1
30350.1
30350.1
30350.1
30350.1
30350.1
30350.1
30350.1
30350.1
30350.1
30350.1
30350.1
30350.1
30350.1
30350.1
30350.1
30350.1
30350.1
30350.1
30350.1
30350.1
30350.1
30350.1
30350.1
30350.1
30350.1
30350.1
30350.1
30350.1
30350.1
30350.1
30350.1
30350.1
30350.1
30350.1
30350.1
30350.1
30350.1
30350.1
30350.1
30350.1
30350.1
30350.1
30350.1
30350.1
30350.1
30350
30350
30350
30350
30350
30350
30350
30350
30350
30350
30350
30350
30350
30350
30350
30350
30350
30350
30350
30350
30350
30350
30350
30350
30350
30350
30350
30350
30350
30350
30350
30350
30350
30350
30350
30350
30350
30350
30350
30350
30350
30350
30350
30350
30350
30350
30350
30350
30350
30350
30350
30350
30350
30350
30350
30350
30350
30350
30350
30350
30350
30350
30350
30350
30350
30350
30350
30350
30350
30350
30350
30350
30350
30350
30350
30350
30350
30350
30350
30350
30350
30350
30350
30350
30350
30350
30350
30350
30349.9
30349.9
30349.9
30349.9
30349.9
30349.9
30349.9
30349.9
30349.9
30349.9
30349.9
30349.9
30349.9
30349.9
30349.9
30349.9
30349.9
30349.9
30349.9
30349.9
30349.9
30349.9
30349.9
30349.9
30349.9
30349.9
30349.9
30349.9
30349.9
30349.9
30349.9
30349.9
30349.9
30349.9
30349.9
30349.9
30349.9
30349.9
30349.9
30349.9
30349.9
30349.9
30349.9
30349.9
30349.9
30349.9
30349.9
30349.9
30349.9
30349.9
30349.9
30349.9
30349.9
30349.9
30349.9
30350
30350
30350
30350
30350
30350
30350
30350
30350
30350
30350
30350
30350.1
30350.1
30350.2
30350.3
30350.4
30350.5
30350.6
30350.8
30351
30351.2
30351.5
30351.9
30352.2
30352.7
30353.2
30353.8
30354.5
30355.3
30356.3
30357.3
30358.5
30359.9
30361.4
30363.2
30365.1
30367.3
30369.7
30372.3
30375.2
30378.4
30381.9
30385.7
30389.8
30394.3
30399
30404.1
30409.5
30415.1
30421.1
30427.4
30434
30440.8
30447.9
30455.1
30462.6
30470.1
30477.8
30485.6
30493.4
30501.2
30509
30516.7
30524.2
30531.7
30538.9
30546
30552.8
30559.3
30565.6
30571.6
30577.2
30582.6
30587.6
30592.2
30596.6
30600.6
30604.3
30607.7
30610.8
30613.6
30616.1
30618.4
30620.4
30622.3
30623.9
30625.3
30626.6
30627.7
30628.6
30629.5
30630.2
30630.8
30631.4
30631.9
30632.3
30632.6
30633
30633.2
30633.5
30633.7
30633.8
30634
30634.1
30634.2
30634.2
30634.2
30634.2
30634.2
30634.2
30634
30633.9
30633.7
30633.4
30633.1
30632.7
30632.3
30631.8
30631.3
30630.7
30630.1
30629.5
30628.8
30628.1
30627.5
30626.8
30626.1
30625.5
30624.9
30624.4
30623.8
30623.4
30622.9
30622.6
30622.2
30622
30621.8
30621.6
30621.5
30621.4
30621.3
30621.3
)
;

boundaryField
{
    sides
    {
        type            zeroGradient;
    }
    empty
    {
        type            empty;
    }
}


// ************************************************************************* //
