/*--------------------------------*- C++ -*----------------------------------*\
| =========                 |                                                 |
| \\      /  F ield         | OpenFOAM: The Open Source CFD Toolbox           |
|  \\    /   O peration     | Version:  3.0.0                                 |
|   \\  /    A nd           | Web:      www.OpenFOAM.org                      |
|    \\/     M anipulation  |                                                 |
\*---------------------------------------------------------------------------*/
FoamFile
{
    version     2.0;
    format      ascii;
    class       surfaceScalarField;
    location    "0.023";
    object      phi;
}
// * * * * * * * * * * * * * * * * * * * * * * * * * * * * * * * * * * * * * //

dimensions      [1 0 -1 0 0 0 0];

internalField   nonuniform List<scalar> 
999
(
16.9614
18.0125
19.0625
20.1113
21.1597
22.2086
23.2588
24.3101
25.3621
26.4142
27.4665
28.5194
29.5726
30.6256
31.6785
32.7313
33.7839
34.8365
35.8889
36.9412
37.9933
39.0454
40.0973
41.1491
42.2008
43.2524
44.3039
45.3552
46.4064
47.4575
48.5084
49.5592
50.6099
51.6605
52.7109
53.7612
54.8114
55.8615
56.9114
57.9611
59.0108
60.0603
61.1096
62.1589
63.208
64.2569
65.3057
66.3544
67.4029
68.4512
69.4995
70.5476
71.5955
72.6433
73.6909
74.7384
75.7857
76.8329
77.8799
78.9268
79.9735
81.0201
82.0665
83.1128
84.1588
85.2048
86.2505
87.2962
88.3416
89.3869
90.432
91.4769
92.5217
93.5663
94.6107
95.6549
96.699
97.7429
98.7866
99.8301
100.873
101.917
102.96
104.002
105.045
106.087
107.129
108.171
109.213
110.255
111.296
112.338
113.379
114.419
115.46
116.501
117.541
118.581
119.621
120.661
121.7
122.739
123.778
124.817
125.856
126.894
127.933
128.971
130.009
131.046
132.084
133.121
134.158
135.194
136.231
137.267
138.303
139.339
140.374
141.41
142.445
143.48
144.514
145.549
146.583
147.617
148.651
149.684
150.717
151.75
152.783
153.815
154.847
155.879
156.911
157.942
158.974
160.005
161.035
162.066
163.096
164.126
165.155
166.185
167.213
168.243
169.271
170.299
171.328
172.355
173.383
174.41
175.437
176.463
177.489
178.516
179.541
180.567
181.592
182.617
183.642
184.666
185.69
186.714
187.737
188.76
189.783
190.806
191.828
192.85
193.871
194.893
195.913
196.934
197.955
198.975
199.994
201.014
202.033
203.051
204.07
205.088
206.106
207.123
208.14
209.157
210.173
211.19
212.205
213.221
214.236
215.251
216.265
217.279
218.293
219.306
220.319
221.332
222.344
223.356
224.367
225.379
226.389
227.4
228.41
229.42
230.429
231.438
232.447
233.455
234.463
235.47
236.477
237.484
238.49
239.496
240.502
241.507
242.511
243.516
244.52
245.523
246.526
247.529
248.531
249.533
250.535
251.536
252.537
253.537
254.537
255.536
256.535
257.534
258.532
259.529
260.527
261.523
262.52
263.516
264.511
265.506
266.501
267.495
268.489
269.482
270.475
271.467
272.459
273.45
274.441
275.432
276.422
277.411
278.4
279.389
280.377
281.364
282.351
283.338
284.324
285.31
286.295
287.279
288.263
289.247
290.23
291.213
292.195
293.176
294.157
295.138
296.118
297.097
298.076
299.054
300.032
301.009
301.986
302.962
303.938
304.913
305.887
306.861
307.835
308.807
309.78
310.751
311.722
312.693
313.663
314.632
315.601
316.569
317.536
318.503
319.469
320.435
321.4
322.364
323.328
324.291
325.254
326.216
327.177
328.138
329.098
330.057
331.015
331.973
332.931
333.887
334.843
335.799
336.753
337.707
338.66
339.613
340.565
341.516
342.466
343.416
344.365
345.313
346.26
347.207
348.153
349.098
350.043
350.986
351.929
352.871
353.813
354.753
355.693
356.632
357.57
358.507
359.444
360.379
361.314
362.248
363.181
364.114
365.045
365.976
366.905
367.834
368.762
369.689
370.615
371.54
372.464
373.388
374.31
375.231
376.152
377.071
377.99
378.907
379.824
380.739
381.654
382.567
383.479
384.391
385.301
386.21
387.118
388.025
388.931
389.836
390.74
391.642
392.544
393.444
394.343
395.241
396.138
397.033
397.927
398.82
399.712
400.603
401.492
402.38
403.266
404.151
405.035
405.918
406.799
407.678
408.557
409.433
410.309
411.183
412.055
412.926
413.795
414.663
415.529
416.394
417.257
418.118
418.977
419.835
420.691
421.546
422.398
423.249
424.098
424.945
425.79
426.634
427.475
428.314
429.151
429.987
430.82
431.651
432.48
433.306
434.131
434.953
435.772
436.59
437.405
438.217
439.027
439.835
440.64
441.442
442.242
443.039
443.833
444.624
445.413
446.198
446.98
447.76
448.536
449.309
450.079
450.846
451.609
452.367
453.124
453.877
454.627
455.373
456.115
456.853
457.587
458.317
459.043
459.765
460.483
461.196
461.906
462.61
463.311
464.006
464.697
465.383
466.065
466.741
467.413
468.079
468.741
469.396
470.047
470.692
471.332
471.966
472.594
473.217
473.833
474.444
475.048
475.647
476.239
476.824
477.404
477.976
478.542
479.101
479.653
480.199
480.737
481.268
481.792
482.308
482.817
483.318
483.812
484.298
484.776
485.246
485.708
486.162
486.608
487.045
487.474
487.895
488.307
488.711
489.106
489.493
489.871
490.24
490.6
490.952
491.295
491.629
491.954
492.27
492.578
492.877
493.167
493.449
493.722
493.986
494.242
494.49
494.729
494.96
495.183
495.397
495.604
495.803
495.995
496.178
496.355
496.524
496.686
496.841
496.989
497.13
497.266
497.394
497.517
497.634
497.745
497.85
497.95
498.045
498.135
498.22
498.3
498.376
498.447
498.515
498.578
498.637
498.693
498.746
498.795
498.841
498.884
498.924
498.962
498.997
499.03
499.06
499.088
499.114
499.139
499.161
499.182
499.201
499.219
499.235
499.25
499.264
499.277
499.289
499.299
499.309
499.318
499.326
499.334
499.341
499.347
499.353
499.358
499.362
499.366
499.37
499.374
499.377
499.379
499.382
499.384
499.386
499.388
499.389
499.391
499.392
499.393
499.394
499.395
499.396
499.396
499.397
499.397
499.397
499.398
499.398
499.398
499.398
499.398
499.398
499.398
499.398
499.398
499.398
499.398
499.398
499.398
499.398
499.398
499.397
499.397
499.397
499.397
499.397
499.396
499.396
499.396
499.396
499.395
499.395
499.395
499.395
499.394
499.394
499.394
499.394
499.393
499.393
499.393
499.392
499.392
499.392
499.392
499.391
499.391
499.391
499.39
499.39
499.39
499.39
499.389
499.389
499.389
499.388
499.388
499.388
499.388
499.387
499.387
499.387
499.386
499.386
499.386
499.385
499.385
499.385
499.384
499.384
499.384
499.383
499.383
499.383
499.383
499.382
499.382
499.382
499.381
499.381
499.381
499.38
499.38
499.38
499.379
499.379
499.379
499.378
499.378
499.378
499.377
499.377
499.377
499.376
499.376
499.375
499.375
499.375
499.374
499.374
499.374
499.373
499.373
499.373
499.372
499.372
499.372
499.371
499.371
499.37
499.37
499.37
499.369
499.369
499.369
499.368
499.368
499.367
499.367
499.367
499.366
499.366
499.365
499.365
499.365
499.364
499.364
499.363
499.363
499.363
499.362
499.362
499.361
499.361
499.361
499.36
499.36
499.359
499.359
499.358
499.358
499.358
499.357
499.357
499.356
499.356
499.355
499.355
499.355
499.354
499.354
499.353
499.353
499.352
499.352
499.351
499.351
499.351
499.35
499.35
499.349
499.349
499.348
499.348
499.347
499.347
499.346
499.346
499.345
499.345
499.344
499.344
499.343
499.343
499.342
499.342
499.341
499.341
499.34
499.34
499.339
499.339
499.338
499.338
499.337
499.337
499.336
499.336
499.335
499.335
499.334
499.333
499.333
499.332
499.332
499.331
499.331
499.33
499.33
499.329
499.328
499.328
499.327
499.327
499.326
499.326
499.325
499.324
499.324
499.323
499.323
499.322
499.321
499.321
499.32
499.32
499.319
499.318
499.318
499.317
499.316
499.316
499.315
499.314
499.314
499.313
499.312
499.312
499.311
499.311
499.31
499.309
499.308
499.308
499.307
499.306
499.306
499.305
499.304
499.304
499.303
499.302
499.301
499.301
499.3
499.299
499.298
499.298
499.297
499.296
499.295
499.295
499.294
499.293
499.292
499.292
499.291
499.29
499.289
499.288
499.288
499.287
499.286
499.285
499.284
499.283
499.283
499.282
499.281
499.28
499.279
499.278
499.277
499.276
499.275
499.274
499.272
499.271
499.27
499.269
499.267
499.266
499.264
499.262
499.26
499.258
499.256
499.254
499.251
499.248
499.245
499.242
499.239
499.235
499.231
499.226
499.222
499.217
499.212
499.206
499.2
499.194
499.187
499.18
499.173
499.166
499.158
499.15
499.142
499.133
499.125
499.116
499.107
499.098
499.089
499.081
499.072
499.063
499.054
499.046
499.038
499.03
499.022
499.014
499.007
499
498.994
498.988
498.982
498.976
498.971
498.966
498.962
498.957
498.953
498.949
498.946
498.943
498.94
498.937
498.934
498.931
498.929
498.927
498.925
498.922
498.92
498.918
498.917
498.915
498.913
498.911
498.909
498.907
498.906
498.904
498.902
498.9
498.898
498.897
498.895
498.893
498.891
498.89
498.888
498.886
498.885
498.883
498.882
498.88
498.879
498.877
498.876
498.875
498.873
498.872
498.871
498.869
498.868
498.867
498.865
498.864
498.862
498.861
498.859
498.857
498.856
498.854
498.852
498.85
498.848
498.845
498.843
498.841
498.838
498.836
498.833
498.831
498.828
)
;

boundaryField
{
    sides
    {
        type            calculated;
        value           nonuniform List<scalar> 2(498.826 -15.91);
    }
    empty
    {
        type            empty;
        value           nonuniform 0();
    }
}


// ************************************************************************* //
