/*--------------------------------*- C++ -*----------------------------------*\
| =========                 |                                                 |
| \\      /  F ield         | OpenFOAM: The Open Source CFD Toolbox           |
|  \\    /   O peration     | Version:  3.0.0                                 |
|   \\  /    A nd           | Web:      www.OpenFOAM.org                      |
|    \\/     M anipulation  |                                                 |
\*---------------------------------------------------------------------------*/
FoamFile
{
    version     2.0;
    format      ascii;
    class       volScalarField;
    location    "0.023";
    object      T;
}
// * * * * * * * * * * * * * * * * * * * * * * * * * * * * * * * * * * * * * //

dimensions      [0 0 0 1 0 0 0];

internalField   nonuniform List<scalar> 
1000
(
252.091
252.13
252.187
252.257
252.33
252.391
252.433
252.454
252.462
252.464
252.463
252.457
252.445
252.432
252.419
252.406
252.394
252.381
252.369
252.356
252.344
252.331
252.319
252.306
252.294
252.281
252.268
252.256
252.243
252.231
252.218
252.205
252.192
252.18
252.167
252.154
252.141
252.129
252.116
252.103
252.09
252.077
252.064
252.051
252.038
252.025
252.012
251.999
251.986
251.973
251.96
251.947
251.933
251.92
251.907
251.894
251.88
251.867
251.854
251.841
251.827
251.814
251.8
251.787
251.774
251.76
251.747
251.733
251.72
251.706
251.692
251.679
251.665
251.652
251.638
251.624
251.61
251.597
251.583
251.569
251.555
251.541
251.528
251.514
251.5
251.486
251.472
251.458
251.444
251.43
251.416
251.402
251.388
251.373
251.359
251.345
251.331
251.317
251.302
251.288
251.274
251.259
251.245
251.231
251.216
251.202
251.187
251.173
251.158
251.144
251.129
251.114
251.1
251.085
251.07
251.056
251.041
251.026
251.011
250.996
250.982
250.967
250.952
250.936
250.923
250.906
250.894
250.875
250.864
250.844
250.834
250.814
250.804
250.784
250.773
250.753
250.743
250.722
250.712
250.692
250.681
250.661
250.65
250.631
250.618
250.602
250.585
250.572
250.553
250.54
250.523
250.507
250.493
250.475
250.46
250.444
250.428
250.413
250.396
250.38
250.365
250.348
250.332
250.317
250.3
250.284
250.268
250.252
250.235
250.219
250.203
250.187
250.17
250.154
250.137
250.121
250.105
250.088
250.071
250.055
250.038
250.022
250.005
249.988
249.972
249.955
249.938
249.921
249.904
249.887
249.871
249.854
249.837
249.82
249.803
249.786
249.768
249.751
249.734
249.717
249.7
249.682
249.665
249.648
249.63
249.613
249.596
249.578
249.561
249.543
249.526
249.508
249.49
249.473
249.455
249.437
249.42
249.402
249.384
249.366
249.348
249.33
249.312
249.294
249.276
249.258
249.24
249.222
249.204
249.186
249.168
249.149
249.131
249.113
249.094
249.076
249.058
249.039
249.021
249.002
248.984
248.965
248.946
248.928
248.909
248.89
248.872
248.853
248.834
248.815
248.796
248.777
248.758
248.739
248.72
248.701
248.682
248.663
248.644
248.625
248.605
248.586
248.567
248.548
248.528
248.509
248.489
248.47
248.45
248.431
248.411
248.392
248.372
248.352
248.333
248.313
248.293
248.274
248.254
248.234
248.214
248.194
248.174
248.154
248.134
248.114
248.094
248.074
248.054
248.034
248.013
247.993
247.973
247.953
247.932
247.912
247.891
247.871
247.851
247.83
247.81
247.789
247.768
247.748
247.727
247.706
247.686
247.665
247.644
247.623
247.603
247.582
247.561
247.54
247.519
247.498
247.477
247.456
247.435
247.414
247.393
247.372
247.35
247.329
247.308
247.287
247.266
247.244
247.223
247.202
247.18
247.159
247.138
247.116
247.095
247.073
247.052
247.03
247.009
246.987
246.966
246.944
246.923
246.901
246.88
246.858
246.836
246.815
246.793
246.771
246.75
246.728
246.707
246.685
246.663
246.642
246.62
246.598
246.577
246.555
246.533
246.512
246.49
246.468
246.447
246.425
246.404
246.382
246.361
246.339
246.318
246.296
246.275
246.253
246.232
246.211
246.189
246.168
246.147
246.126
246.105
246.084
246.063
246.042
246.021
246
245.979
245.959
245.938
245.918
245.897
245.877
245.857
245.837
245.817
245.797
245.777
245.758
245.738
245.719
245.7
245.681
245.662
245.643
245.625
245.606
245.588
245.57
245.553
245.535
245.518
245.501
245.484
245.467
245.451
245.435
245.419
245.404
245.389
245.374
245.36
245.346
245.332
245.319
245.306
245.294
245.282
245.27
245.259
245.248
245.238
245.229
245.22
245.211
245.203
245.196
245.189
245.183
245.178
245.173
245.169
245.166
245.164
245.162
245.161
245.161
245.162
245.163
245.166
245.169
245.173
245.178
245.184
245.192
245.2
245.209
245.219
245.23
245.242
245.256
245.27
245.286
245.302
245.32
245.339
245.359
245.38
245.402
245.425
245.449
245.474
245.501
245.528
245.556
245.586
245.616
245.647
245.679
245.712
245.745
245.78
245.815
245.85
245.887
245.924
245.961
245.999
246.037
246.076
246.115
246.154
246.193
246.233
246.272
246.312
246.351
246.39
246.429
246.468
246.507
246.546
246.584
246.621
246.658
246.695
246.731
246.767
246.802
246.837
246.871
246.904
246.937
246.968
247
247.03
247.06
247.089
247.117
247.144
247.171
247.197
247.222
247.246
247.27
247.292
247.314
247.336
247.356
247.376
247.395
247.413
247.431
247.448
247.464
247.479
247.494
247.508
247.522
247.535
247.547
247.559
247.57
247.581
247.591
247.6
247.609
247.618
247.626
247.634
247.641
247.648
247.655
247.661
247.666
247.672
247.677
247.682
247.686
247.69
247.694
247.698
247.701
247.704
247.707
247.71
247.713
247.715
247.717
247.72
247.721
247.723
247.725
247.726
247.728
247.729
247.73
247.732
247.733
247.734
247.734
247.735
247.736
247.737
247.737
247.738
247.739
247.739
247.74
247.74
247.74
247.741
247.741
247.742
247.742
247.742
247.742
247.743
247.743
247.743
247.743
247.744
247.744
247.744
247.744
247.744
247.745
247.745
247.745
247.745
247.745
247.745
247.746
247.746
247.746
247.746
247.746
247.746
247.746
247.747
247.747
247.747
247.747
247.747
247.747
247.747
247.747
247.748
247.748
247.748
247.748
247.748
247.748
247.748
247.749
247.749
247.749
247.749
247.749
247.749
247.749
247.749
247.75
247.75
247.75
247.75
247.75
247.75
247.75
247.751
247.751
247.751
247.751
247.751
247.751
247.751
247.751
247.752
247.752
247.752
247.752
247.752
247.752
247.753
247.753
247.753
247.753
247.753
247.753
247.753
247.754
247.754
247.754
247.754
247.754
247.754
247.754
247.755
247.755
247.755
247.755
247.755
247.755
247.756
247.756
247.756
247.756
247.756
247.756
247.757
247.757
247.757
247.757
247.757
247.757
247.758
247.758
247.758
247.758
247.758
247.758
247.759
247.759
247.759
247.759
247.759
247.759
247.76
247.76
247.76
247.76
247.76
247.76
247.761
247.761
247.761
247.761
247.761
247.762
247.762
247.762
247.762
247.762
247.763
247.763
247.763
247.763
247.763
247.763
247.764
247.764
247.764
247.764
247.765
247.765
247.765
247.765
247.765
247.765
247.766
247.766
247.766
247.766
247.767
247.767
247.767
247.767
247.767
247.768
247.768
247.768
247.768
247.768
247.769
247.769
247.769
247.769
247.77
247.77
247.77
247.77
247.77
247.771
247.771
247.771
247.771
247.772
247.772
247.772
247.772
247.773
247.773
247.773
247.773
247.774
247.774
247.774
247.774
247.775
247.775
247.775
247.775
247.776
247.776
247.776
247.776
247.777
247.777
247.777
247.777
247.778
247.778
247.778
247.778
247.779
247.779
247.779
247.779
247.78
247.78
247.78
247.781
247.781
247.781
247.781
247.782
247.782
247.782
247.783
247.783
247.783
247.783
247.784
247.784
247.784
247.785
247.785
247.785
247.786
247.786
247.786
247.786
247.787
247.787
247.787
247.788
247.788
247.788
247.789
247.789
247.789
247.79
247.79
247.79
247.791
247.791
247.791
247.792
247.792
247.792
247.793
247.793
247.794
247.794
247.794
247.794
247.795
247.795
247.796
247.796
247.796
247.797
247.797
247.797
247.798
247.798
247.799
247.799
247.8
247.8
247.8
247.801
247.801
247.801
247.802
247.802
247.803
247.803
247.804
247.804
247.805
247.805
247.806
247.806
247.807
247.808
247.809
247.809
247.811
247.811
247.813
247.814
247.816
247.817
247.819
247.82
247.823
247.825
247.828
247.831
247.835
247.838
247.843
247.847
247.853
247.858
247.865
247.871
247.88
247.887
247.897
247.906
247.917
247.928
247.94
247.952
247.966
247.98
247.995
248.01
248.027
248.043
248.061
248.078
248.096
248.114
248.133
248.152
248.171
248.189
248.208
248.226
248.245
248.262
248.28
248.297
248.313
248.328
248.343
248.358
248.371
248.384
248.396
248.407
248.417
248.427
248.436
248.444
248.452
248.459
248.465
248.471
248.476
248.481
248.485
248.489
248.493
248.496
248.499
248.501
248.504
248.506
248.508
248.51
248.511
248.513
248.514
248.516
248.517
248.518
248.52
248.521
248.522
248.523
248.524
248.525
248.526
248.526
248.527
248.528
248.528
248.529
248.529
248.529
248.529
248.529
248.529
248.529
248.528
248.528
248.527
248.527
248.526
248.526
248.525
248.525
248.525
248.524
248.524
248.524
248.524
248.524
248.525
248.525
248.526
248.527
248.528
248.528
248.53
248.53
248.533
)
;

boundaryField
{
    sides
    {
        type            zeroGradient;
    }
    empty
    {
        type            empty;
    }
}


// ************************************************************************* //
