/*--------------------------------*- C++ -*----------------------------------*\
| =========                 |                                                 |
| \\      /  F ield         | OpenFOAM: The Open Source CFD Toolbox           |
|  \\    /   O peration     | Version:  3.0.0                                 |
|   \\  /    A nd           | Web:      www.OpenFOAM.org                      |
|    \\/     M anipulation  |                                                 |
\*---------------------------------------------------------------------------*/
FoamFile
{
    version     2.0;
    format      ascii;
    class       volVectorField;
    location    "0.023";
    object      U;
}
// * * * * * * * * * * * * * * * * * * * * * * * * * * * * * * * * * * * * * //

dimensions      [0 1 -1 0 0 0 0];

internalField   nonuniform List<vector> 
1000
(
(8.88444 0 0)
(9.67978 0 0)
(10.3749 0 0)
(10.9592 0 0)
(11.5297 0 0)
(12.1164 0 0)
(12.7109 0 0)
(13.3046 0 0)
(13.8962 0 0)
(14.4874 0 0)
(15.0788 0 0)
(15.6705 0 0)
(16.2622 0 0)
(16.8538 0 0)
(17.4455 0 0)
(18.0373 0 0)
(18.6292 0 0)
(19.2212 0 0)
(19.8133 0 0)
(20.4054 0 0)
(20.9976 0 0)
(21.5899 0 0)
(22.1823 0 0)
(22.7748 0 0)
(23.3673 0 0)
(23.96 0 0)
(24.5527 0 0)
(25.1454 0 0)
(25.7383 0 0)
(26.3313 0 0)
(26.9243 0 0)
(27.5174 0 0)
(28.1106 0 0)
(28.7038 0 0)
(29.2972 0 0)
(29.8906 0 0)
(30.4841 0 0)
(31.0777 0 0)
(31.6714 0 0)
(32.2651 0 0)
(32.859 0 0)
(33.4529 0 0)
(34.0469 0 0)
(34.6409 0 0)
(35.2351 0 0)
(35.8293 0 0)
(36.4236 0 0)
(37.018 0 0)
(37.6124 0 0)
(38.207 0 0)
(38.8016 0 0)
(39.3963 0 0)
(39.9911 0 0)
(40.5859 0 0)
(41.1809 0 0)
(41.7759 0 0)
(42.371 0 0)
(42.9661 0 0)
(43.5614 0 0)
(44.1567 0 0)
(44.7521 0 0)
(45.3476 0 0)
(45.9432 0 0)
(46.5388 0 0)
(47.1345 0 0)
(47.7303 0 0)
(48.3262 0 0)
(48.9221 0 0)
(49.5182 0 0)
(50.1143 0 0)
(50.7105 0 0)
(51.3067 0 0)
(51.903 0 0)
(52.4994 0 0)
(53.0959 0 0)
(53.6925 0 0)
(54.2891 0 0)
(54.8858 0 0)
(55.4825 0 0)
(56.0794 0 0)
(56.6763 0 0)
(57.2732 0 0)
(57.8703 0 0)
(58.4674 0 0)
(59.0646 0 0)
(59.6618 0 0)
(60.2592 0 0)
(60.8566 0 0)
(61.454 0 0)
(62.0515 0 0)
(62.6492 0 0)
(63.2468 0 0)
(63.8446 0 0)
(64.4424 0 0)
(65.0403 0 0)
(65.6383 0 0)
(66.2363 0 0)
(66.8345 0 0)
(67.4327 0 0)
(68.0309 0 0)
(68.6293 0 0)
(69.2277 0 0)
(69.8262 0 0)
(70.4247 0 0)
(71.0234 0 0)
(71.6221 0 0)
(72.2209 0 0)
(72.8197 0 0)
(73.4186 0 0)
(74.0176 0 0)
(74.6166 0 0)
(75.2158 0 0)
(75.8149 0 0)
(76.4142 0 0)
(77.0135 0 0)
(77.6129 0 0)
(78.2123 0 0)
(78.8118 0 0)
(79.4114 0 0)
(80.011 0 0)
(80.6107 0 0)
(81.2105 0 0)
(81.8103 0 0)
(82.4102 0 0)
(83.0101 0 0)
(83.6101 0 0)
(84.2102 0 0)
(84.8104 0 0)
(85.4106 0 0)
(86.0108 0 0)
(86.6112 0 0)
(87.2116 0 0)
(87.812 0 0)
(88.4126 0 0)
(89.0131 0 0)
(89.6138 0 0)
(90.2145 0 0)
(90.8153 0 0)
(91.4161 0 0)
(92.017 0 0)
(92.6179 0 0)
(93.2189 0 0)
(93.82 0 0)
(94.4211 0 0)
(95.0223 0 0)
(95.6236 0 0)
(96.2249 0 0)
(96.8262 0 0)
(97.4277 0 0)
(98.0291 0 0)
(98.6307 0 0)
(99.2323 0 0)
(99.8339 0 0)
(100.436 0 0)
(101.037 0 0)
(101.639 0 0)
(102.241 0 0)
(102.843 0 0)
(103.445 0 0)
(104.047 0 0)
(104.649 0 0)
(105.251 0 0)
(105.854 0 0)
(106.456 0 0)
(107.058 0 0)
(107.66 0 0)
(108.263 0 0)
(108.865 0 0)
(109.468 0 0)
(110.07 0 0)
(110.673 0 0)
(111.276 0 0)
(111.879 0 0)
(112.481 0 0)
(113.084 0 0)
(113.687 0 0)
(114.29 0 0)
(114.893 0 0)
(115.496 0 0)
(116.099 0 0)
(116.702 0 0)
(117.305 0 0)
(117.909 0 0)
(118.512 0 0)
(119.115 0 0)
(119.719 0 0)
(120.322 0 0)
(120.926 0 0)
(121.529 0 0)
(122.133 0 0)
(122.736 0 0)
(123.34 0 0)
(123.943 0 0)
(124.547 0 0)
(125.151 0 0)
(125.755 0 0)
(126.359 0 0)
(126.963 0 0)
(127.567 0 0)
(128.171 0 0)
(128.775 0 0)
(129.379 0 0)
(129.983 0 0)
(130.587 0 0)
(131.191 0 0)
(131.795 0 0)
(132.4 0 0)
(133.004 0 0)
(133.608 0 0)
(134.213 0 0)
(134.817 0 0)
(135.421 0 0)
(136.026 0 0)
(136.63 0 0)
(137.235 0 0)
(137.84 0 0)
(138.444 0 0)
(139.049 0 0)
(139.653 0 0)
(140.258 0 0)
(140.863 0 0)
(141.468 0 0)
(142.072 0 0)
(142.677 0 0)
(143.282 0 0)
(143.887 0 0)
(144.492 0 0)
(145.097 0 0)
(145.702 0 0)
(146.307 0 0)
(146.912 0 0)
(147.517 0 0)
(148.122 0 0)
(148.727 0 0)
(149.332 0 0)
(149.937 0 0)
(150.543 0 0)
(151.148 0 0)
(151.753 0 0)
(152.358 0 0)
(152.963 0 0)
(153.569 0 0)
(154.174 0 0)
(154.779 0 0)
(155.385 0 0)
(155.99 0 0)
(156.595 0 0)
(157.201 0 0)
(157.806 0 0)
(158.411 0 0)
(159.017 0 0)
(159.622 0 0)
(160.227 0 0)
(160.833 0 0)
(161.438 0 0)
(162.044 0 0)
(162.649 0 0)
(163.255 0 0)
(163.86 0 0)
(164.465 0 0)
(165.071 0 0)
(165.676 0 0)
(166.282 0 0)
(166.887 0 0)
(167.493 0 0)
(168.098 0 0)
(168.703 0 0)
(169.309 0 0)
(169.914 0 0)
(170.52 0 0)
(171.125 0 0)
(171.73 0 0)
(172.336 0 0)
(172.941 0 0)
(173.546 0 0)
(174.152 0 0)
(174.757 0 0)
(175.362 0 0)
(175.968 0 0)
(176.573 0 0)
(177.178 0 0)
(177.783 0 0)
(178.388 0 0)
(178.994 0 0)
(179.599 0 0)
(180.204 0 0)
(180.809 0 0)
(181.414 0 0)
(182.019 0 0)
(182.624 0 0)
(183.229 0 0)
(183.834 0 0)
(184.438 0 0)
(185.043 0 0)
(185.648 0 0)
(186.253 0 0)
(186.857 0 0)
(187.462 0 0)
(188.066 0 0)
(188.671 0 0)
(189.275 0 0)
(189.88 0 0)
(190.484 0 0)
(191.088 0 0)
(191.692 0 0)
(192.296 0 0)
(192.9 0 0)
(193.504 0 0)
(194.108 0 0)
(194.712 0 0)
(195.316 0 0)
(195.919 0 0)
(196.523 0 0)
(197.126 0 0)
(197.729 0 0)
(198.333 0 0)
(198.936 0 0)
(199.539 0 0)
(200.142 0 0)
(200.745 0 0)
(201.347 0 0)
(201.95 0 0)
(202.552 0 0)
(203.155 0 0)
(203.757 0 0)
(204.359 0 0)
(204.961 0 0)
(205.563 0 0)
(206.165 0 0)
(206.766 0 0)
(207.367 0 0)
(207.969 0 0)
(208.57 0 0)
(209.171 0 0)
(209.771 0 0)
(210.372 0 0)
(210.972 0 0)
(211.573 0 0)
(212.173 0 0)
(212.772 0 0)
(213.372 0 0)
(213.971 0 0)
(214.571 0 0)
(215.17 0 0)
(215.768 0 0)
(216.367 0 0)
(216.965 0 0)
(217.563 0 0)
(218.161 0 0)
(218.759 0 0)
(219.356 0 0)
(219.953 0 0)
(220.55 0 0)
(221.146 0 0)
(221.742 0 0)
(222.338 0 0)
(222.934 0 0)
(223.529 0 0)
(224.124 0 0)
(224.719 0 0)
(225.313 0 0)
(225.907 0 0)
(226.5 0 0)
(227.093 0 0)
(227.686 0 0)
(228.279 0 0)
(228.871 0 0)
(229.462 0 0)
(230.053 0 0)
(230.644 0 0)
(231.234 0 0)
(231.824 0 0)
(232.413 0 0)
(233.002 0 0)
(233.591 0 0)
(234.178 0 0)
(234.766 0 0)
(235.352 0 0)
(235.938 0 0)
(236.524 0 0)
(237.109 0 0)
(237.693 0 0)
(238.277 0 0)
(238.86 0 0)
(239.442 0 0)
(240.024 0 0)
(240.605 0 0)
(241.185 0 0)
(241.765 0 0)
(242.344 0 0)
(242.922 0 0)
(243.499 0 0)
(244.075 0 0)
(244.65 0 0)
(245.225 0 0)
(245.798 0 0)
(246.371 0 0)
(246.942 0 0)
(247.513 0 0)
(248.082 0 0)
(248.651 0 0)
(249.218 0 0)
(249.784 0 0)
(250.349 0 0)
(250.913 0 0)
(251.476 0 0)
(252.037 0 0)
(252.597 0 0)
(253.155 0 0)
(253.712 0 0)
(254.268 0 0)
(254.822 0 0)
(255.374 0 0)
(255.925 0 0)
(256.475 0 0)
(257.022 0 0)
(257.568 0 0)
(258.112 0 0)
(258.654 0 0)
(259.194 0 0)
(259.732 0 0)
(260.268 0 0)
(260.801 0 0)
(261.333 0 0)
(261.862 0 0)
(262.389 0 0)
(262.914 0 0)
(263.436 0 0)
(263.955 0 0)
(264.472 0 0)
(264.986 0 0)
(265.497 0 0)
(266.005 0 0)
(266.511 0 0)
(267.013 0 0)
(267.512 0 0)
(268.007 0 0)
(268.5 0 0)
(268.988 0 0)
(269.474 0 0)
(269.955 0 0)
(270.433 0 0)
(270.906 0 0)
(271.376 0 0)
(271.842 0 0)
(272.303 0 0)
(272.759 0 0)
(273.212 0 0)
(273.661 0 0)
(274.104 0 0)
(274.543 0 0)
(274.977 0 0)
(275.405 0 0)
(275.829 0 0)
(276.247 0 0)
(276.66 0 0)
(277.067 0 0)
(277.469 0 0)
(277.866 0 0)
(278.256 0 0)
(278.641 0 0)
(279.02 0 0)
(279.393 0 0)
(279.76 0 0)
(280.121 0 0)
(280.475 0 0)
(280.823 0 0)
(281.166 0 0)
(281.501 0 0)
(281.831 0 0)
(282.153 0 0)
(282.47 0 0)
(282.78 0 0)
(283.084 0 0)
(283.381 0 0)
(283.672 0 0)
(283.956 0 0)
(284.235 0 0)
(284.506 0 0)
(284.772 0 0)
(285.032 0 0)
(285.285 0 0)
(285.532 0 0)
(285.773 0 0)
(286.009 0 0)
(286.238 0 0)
(286.462 0 0)
(286.681 0 0)
(286.893 0 0)
(287.101 0 0)
(287.303 0 0)
(287.5 0 0)
(287.692 0 0)
(287.879 0 0)
(288.061 0 0)
(288.238 0 0)
(288.411 0 0)
(288.579 0 0)
(288.743 0 0)
(288.903 0 0)
(289.058 0 0)
(289.209 0 0)
(289.356 0 0)
(289.5 0 0)
(289.639 0 0)
(289.775 0 0)
(289.907 0 0)
(290.035 0 0)
(290.16 0 0)
(290.281 0 0)
(290.399 0 0)
(290.514 0 0)
(290.625 0 0)
(290.733 0 0)
(290.838 0 0)
(290.94 0 0)
(291.038 0 0)
(291.134 0 0)
(291.227 0 0)
(291.316 0 0)
(291.403 0 0)
(291.487 0 0)
(291.568 0 0)
(291.647 0 0)
(291.722 0 0)
(291.795 0 0)
(291.865 0 0)
(291.933 0 0)
(291.998 0 0)
(292.061 0 0)
(292.121 0 0)
(292.179 0 0)
(292.235 0 0)
(292.288 0 0)
(292.339 0 0)
(292.388 0 0)
(292.434 0 0)
(292.479 0 0)
(292.522 0 0)
(292.562 0 0)
(292.601 0 0)
(292.638 0 0)
(292.673 0 0)
(292.706 0 0)
(292.738 0 0)
(292.768 0 0)
(292.796 0 0)
(292.823 0 0)
(292.848 0 0)
(292.872 0 0)
(292.895 0 0)
(292.916 0 0)
(292.936 0 0)
(292.955 0 0)
(292.973 0 0)
(292.99 0 0)
(293.005 0 0)
(293.02 0 0)
(293.034 0 0)
(293.047 0 0)
(293.059 0 0)
(293.07 0 0)
(293.08 0 0)
(293.09 0 0)
(293.099 0 0)
(293.108 0 0)
(293.115 0 0)
(293.123 0 0)
(293.129 0 0)
(293.136 0 0)
(293.141 0 0)
(293.147 0 0)
(293.152 0 0)
(293.156 0 0)
(293.16 0 0)
(293.164 0 0)
(293.168 0 0)
(293.171 0 0)
(293.174 0 0)
(293.177 0 0)
(293.179 0 0)
(293.182 0 0)
(293.184 0 0)
(293.186 0 0)
(293.187 0 0)
(293.189 0 0)
(293.19 0 0)
(293.192 0 0)
(293.193 0 0)
(293.194 0 0)
(293.195 0 0)
(293.196 0 0)
(293.197 0 0)
(293.197 0 0)
(293.198 0 0)
(293.199 0 0)
(293.199 0 0)
(293.2 0 0)
(293.2 0 0)
(293.2 0 0)
(293.201 0 0)
(293.201 0 0)
(293.201 0 0)
(293.202 0 0)
(293.202 0 0)
(293.202 0 0)
(293.202 0 0)
(293.202 0 0)
(293.202 0 0)
(293.203 0 0)
(293.203 0 0)
(293.203 0 0)
(293.203 0 0)
(293.203 0 0)
(293.203 0 0)
(293.203 0 0)
(293.203 0 0)
(293.203 0 0)
(293.203 0 0)
(293.203 0 0)
(293.203 0 0)
(293.204 0 0)
(293.204 0 0)
(293.204 0 0)
(293.204 0 0)
(293.204 0 0)
(293.204 0 0)
(293.204 0 0)
(293.204 0 0)
(293.204 0 0)
(293.204 0 0)
(293.204 0 0)
(293.204 0 0)
(293.204 0 0)
(293.204 0 0)
(293.204 0 0)
(293.204 0 0)
(293.204 0 0)
(293.204 0 0)
(293.204 0 0)
(293.204 0 0)
(293.204 0 0)
(293.204 0 0)
(293.204 0 0)
(293.204 0 0)
(293.204 0 0)
(293.204 0 0)
(293.204 0 0)
(293.204 0 0)
(293.204 0 0)
(293.204 0 0)
(293.204 0 0)
(293.204 0 0)
(293.204 0 0)
(293.204 0 0)
(293.204 0 0)
(293.204 0 0)
(293.204 0 0)
(293.204 0 0)
(293.204 0 0)
(293.204 0 0)
(293.204 0 0)
(293.204 0 0)
(293.205 0 0)
(293.205 0 0)
(293.205 0 0)
(293.205 0 0)
(293.205 0 0)
(293.205 0 0)
(293.205 0 0)
(293.205 0 0)
(293.205 0 0)
(293.205 0 0)
(293.205 0 0)
(293.205 0 0)
(293.205 0 0)
(293.205 0 0)
(293.205 0 0)
(293.205 0 0)
(293.205 0 0)
(293.205 0 0)
(293.205 0 0)
(293.205 0 0)
(293.205 0 0)
(293.205 0 0)
(293.205 0 0)
(293.205 0 0)
(293.205 0 0)
(293.205 0 0)
(293.205 0 0)
(293.205 0 0)
(293.205 0 0)
(293.205 0 0)
(293.205 0 0)
(293.205 0 0)
(293.205 0 0)
(293.205 0 0)
(293.205 0 0)
(293.205 0 0)
(293.205 0 0)
(293.205 0 0)
(293.205 0 0)
(293.205 0 0)
(293.205 0 0)
(293.205 0 0)
(293.205 0 0)
(293.205 0 0)
(293.205 0 0)
(293.205 0 0)
(293.205 0 0)
(293.205 0 0)
(293.205 0 0)
(293.205 0 0)
(293.205 0 0)
(293.205 0 0)
(293.205 0 0)
(293.205 0 0)
(293.205 0 0)
(293.205 0 0)
(293.205 0 0)
(293.205 0 0)
(293.205 0 0)
(293.205 0 0)
(293.205 0 0)
(293.205 0 0)
(293.205 0 0)
(293.205 0 0)
(293.205 0 0)
(293.205 0 0)
(293.205 0 0)
(293.205 0 0)
(293.205 0 0)
(293.205 0 0)
(293.205 0 0)
(293.205 0 0)
(293.205 0 0)
(293.205 0 0)
(293.205 0 0)
(293.205 0 0)
(293.205 0 0)
(293.205 0 0)
(293.205 0 0)
(293.205 0 0)
(293.205 0 0)
(293.205 0 0)
(293.205 0 0)
(293.205 0 0)
(293.205 0 0)
(293.205 0 0)
(293.205 0 0)
(293.205 0 0)
(293.205 0 0)
(293.205 0 0)
(293.205 0 0)
(293.205 0 0)
(293.206 0 0)
(293.206 0 0)
(293.206 0 0)
(293.206 0 0)
(293.206 0 0)
(293.206 0 0)
(293.206 0 0)
(293.206 0 0)
(293.206 0 0)
(293.206 0 0)
(293.206 0 0)
(293.206 0 0)
(293.206 0 0)
(293.206 0 0)
(293.206 0 0)
(293.206 0 0)
(293.206 0 0)
(293.206 0 0)
(293.206 0 0)
(293.206 0 0)
(293.206 0 0)
(293.206 0 0)
(293.206 0 0)
(293.206 0 0)
(293.206 0 0)
(293.206 0 0)
(293.206 0 0)
(293.206 0 0)
(293.206 0 0)
(293.206 0 0)
(293.206 0 0)
(293.206 0 0)
(293.206 0 0)
(293.206 0 0)
(293.206 0 0)
(293.206 0 0)
(293.206 0 0)
(293.206 0 0)
(293.206 0 0)
(293.206 0 0)
(293.206 0 0)
(293.206 0 0)
(293.206 0 0)
(293.206 0 0)
(293.206 0 0)
(293.206 0 0)
(293.206 0 0)
(293.206 0 0)
(293.206 0 0)
(293.206 0 0)
(293.206 0 0)
(293.206 0 0)
(293.206 0 0)
(293.206 0 0)
(293.206 0 0)
(293.206 0 0)
(293.206 0 0)
(293.206 0 0)
(293.206 0 0)
(293.206 0 0)
(293.206 0 0)
(293.206 0 0)
(293.206 0 0)
(293.206 0 0)
(293.206 0 0)
(293.206 0 0)
(293.206 0 0)
(293.206 0 0)
(293.206 0 0)
(293.206 0 0)
(293.206 0 0)
(293.206 0 0)
(293.206 0 0)
(293.206 0 0)
(293.206 0 0)
(293.206 0 0)
(293.206 0 0)
(293.206 0 0)
(293.206 0 0)
(293.206 0 0)
(293.206 0 0)
(293.206 0 0)
(293.206 0 0)
(293.206 0 0)
(293.206 0 0)
(293.206 0 0)
(293.206 0 0)
(293.206 0 0)
(293.206 0 0)
(293.206 0 0)
(293.206 0 0)
(293.206 0 0)
(293.206 0 0)
(293.206 0 0)
(293.206 0 0)
(293.206 0 0)
(293.206 0 0)
(293.206 0 0)
(293.206 0 0)
(293.206 0 0)
(293.206 0 0)
(293.206 0 0)
(293.206 0 0)
(293.206 0 0)
(293.206 0 0)
(293.206 0 0)
(293.206 0 0)
(293.206 0 0)
(293.205 0 0)
(293.205 0 0)
(293.205 0 0)
(293.205 0 0)
(293.205 0 0)
(293.205 0 0)
(293.205 0 0)
(293.204 0 0)
(293.204 0 0)
(293.203 0 0)
(293.202 0 0)
(293.201 0 0)
(293.2 0 0)
(293.199 0 0)
(293.198 0 0)
(293.196 0 0)
(293.194 0 0)
(293.191 0 0)
(293.188 0 0)
(293.185 0 0)
(293.181 0 0)
(293.176 0 0)
(293.171 0 0)
(293.165 0 0)
(293.158 0 0)
(293.15 0 0)
(293.14 0 0)
(293.13 0 0)
(293.118 0 0)
(293.105 0 0)
(293.091 0 0)
(293.074 0 0)
(293.056 0 0)
(293.036 0 0)
(293.014 0 0)
(292.99 0 0)
(292.964 0 0)
(292.935 0 0)
(292.905 0 0)
(292.871 0 0)
(292.836 0 0)
(292.798 0 0)
(292.758 0 0)
(292.715 0 0)
(292.67 0 0)
(292.623 0 0)
(292.574 0 0)
(292.524 0 0)
(292.471 0 0)
(292.417 0 0)
(292.362 0 0)
(292.305 0 0)
(292.248 0 0)
(292.191 0 0)
(292.133 0 0)
(292.075 0 0)
(292.018 0 0)
(291.961 0 0)
(291.905 0 0)
(291.85 0 0)
(291.797 0 0)
(291.745 0 0)
(291.695 0 0)
(291.647 0 0)
(291.601 0 0)
(291.557 0 0)
(291.516 0 0)
(291.477 0 0)
(291.44 0 0)
(291.406 0 0)
(291.374 0 0)
(291.345 0 0)
(291.318 0 0)
(291.293 0 0)
(291.271 0 0)
(291.25 0 0)
(291.232 0 0)
(291.215 0 0)
(291.2 0 0)
(291.187 0 0)
(291.176 0 0)
(291.165 0 0)
(291.156 0 0)
(291.148 0 0)
(291.141 0 0)
(291.135 0 0)
(291.13 0 0)
(291.125 0 0)
(291.121 0 0)
(291.118 0 0)
(291.115 0 0)
(291.112 0 0)
(291.11 0 0)
(291.108 0 0)
(291.106 0 0)
(291.105 0 0)
(291.103 0 0)
(291.102 0 0)
(291.102 0 0)
(291.101 0 0)
(291.101 0 0)
(291.101 0 0)
(291.101 0 0)
(291.101 0 0)
(291.101 0 0)
(291.102 0 0)
(291.103 0 0)
(291.105 0 0)
(291.107 0 0)
(291.11 0 0)
(291.112 0 0)
(291.116 0 0)
(291.119 0 0)
(291.123 0 0)
(291.127 0 0)
(291.132 0 0)
(291.137 0 0)
(291.141 0 0)
(291.146 0 0)
(291.151 0 0)
(291.156 0 0)
(291.161 0 0)
(291.166 0 0)
(291.17 0 0)
(291.174 0 0)
(291.178 0 0)
(291.181 0 0)
(291.184 0 0)
(291.187 0 0)
(291.189 0 0)
(291.191 0 0)
(291.193 0 0)
(291.194 0 0)
(291.195 0 0)
(291.195 0 0)
(291.196 0 0)
(291.196 0 0)
)
;

boundaryField
{
    sides
    {
        type            zeroGradient;
    }
    empty
    {
        type            empty;
    }
}


// ************************************************************************* //
