/*--------------------------------*- C++ -*----------------------------------*\
| =========                 |                                                 |
| \\      /  F ield         | OpenFOAM: The Open Source CFD Toolbox           |
|  \\    /   O peration     | Version:  3.0.0                                 |
|   \\  /    A nd           | Web:      www.OpenFOAM.org                      |
|    \\/     M anipulation  |                                                 |
\*---------------------------------------------------------------------------*/
FoamFile
{
    version     2.0;
    format      ascii;
    class       surfaceScalarField;
    location    "4.5";
    object      phi;
}
// * * * * * * * * * * * * * * * * * * * * * * * * * * * * * * * * * * * * * //

dimensions      [0 3 -1 0 0 0 0];

internalField   nonuniform List<scalar> 
11520
(
5.28477e-05
-0.000630849
0.000327962
9.26683e-05
-0.000576802
0.000328992
0.000104068
-0.000443718
0.000281209
8.65221e-05
-0.000240326
0.00018059
4.55695e-05
2.30048e-06
3.93136e-05
-9.67233e-06
0.000234714
-0.000109831
-7.04609e-05
0.000400805
-0.000228413
-0.000129695
0.000469258
-0.000293806
-0.000181343
0.00043975
-0.000302205
-0.000217847
0.000332303
-0.000261259
-0.000232559
0.000173395
-0.000183071
-0.000221217
-1.2564e-05
-8.13346e-05
-0.000186803
-0.000199486
2.97813e-05
-0.000134032
-0.000370767
0.000136992
-7.23871e-05
-0.000507615
0.000228643
-0.000593245
0.000295254
-3.52898e-05
-0.000687457
0.000213566
-2.38214e-05
-0.000609619
0.000213109
-3.08359e-05
-0.000454835
0.000179399
-5.23367e-05
-0.000232998
0.000104745
-8.56657e-05
2.45815e-05
-7.5245e-06
-0.000128381
0.000266752
-0.000135011
-0.000177576
0.000437768
-0.000244653
-0.000225364
0.000502559
-0.000309304
-0.000261458
0.000459739
-0.000319438
-0.000277742
0.000331852
-0.000280606
-0.000271
0.000149866
-0.000206445
-0.000244043
-5.62156e-05
-0.000113387
-0.000201634
-0.000259884
-1.6543e-05
-0.00015249
-0.000439824
7.10611e-05
-0.000105479
-0.000577087
0.000141102
-0.000653122
0.000188681
-0.000120764
-0.000703185
9.71198e-05
-0.00013144
-0.000607474
9.68411e-05
-0.000153233
-0.000439351
7.65333e-05
-0.000179965
-0.000209275
2.62958e-05
-0.000207196
5.16001e-05
-5.55369e-05
-0.000233632
0.000294413
-0.000155336
-0.00025905
0.000464499
-0.00024572
-0.000280319
0.000524816
-0.000300235
-0.000291538
0.000472164
-0.000307209
-0.000288105
0.000330584
-0.000271169
-0.000269509
0.000134591
-0.000206108
-0.000239275
-8.25981e-05
-0.000128688
-0.000203113
-0.000293267
-5.36431e-05
-0.000167991
-0.00047494
8.75336e-06
-0.000140732
-0.000608258
5.41212e-05
-0.000673313
8.25309e-05
-0.000195122
-0.00067735
-1.44266e-05
-0.00022488
-0.000573099
-1.41198e-05
-0.000256969
-0.000401917
-2.0928e-05
-0.000283556
-0.000174291
-4.62003e-05
-0.000299429
7.94732e-05
-9.54066e-05
-0.000303934
0.00031378
-0.000161808
-0.00030012
0.000477457
-0.000225569
-0.000290804
0.000533808
-0.000263876
-0.000276242
0.000477675
-0.000264741
-0.000255979
0.000332451
-0.000231569
-0.000231174
0.00013367
-0.000177819
-0.000205031
-8.43992e-05
-0.000119617
-0.000181973
-0.000293695
-7.03328e-05
-0.000166784
-0.000471646
-3.7218e-05
-0.000163408
-0.00059848
-2.02345e-05
-0.000653705
-1.32017e-05
-0.000247024
-0.000615231
-0.000107997
-0.0002924
-0.000513083
-0.000107584
-0.00032979
-0.000349166
-0.000103004
-0.00035085
-0.00013468
-0.000104522
-0.000350695
0.000102345
-0.000120344
-0.00033037
0.000321058
-0.00015015
-0.000296642
0.000475476
-0.000182469
-0.00025806
0.000530585
-0.000200377
-0.000220594
0.000478748
-0.000193039
-0.000187347
0.000340441
-0.000162558
-0.000160517
0.000149876
-0.000121079
-0.00014257
-5.93649e-05
-8.36305e-05
-0.000136185
-0.00025987
-6.18687e-05
-0.000143603
-0.000429583
-5.9887e-05
-0.000165676
-0.000548949
-7.25908e-05
-0.000597895
-8.80902e-05
-0.00026566
-0.000523033
-0.000174095
-0.000321475
-0.000433756
-0.000175336
-0.000359825
-0.000287939
-0.000162082
-0.000372402
-9.6766e-05
-0.000143416
-0.000355353
0.000115392
-0.000128922
-0.000311674
0.000313452
-0.000123094
-0.000251344
0.00045748
-0.000122389
-0.000187646
0.00051498
-0.000117285
-0.000131505
0.000475478
-9.99533e-05
-8.90749e-05
0.000354447
-7.15403e-05
-6.33163e-05
0.000182219
-4.21097e-05
-5.57057e-05
-9.50538e-06
-2.48427e-05
-6.71779e-05
-0.0001948
-2.95103e-05
-9.73101e-05
-0.000352656
-5.71845e-05
-0.00014355
-0.000464362
-9.84106e-05
-0.000511178
-0.000136416
-0.000244478
-0.000413022
-0.00020388
-0.000304733
-0.000345089
-0.000209447
-0.000340385
-0.000226048
-0.000192481
-0.000343947
-6.58593e-05
-0.000160863
-0.000312894
0.000115758
-0.000124234
-0.000251644
0.000289922
-8.97016e-05
-0.000171951
0.000423014
-5.96398e-05
-8.99074e-05
0.000485817
-3.18308e-05
-2.01749e-05
0.000465145
-3.454e-06
2.80081e-05
0.00036989
2.51982e-05
5.10849e-05
0.00022501
4.52524e-05
4.82538e-05
5.84484e-05
4.61447e-05
2.03482e-05
-0.000106162
2.01309e-05
-2.96495e-05
-0.000249515
-3.13549e-05
-9.56646e-05
-0.000354199
-9.57479e-05
-0.000403576
-0.000153283
-0.000183159
-0.000300463
-0.000192431
-0.000241309
-0.000258459
-0.00020493
-0.000271251
-0.000171097
-0.000190456
-0.00026716
-4.54711e-05
-0.000156196
-0.000227887
0.000103543
-0.000110599
-0.000158305
0.000252771
-6.07794e-05
-6.9982e-05
0.000374362
-1.18436e-05
2.05968e-05
0.000442691
3.34269e-05
9.70539e-05
0.000443314
7.33575e-05
0.000147771
0.000379238
0.000104863
0.000167733
0.000268185
0.000121353
0.000156465
0.000132856
0.000113927
0.000116299
-6.64916e-06
7.6467e-05
5.26044e-05
-0.000133632
1.18627e-05
-2.54355e-05
-0.000232519
-6.58302e-05
-0.000288645
-0.000136227
-8.952e-05
-0.000202089
-0.000139183
-0.000138664
-0.00018614
-0.000159406
-0.000160107
-0.000130267
-0.000153464
-0.000150494
-3.72905e-05
-0.000128166
-0.000109994
8.18977e-05
-8.95027e-05
-4.30049e-05
0.000208307
-4.20124e-05
4.09504e-05
0.000318512
9.98233e-06
0.000127621
0.000390507
6.20568e-05
0.000201349
0.000410212
0.000109303
0.000249644
0.000376525
0.00014654
0.000266126
0.000300639
0.000166856
0.000250044
0.000199003
0.000162191
0.000204608
8.6731e-05
0.000127093
0.000136625
-2.30682e-05
6.43793e-05
5.70082e-05
-0.000117437
-1.23814e-05
-0.000183129
-8.50076e-05
2.02412e-05
-0.000133739
-4.95186e-05
-1.31313e-05
-0.000140256
-7.49806e-05
-2.34151e-05
-0.000110031
-8.17118e-05
-1.00682e-05
-4.19508e-05
-7.57555e-05
2.54172e-05
5.55495e-05
-5.93196e-05
7.97477e-05
0.000165255
-3.19225e-05
0.000146644
0.000266266
6.09569e-06
0.000216047
0.000339567
5.15481e-05
0.000275535
0.000372561
9.89883e-05
0.00031394
0.000362556
0.000141581
0.000324877
0.000316101
0.000171414
0.000307464
0.000244026
0.000180122
0.000265005
0.000156299
0.000161747
0.00020433
6.18116e-05
0.000117446
0.000136088
-2.94676e-05
5.76149e-05
-0.000105328
-2.56911e-06
0.000124325
-0.000107438
6.40409e-05
0.000111791
-0.000130158
3.88763e-05
0.000114922
-0.000115563
1.8298e-05
0.000131101
-5.97688e-05
-1.99341e-06
0.000157463
2.87592e-05
-1.94038e-05
0.00019193
0.000131812
-2.63104e-05
0.000232076
0.000228537
-1.64818e-05
0.000273001
0.000301808
1.0765e-05
0.000307438
0.000341375
5.08901e-05
0.000327736
0.000344638
9.64107e-05
0.0003295
0.000315694
0.000138351
0.000312625
0.000261727
0.000167501
0.000280218
0.000189147
0.000176703
0.000237653
0.000103754
0.000164277
0.000192613
1.31104e-05
0.000135858
-7.101e-05
0.00010116
0.00020191
-0.000128353
0.000182769
0.000212287
-0.000159191
0.000163489
0.000229156
-0.000147716
0.000130639
0.000247412
-8.99494e-05
8.23718e-05
0.000262833
4.21626e-06
2.58148e-05
0.000274124
0.000113185
-2.34232e-05
0.000282315
0.000212938
-5.02476e-05
0.000288321
0.000286673
-4.83124e-05
0.000290912
0.000326395
-2.02118e-05
0.00028767
0.000331083
2.61639e-05
0.000277752
0.00030456
8.08751e-05
0.000262477
0.000252637
0.000133558
0.00024455
0.000180951
0.000175383
0.000226843
9.47969e-05
0.000201305
0.000212297
1.09932e-06
0.000211637
-8.84847e-05
0.000210324
0.00024043
-0.000192731
0.000285426
0.000271329
-0.000222471
0.000274632
0.000299068
-0.000202202
0.00023299
0.000317539
-0.000129514
0.000160305
0.00032164
-1.61557e-05
6.65084e-05
0.000309857
0.000111098
-2.53813e-05
0.000285928
0.000222098
-9.05266e-05
0.000256318
0.000297769
-0.000115435
0.000226507
0.000332025
-0.000100354
0.000200106
0.000326506
-5.3478e-05
0.000179961
0.00028684
1.39252e-05
0.000168624
0.00022053
8.99207e-05
0.000167535
0.000135288
0.000163428
0.000176295
3.85072e-05
0.000225891
0.000192702
-6.17535e-05
0.00027278
-0.000153935
0.000303005
0.000238247
-0.000289092
0.000353321
0.000283027
-0.000308288
0.000349734
0.000315723
-0.00026957
0.000303423
0.000330836
-0.000172645
0.000214192
0.00032329
-3.0657e-05
9.18987e-05
0.000290923
0.000124769
-3.58303e-05
0.000238668
0.000254675
-0.000134847
0.00017804
0.000333958
-0.000183722
0.000121617
0.000357027
-0.000179748
7.88205e-05
0.00032987
-0.000131555
5.50452e-05
0.00026327
-5.22229e-05
5.21655e-05
0.000169547
4.39147e-05
6.9018e-05
6.06337e-05
0.000143008
0.000101629
-5.2967e-05
0.000233398
0.00014351
-0.000161256
0.000306959
-0.000253305
0.000359188
0.000201887
-0.000404139
0.000375708
0.000252309
-0.000404067
0.000376588
0.000282769
-0.000339058
0.000329977
0.000289209
-0.000211256
0.000233815
0.000268094
-3.5405e-05
9.51585e-05
0.000217716
0.000153238
-5.78841e-05
0.000143634
0.000306896
-0.000184049
6.16893e-05
0.000389534
-0.00025261
-9.27398e-06
0.000394454
-0.000256038
-5.61591e-05
0.000335156
-0.000203989
-7.41982e-05
0.000232197
-0.000113427
-6.44527e-05
0.000104726
-2.45292e-06
-3.12069e-05
-3.14855e-05
0.000112519
1.89719e-05
-0.000163564
0.000218323
7.77684e-05
-0.000280241
0.00030556
-0.000369987
0.000368111
0.000142418
0.00034601
0.000192943
0.000350271
0.000215874
0.000310069
0.000206005
0.00021822
0.000163511
7.5019e-05
9.48773e-05
-9.43778e-05
1.18781e-05
-0.000241784
-7.09763e-05
-0.000324047
-0.000136413
-0.000328349
-0.000174324
-0.000267837
-0.000181887
-0.000166547
-0.00016163
-4.73355e-05
-0.000118757
7.14909e-05
-6.01802e-05
0.000178069
5.42801e-06
0.000264431
0.000325605
0.00014694
-0.000608032
0.000344678
0.0001985
-0.000534243
0.000349122
0.000215338
-0.000374925
0.000302066
0.000196135
-0.000147158
0.000203203
0.000146462
0.000106152
6.69465e-05
7.6794e-05
0.000324608
-7.39497e-05
-2.01036e-06
0.000458645
-0.000184856
-8.04178e-05
0.000491073
-0.000246683
-0.000148561
0.00043311
-0.000256384
-0.000196319
0.000307791
-0.000219735
-0.00021561
0.000139126
-0.000146756
-0.000201748
-5.04094e-05
-4.97454e-05
-0.000157887
-0.000239514
5.73448e-05
-9.04208e-05
-0.000407883
0.000162113
-1.13924e-05
-0.000536835
0.000253082
-0.000610103
0.000320695
4.78952e-05
-0.000658494
0.000215667
6.98838e-05
-0.000562943
0.00021982
7.09735e-05
-0.000386833
0.000190217
5.37035e-05
-0.00014596
0.000120816
1.83035e-05
0.000119
1.50283e-05
-3.5168e-05
0.000348725
-0.000105657
-0.000101497
0.000489603
-0.000209282
-0.000168293
0.000519452
-0.000270887
-0.000221176
0.000448406
-0.00028185
-0.000249322
0.000302389
-0.000247058
-0.000248072
0.00011033
-0.000178899
-0.000219175
-0.000100207
-9.24866e-05
-0.000169209
-0.000303762
-2.26072e-06
-0.000108485
-0.000477807
8.02608e-05
-4.84599e-05
-0.000603034
0.000147276
-0.000663277
0.00019386
-4.92048e-05
-0.000671782
9.08188e-05
-5.06072e-05
-0.000559308
9.46081e-05
-6.44075e-05
-0.000374969
7.84697e-05
-8.53073e-05
-0.000132269
3.35054e-05
-0.000111586
0.00013194
-4.21993e-05
-0.00014483
0.00036237
-0.000135736
-0.000184822
0.000504777
-0.000220901
-0.00022467
0.000531941
-0.000272877
-0.00025363
0.000451048
-0.000280891
-0.000263284
0.00028998
-0.000249106
-0.000250936
8.22643e-05
-0.000190389
-0.000219647
-0.000140098
-0.000120086
-0.000176488
-0.000348897
-5.16668e-05
-0.000130828
-0.000520462
5.74837e-06
-9.21112e-05
-0.000635954
4.83243e-05
-0.000680041
7.59776e-05
-0.000138352
-0.000649797
-2.79668e-05
-0.000159759
-0.000527979
-2.40416e-05
-0.000184428
-0.000343881
-2.73468e-05
-0.000205361
-0.00010909
-4.84465e-05
-0.000219567
0.000143703
-9.29631e-05
-0.000229289
0.000364971
-0.000154687
-0.000238617
0.000503168
-0.000214632
-0.00024752
0.000528152
-0.000251183
-0.000251173
0.000443188
-0.000253229
-0.000244594
0.000275876
-0.000224044
-0.000226407
6.2402e-05
-0.000176143
-0.000199443
-0.000162267
-0.000124413
-0.000169525
-0.000368182
-8.09659e-05
-0.000143811
-0.000531406
-5.19879e-05
-0.000128989
-0.000634247
-3.67641e-05
-0.000662864
-2.94602e-05
-0.000208395
-0.00059498
-0.000129617
-0.000245161
-0.000473391
-0.000125407
-0.000276041
-0.00029893
-0.000117074
-0.000292918
-8.13874e-05
-0.000115347
-0.000292379
0.000151311
-0.000128491
-0.000277767
0.00035639
-0.000156181
-0.000256994
0.000487011
-0.000187085
-0.000236332
0.000511825
-0.000204712
-0.000216924
0.000429574
-0.000198834
-0.000197306
0.000265411
-0.00017171
-0.000177149
5.61344e-05
-0.000134969
-0.000158498
-0.00016185
-0.000102699
-0.000145203
-0.000357896
-8.54494e-05
-0.000141667
-0.000508541
-8.6288e-05
-0.000151278
-0.000597631
-9.95953e-05
-0.000613563
-0.000113471
-0.000247531
-0.000514423
-0.000203293
-0.000293951
-0.000402867
-0.00019944
-0.000326533
-0.000246606
-0.000181824
-0.000336932
-5.40442e-05
-0.000160359
-0.000321838
0.000152147
-0.000144851
-0.000285459
0.000336448
-0.000139532
-0.00023845
0.000457942
-0.000140328
-0.000192281
0.000485591
-0.000137219
-0.000153738
0.000413406
-0.000122328
-0.000124803
0.000261902
-9.69662e-05
-0.000105994
6.63845e-05
-7.11685e-05
-9.81789e-05
-0.000136822
-5.76854e-05
-0.000102797
-0.000317419
-6.53693e-05
-0.000121098
-0.000453086
-9.43386e-05
-0.00015302
-0.000529528
-0.000134592
-0.000537696
-0.000169131
-0.000247019
-0.000417912
-0.000239869
-0.000296566
-0.000324539
-0.000238228
-0.000326853
-0.000193323
-0.000215478
-0.000330105
-3.11885e-05
-0.000180466
-0.000303395
0.000144474
-0.000143271
-0.000251097
0.000305326
-0.000110877
-0.000184972
0.00041695
-8.47736e-05
-0.000119839
0.000450135
-6.15079e-05
-6.74633e-05
0.000394591
-3.70148e-05
-3.30448e-05
0.000264918
-1.2236e-05
-1.80553e-05
9.21557e-05
4.49165e-06
-2.20097e-05
-8.91972e-05
2.47396e-06
-4.37007e-05
-0.000250166
-2.54309e-05
-8.09988e-05
-0.000370097
-7.70459e-05
-0.000130444
-0.000436706
-0.000139125
-0.000443282
-0.000191644
-0.000203496
-0.000317704
-0.00023314
-0.000249193
-0.00024735
-0.000236424
-0.00027365
-0.000144981
-0.000214341
-0.000270536
-1.54235e-05
-0.000175075
-0.000237418
0.000128722
-0.000127964
-0.000177979
0.00026537
-8.02626e-05
-0.000103113
0.000366452
-3.62115e-05
-2.8564e-05
0.000406148
2.86472e-06
3.1077e-05
0.000371468
3.68394e-05
6.70126e-05
0.000270394
6.34513e-05
7.67478e-05
0.000127789
7.59846e-05
6.19827e-05
-2.58941e-05
6.53892e-05
2.6605e-05
-0.000164437
2.61161e-05
-2.41197e-05
-0.000269238
-3.82712e-05
-8.36643e-05
-0.000329824
-0.000113168
-0.000341184
-0.000177991
-0.000121098
-0.000227424
-0.000180903
-0.000155859
-0.000180695
-0.000191301
-0.000171283
-0.000106698
-0.000176324
-0.000163413
-7.34634e-06
-0.000144114
-0.000130471
0.000108298
-0.000102021
-7.46285e-05
0.000222652
-5.51364e-05
-4.09252e-06
0.00031303
-7.13111e-06
6.78311e-05
0.00035752
3.87609e-05
0.000125622
0.00034333
7.96509e-05
0.000158445
0.000272977
0.000111133
0.000162482
0.000164162
0.000126447
0.000140047
4.12269e-05
0.000117505
9.7096e-05
-7.38061e-05
7.94126e-05
4.14176e-05
-0.000165096
1.59154e-05
-1.81031e-05
-0.000223574
-5.91106e-05
-0.000244864
-0.000126894
-1.24927e-05
-0.000160775
-8.68303e-05
-2.97001e-05
-0.000134315
-0.000104152
-3.31828e-05
-8.32149e-05
-0.000101712
-2.22771e-05
-6.4512e-06
-8.75564e-05
3.95716e-06
8.84818e-05
-6.57381e-05
4.54976e-05
0.000185953
-3.67641e-05
9.8501e-05
0.000266873
-7.50855e-07
0.000153643
0.000313579
4.03473e-05
0.000198408
0.000314977
8.25765e-05
0.000222007
0.000270988
0.000119972
0.00021987
0.00019306
0.000144652
0.000194297
9.87304e-05
0.000148192
0.000152192
4.78995e-06
0.000125257
0.000102466
-7.6062e-05
7.81374e-05
5.43155e-05
-0.000135855
1.80472e-05
-0.00016974
-4.02221e-05
0.000102364
-0.000129726
3.74392e-05
0.000107686
-0.000117577
1.68154e-05
0.000118372
-7.94679e-05
3.86513e-06
0.000131195
-1.27814e-05
-8.48606e-06
0.000145848
7.38584e-05
-1.94334e-05
0.000164559
0.00016371
-2.2779e-05
0.000188565
0.000238926
-1.25409e-05
0.000214685
0.000285458
1.27659e-05
0.000235415
0.000295261
4.98761e-05
0.000242855
0.000267986
9.19732e-05
0.000233312
0.000211019
0.000129934
0.000209022
0.000136284
0.000154238
0.000176506
5.58863e-05
0.000158123
0.000143849
-2.01415e-05
0.000141013
0.00011864
-8.44153e-05
0.000109627
-0.000130941
7.41905e-05
0.000200878
-0.000141445
0.000171574
0.000230414
-0.000136702
0.000153078
0.000255797
-9.94155e-05
0.000125203
0.00027
-2.77394e-05
8.31267e-05
0.000271012
6.61307e-05
3.25306e-05
0.000262571
0.000160689
-1.19609e-05
0.000251101
0.000236359
-3.62107e-05
0.000240392
0.000281672
-3.3817e-05
0.000229643
0.000292314
-6.51713e-06
0.0002159
0.000269445
3.84476e-05
0.000198006
0.000218877
9.09121e-05
0.000178425
0.000149397
0.000140025
0.000162186
7.05239e-05
0.000176984
0.000154667
-8.85931e-06
0.000197542
0.000159681
-8.10498e-05
0.000203258
-0.000138372
0.000199471
0.000265015
-0.000195418
0.000290241
0.000315593
-0.000191139
0.000278492
0.000353115
-0.000143219
0.000239271
0.000368013
-5.24528e-05
0.000170121
0.000356038
6.39709e-05
8.06437e-05
0.000321009
0.000176637
-6.3011e-06
0.000273698
0.00026042
-6.72762e-05
0.000225036
0.000304705
-8.98069e-05
0.000181688
0.000309214
-7.39059e-05
0.000146628
0.00027816
-2.71323e-05
0.000121871
0.000218299
3.92597e-05
0.000109971
0.00013833
0.000112889
0.000113498
4.79126e-05
0.000182512
0.000133744
-4.33323e-05
0.000240118
0.000169491
-0.000126447
0.00028243
-0.000192218
0.000310484
0.00028662
-0.000282642
0.000370383
0.000350485
-0.000271748
0.000366478
0.000394174
-0.000204665
0.00032118
0.000407769
-8.52475e-05
0.000233391
0.000385097
6.4849e-05
0.000113692
0.000328135
0.000207242
-9.474e-06
0.000250017
0.000307217
-0.000103525
0.000168502
0.000351372
-0.000148874
9.81599e-05
0.000343138
-0.000143329
4.77079e-05
0.000291969
-9.49122e-05
2.13748e-05
0.000208843
-1.64338e-05
2.05284e-05
0.000105434
7.7657e-05
4.42966e-05
-6.39981e-06
0.000173552
8.94074e-05
-0.00011512
0.000260076
0.000149811
-0.000210205
0.000330313
-0.000281613
0.000381938
0.000268073
-0.000390191
0.000400054
0.000335725
-0.000364983
0.000402172
0.000377575
-0.000272578
0.000356039
0.00038538
-0.000119752
0.000260515
0.000353007
6.86428e-05
0.000123738
0.000280464
0.00024678
-2.4879e-05
0.000180735
0.000368198
-0.000145301
7.72618e-05
0.000411791
-0.000209556
-8.20791e-06
0.000384042
-0.000211473
-6.31356e-05
0.000303196
-0.000160288
-8.36862e-05
0.000187984
-7.20175e-05
-7.13632e-05
5.47116e-05
3.59463e-05
-3.05079e-05
-8.26144e-05
0.000147878
3.21355e-05
-0.000210447
0.000251007
0.000107858
-0.000316996
0.000336629
-0.000390737
0.000400223
0.000217655
0.000377204
0.000282463
0.000383033
0.000315718
0.000341466
0.000309389
0.000248545
0.000261753
0.000107186
0.000178882
-5.5548e-05
7.5315e-05
-0.000193417
-2.76499e-05
-0.00026908
-0.000109849
-0.000272896
-0.000158895
-0.000217152
-0.000171165
-0.000122443
-0.000149789
-9.04101e-06
-9.96947e-05
0.000106871
-2.9499e-05
0.000212721
5.10295e-05
0.000300274
0.000364503
0.000239216
-0.000486074
0.000336262
0.00030168
-0.000405707
0.000347293
0.000324559
-0.000247095
0.00030895
0.000303895
-2.84862e-05
0.000222928
0.000244301
0.000205472
0.000102225
0.000157998
0.00039256
-2.45231e-05
5.91279e-05
0.000488296
-0.000128026
-3.8638e-05
0.000485414
-0.000190867
-0.000121777
0.000403136
-0.000207828
-0.000177949
0.000267493
-0.000181253
-0.000198245
0.000101934
-0.000118826
-0.000179169
-7.30583e-05
-3.18794e-05
-0.000123994
-0.000238774
6.66144e-05
-4.15634e-05
-0.000378254
0.000164604
5.42026e-05
-0.000477198
0.000251854
-0.000524401
0.000319795
0.000142357
-0.000537205
0.000205539
0.000176713
-0.000437722
0.00021748
0.000187156
-0.000264412
0.000197091
0.000172999
-3.37785e-05
0.000140266
0.000132019
0.000212464
4.90159e-05
6.42747e-05
0.000413641
-5.89931e-05
-2.09513e-05
0.000519479
-0.000155239
-0.000106356
0.000516116
-0.000216184
-0.000174242
0.000421401
-0.000232229
-0.000212108
0.00026463
-0.000206329
-0.000214591
7.46828e-05
-0.000149165
-0.000183318
-0.000122383
-7.4435e-05
-0.000125804
-0.000303364
4.81514e-06
-5.3728e-05
-0.000448724
7.86549e-05
1.94454e-05
-0.000543758
0.000140662
-0.000578414
0.000186221
4.18185e-05
-0.000556902
7.87835e-05
5.16879e-05
-0.000441809
8.88255e-05
4.73151e-05
-0.000262171
8.06011e-05
3.18635e-05
-3.18304e-05
4.70088e-05
4.26281e-06
0.000212893
-1.50276e-05
-3.87403e-05
0.000416614
-9.57063e-05
-9.47153e-05
0.000526914
-0.000172361
-0.000152536
0.000522924
-0.000221865
-0.000197519
0.000418717
-0.000233224
-0.000218647
0.000245897
-0.000209244
-0.000211844
3.87063e-05
-0.000161215
-0.000179901
-0.000171492
-0.00010292
-0.000130821
-0.000357933
-4.61779e-05
-7.56596e-05
-0.000499823
1.68578e-06
-2.57343e-05
-0.000583485
3.81261e-05
-0.000601303
6.30462e-05
-5.88572e-05
-0.000545404
-4.30735e-05
-6.96618e-05
-0.000420378
-3.46675e-05
-8.52215e-05
-0.000242426
-3.15312e-05
-9.99654e-05
-2.24484e-05
-4.30846e-05
-0.000113286
0.000208855
-7.56046e-05
-0.000129392
0.000403267
-0.000125235
-0.000151995
0.000510904
-0.000176019
-0.00017781
0.000506052
-0.000208497
-0.000197846
0.000397553
-0.000212029
-0.000203798
0.00021688
-0.000189075
-0.000192388
1.95905e-06
-0.000150806
-0.000166066
-0.000211612
-0.000110615
-0.000131552
-0.000394526
-7.88868e-05
-9.77377e-05
-0.000525715
-5.99099e-05
-7.29255e-05
-0.000593521
-5.15399e-05
-0.000593411
-4.78114e-05
-0.00014808
-0.000504309
-0.000149904
-0.00017447
-0.000377343
-0.000142053
-0.000196492
-0.000209465
-0.000128014
-0.000207264
-8.61833e-06
-0.000118405
-0.000205217
0.00020016
-0.000121843
-0.000195482
0.000376725
-0.000139373
-0.00018616
0.000476282
-0.000161785
-0.000181138
0.000470919
-0.000174601
-0.000177714
0.00036393
-0.000168634
-0.000170967
0.000184414
-0.000145991
-0.000158455
-2.81416e-05
-0.00011738
-0.000141627
-0.000235535
-9.56044e-05
-0.000124969
-0.000407067
-8.9566e-05
-0.000114268
-0.000522363
-0.000100342
-0.000114362
-0.000572409
-0.000120613
-0.000556068
-0.000137904
-0.000212668
-0.000438634
-0.000230585
-0.000248315
-0.000318708
-0.000222427
-0.000272219
-0.000168553
-0.000198832
-0.000277108
6.32795e-06
-0.000170417
-0.000260936
0.000186458
-0.000147321
-0.00022917
0.000339868
-0.000134441
-0.000192647
0.000428168
-0.000128738
-0.000161036
0.000423592
-0.000121502
-0.000137826
0.000324328
-0.000105937
-0.000121829
0.000155187
-8.37354e-05
-0.00011142
-4.51498e-05
-6.45695e-05
-0.000106572
-0.000237797
-6.02707e-05
-0.000108842
-0.000391934
-7.82331e-05
-0.000120345
-0.000488658
-0.00011654
-0.000142369
-0.000521812
-0.000163165
-0.000493441
-0.000199843
-0.00024072
-0.000356404
-0.000275603
-0.000278719
-0.00025153
-0.000267406
-0.000300487
-0.000125064
-0.000237199
-0.000299008
1.92572e-05
-0.000194875
-0.000272222
0.000167734
-0.000151332
-0.00022502
0.000295562
-0.000113773
-0.000169119
0.000371402
-8.39079e-05
-0.000117964
0.000369491
-5.85619e-05
-8.04645e-05
0.000283938
-3.41249e-05
-5.92666e-05
0.000133914
-1.21609e-05
-5.35991e-05
-4.52735e-05
-1.05226e-06
-6.16751e-05
-0.000216133
-1.11138e-05
-8.1676e-05
-0.000348982
-4.83826e-05
-0.000111886
-0.000427059
-0.000108434
-0.000150243
-0.000446662
-0.000175919
-0.000412253
-0.000228851
-0.000224672
-0.000268036
-0.000277703
-0.000257879
-0.000183376
-0.00027137
-0.000273986
-8.38032e-05
-0.000239496
-0.00026719
2.87469e-05
-0.000191361
-0.000235236
0.000145419
-0.000137605
-0.000181776
0.000247815
-8.59755e-05
-0.000117357
0.00031125
-4.04775e-05
-5.6573e-05
0.000313412
-1.84e-06
-1.202e-05
0.000246005
3.02199e-05
1.00409e-05
0.000122011
5.32928e-05
9.36514e-06
-2.88376e-05
6.02246e-05
-1.05749e-05
-0.000172835
4.20306e-05
-4.47228e-05
-0.000282844
-5.87335e-06
-8.75066e-05
-0.000344311
-7.8236e-05
-0.000134156
-0.000355388
-0.000157792
-0.000321737
-0.000221798
-0.000163836
-0.000185418
-0.00023296
-0.000185248
-0.000121948
-0.000231315
-0.000192785
-4.86019e-05
-0.000203989
-0.000182579
3.49787e-05
-0.000160552
-0.000152421
0.000123408
-0.000110167
-0.000103814
0.000203084
-5.90121e-05
-4.41878e-05
0.000255023
-1.05308e-05
1.36112e-05
0.000261128
3.3246e-05
5.60301e-05
0.000212885
7.03515e-05
7.42119e-05
0.000118038
9.69251e-05
6.67544e-05
-7.24531e-07
0.000105791
3.82691e-05
-0.000115552
8.87083e-05
-3.41307e-06
-0.00020334
4.159e-05
-5.01134e-05
-0.000251805
-2.98895e-05
-9.49166e-05
-0.000260016
-0.00010968
-0.000233447
-0.000176826
-6.62075e-05
-0.000120828
-0.000142647
-6.9438e-05
-7.52489e-05
-0.000147621
-6.58489e-05
-2.27646e-05
-0.000131138
-5.4563e-05
3.94013e-05
-0.000103265
-3.3527e-05
0.000107374
-7.07395e-05
-1.29774e-06
0.000169968
-3.58775e-05
3.94647e-05
0.000212337
1.17208e-06
8.03294e-05
0.000220882
3.97287e-05
0.00010978
0.000188731
7.72794e-05
0.000118739
0.000120446
0.000108604
0.000104947
3.19623e-05
0.000125757
7.31826e-05
-5.57744e-05
0.000120179
3.25695e-05
-0.000124797
8.73277e-05
-7.22938e-06
-0.000165115
3.12458e-05
-3.86471e-05
-0.000175663
-3.48881e-05
-0.000160609
-9.42727e-05
5.15469e-05
-8.55613e-05
-1.59992e-05
7.14167e-05
-5.1718e-05
-2.65853e-05
8.82342e-05
-1.03569e-05
-2.53601e-05
9.87883e-05
4.26951e-05
-2.23339e-05
0.000104675
0.000102367
-2.03135e-05
0.0001108
0.000156694
-1.56308e-05
0.000120512
0.000193021
-2.93635e-06
0.000131776
0.000201962
2.04217e-05
0.000137878
0.00017969
5.2816e-05
0.000132044
0.000129845
8.84073e-05
0.000112314
6.33947e-05
0.000118232
8.3051e-05
-5.05895e-06
0.000132786
5.2884e-05
-6.24843e-05
0.000125977
3.08461e-05
-0.000100823
9.8759e-05
2.33393e-05
-0.000118243
5.97141e-05
-0.000116887
2.04335e-05
0.000166792
-8.76954e-05
0.000127743
0.000211733
-5.91049e-05
0.000115525
0.000242831
-1.6739e-05
0.000100487
0.000252128
4.28341e-05
7.36911e-05
0.000239892
0.000109949
3.71855e-05
0.000214354
0.000167802
2.46872e-06
0.00018557
0.000203373
-1.77785e-05
0.000159127
0.000211062
-1.64742e-05
0.000134887
0.000191071
6.34198e-06
0.000110385
0.000148055
4.47402e-05
8.52575e-05
9.04334e-05
8.90006e-05
6.32601e-05
2.85787e-05
0.000128384
5.09726e-05
-2.78372e-05
0.000154625
5.48063e-05
-7.18564e-05
0.000164742
7.82051e-05
-0.000100321
0.000161937
-0.000112821
0.000152783
0.000257136
-0.000128743
0.000260721
0.000324279
-0.000100234
0.000252477
0.000368411
-4.55714e-05
0.000223972
0.000377083
3.57684e-05
0.000168514
0.000347906
0.000127022
9.27483e-05
0.000291015
0.000201958
1.64331e-05
0.000222895
0.000243563
-3.93466e-05
0.000157379
0.000249169
-6.23975e-05
0.000101704
0.000223865
-5.10254e-05
5.86059e-05
0.00017511
-1.10892e-05
2.98806e-05
0.000111361
4.70576e-05
1.84709e-05
4.16087e-05
0.000111269
2.78391e-05
-2.55873e-05
0.000170894
6.02445e-05
-8.31228e-05
0.000218979
0.000114847
-0.000126162
0.000253669
-0.000151656
0.000277598
0.000307735
-0.000202234
0.000355305
0.000388978
-0.000169555
0.000354556
0.00044131
-9.49959e-05
0.000318272
0.000449985
1.83113e-05
0.000242174
0.000408767
0.000147064
0.000134868
0.000326689
0.000252256
2.23065e-05
0.000224839
0.000307785
-6.58974e-05
0.00012548
0.000311244
-0.000111589
4.36434e-05
0.000273359
-0.000110987
-1.30083e-05
0.00020693
-7.00808e-05
-4.11697e-05
0.000123495
-4.06939e-07
-3.96558e-05
3.33687e-05
8.4383e-05
-8.82563e-06
-5.40676e-05
0.000171203
4.89004e-05
-0.000130718
0.000249945
0.000128052
-0.000189935
0.000314934
-0.0002265
0.000365667
0.000315383
-0.00029663
0.000396194
0.000399886
-0.000254611
0.000402726
0.000452455
-0.000155997
0.000364471
0.000458996
-6.81706e-06
0.000279103
0.000411319
0.0001643
0.000154179
0.00031416
0.000307982
1.65539e-05
0.000189885
0.000383945
-9.71866e-05
6.79632e-05
0.000384901
-0.000161291
-2.92449e-05
0.000327931
-0.000168836
-9.06402e-05
0.000234817
-0.00012678
-0.000113245
0.000122982
-4.88993e-05
-9.84016e-05
5.41169e-06
4.90594e-05
-5.02063e-05
-0.000106968
0.000152583
2.4961e-05
-0.000204675
0.000249796
0.000118326
-0.00027955
0.00033288
-0.000323759
0.000398681
0.000284101
0.000383648
0.000363335
0.000394259
0.000407969
0.000358167
0.000405522
0.0002736
0.000350941
0.000144911
0.00025087
-3.17946e-06
0.0001255
-0.000130357
2.26941e-06
-0.000204413
-9.53532e-05
-0.000215894
-0.000154195
-0.000173295
-0.000170594
-9.26304e-05
-0.000147152
9.04533e-06
-8.99931e-05
0.000117074
-7.95253e-06
0.000219337
8.79164e-05
0.000307514
0.000376263
0.000311679
-0.000293218
0.000307831
0.00038275
-0.000213351
0.000326604
0.00041174
-7.57287e-05
0.000303632
0.000391369
0.000106603
0.000239072
0.000324634
0.000294366
0.000141647
0.00022433
0.000431597
3.19109e-05
0.000107776
0.000481135
-6.64292e-05
-6.73182e-06
0.000443915
-0.000135352
-0.000102084
0.000344479
-0.000164792
-0.000164159
0.000210375
-0.000152741
-0.00018387
6.39525e-05
-0.000104765
-0.000159011
-7.70505e-05
-3.12089e-05
-9.41578e-05
-0.000198224
5.54608e-05
1.02685e-07
-0.000288508
0.000144152
0.00010898
-0.000340931
0.000226035
-0.000351085
0.000294842
0.0002338
-0.000348104
0.000189909
0.000280186
-0.0002533
0.000211044
0.000299557
-0.000100942
0.000202934
0.000287802
9.53488e-05
0.000163275
0.00024077
0.000299049
9.13652e-05
0.000159757
0.000454578
-9.61594e-07
5.79671e-05
0.000517823
-9.01368e-05
-4.33314e-05
0.0004823
-0.000153271
-0.00012398
0.000371148
-0.00017825
-0.000170241
0.000215508
-0.000165201
-0.000176209
4.34861e-05
-0.00012273
-0.00014344
-0.000121357
-6.28977e-05
-7.99918e-05
-0.000259945
3.08836e-06
1.65853e-06
-0.000358679
6.71756e-05
8.73815e-05
-0.000410393
0.000124402
-0.000412027
0.00017126
0.000140395
-0.00037779
6.65861e-05
0.000161755
-0.00027002
8.41849e-05
0.000166797
-0.000111582
8.61996e-05
0.000156061
8.55149e-05
6.75783e-05
0.000126397
0.000289938
2.37476e-05
7.42793e-05
0.000451177
-4.01874e-05
4.06744e-06
0.000522256
-0.000106582
-6.95043e-05
0.000488249
-0.000154241
-0.000128633
0.000368112
-0.000171059
-0.000160194
0.000195619
-0.000157795
-0.000158937
4.80127e-06
-0.000123787
-0.000127334
-0.000174888
-8.09919e-05
-7.38958e-05
-0.000320468
-3.90928e-05
-1.06733e-05
-0.000417191
-3.02485e-06
4.98896e-05
-0.000459243