/*--------------------------------*- C++ -*----------------------------------*\
| =========                 |                                                 |
| \\      /  F ield         | OpenFOAM: The Open Source CFD Toolbox           |
|  \\    /   O peration     | Version:  3.0.0                                 |
|   \\  /    A nd           | Web:      www.OpenFOAM.org                      |
|    \\/     M anipulation  |                                                 |
\*---------------------------------------------------------------------------*/
FoamFile
{
    version     2.0;
    format      ascii;
    class       volVectorField;
    location    "4.5";
    object      U;
}
// * * * * * * * * * * * * * * * * * * * * * * * * * * * * * * * * * * * * * //

dimensions      [0 1 -1 0 0 0 0];

internalField   nonuniform List<vector> 
4096
(
(0.00524518 -0.160615 0.0772263)
(0.0200142 -0.149365 0.0773662)
(0.0266579 -0.116273 0.0663273)
(0.0258903 -0.0644107 0.0421954)
(0.0184269 -0.00304015 0.00683607)
(0.00583999 0.0538001 -0.0322334)
(-0.00958917 0.0934751 -0.0646529)
(-0.0256865 0.110076 -0.0830102)
(-0.0406474 0.10442 -0.085386)
(-0.0525288 0.0809875 -0.0739527)
(-0.0593779 0.0450257 -0.0526147)
(-0.0597736 0.00164571 -0.0256259)
(-0.0535825 -0.0443143 0.00306702)
(-0.0418579 -0.0879965 0.0299392)
(-0.0267071 -0.124662 0.0523485)
(-0.0111852 -0.149481 0.0682616)
(-0.01304 -0.167964 0.0508784)
(-0.00645868 -0.151038 0.050526)
(-0.00610966 -0.114515 0.0424218)
(-0.00986766 -0.0604423 0.0240394)
(-0.0167249 0.00385108 -0.00449169)
(-0.026398 0.0654055 -0.0381148)
(-0.0386187 0.109576 -0.0678137)
(-0.0519069 0.127029 -0.0855629)
(-0.0634582 0.117317 -0.0881903)
(-0.0705703 0.0861772 -0.0772308)
(-0.0717564 0.0414383 -0.0568057)
(-0.06708 -0.00935215 -0.0317566)
(-0.0576839 -0.0598271 -0.00646947)
(-0.0454116 -0.104554 0.015765)
(-0.0327357 -0.139067 0.0330317)
(-0.0220461 -0.159133 0.0443874)
(-0.0316264 -0.1803 0.0232597)
(-0.0315283 -0.157525 0.0229513)
(-0.0361556 -0.115593 0.0179509)
(-0.0425917 -0.0571365 0.0053539)
(-0.0493725 0.00980434 -0.0157874)
(-0.0560467 0.0724359 -0.0422708)
(-0.0628956 0.11641 -0.066743)
(-0.0695208 0.132364 -0.0815424)
(-0.0742619 0.119722 -0.0830692)
(-0.0754094 0.0845734 -0.0726355)
(-0.0723284 0.0354556 -0.0544596)
(-0.0656093 -0.019386 -0.0334281)
(-0.0566041 -0.0729295 -0.0136709)
(-0.0470429 -0.119504 0.00218941)
(-0.0389196 -0.154208 0.0132503)
(-0.0333958 -0.172087 0.0198202)
(-0.0476004 -0.179202 -0.00349549)
(-0.0533838 -0.15287 -0.00366869)
(-0.0620091 -0.108673 -0.00546041)
(-0.069838 -0.0493325 -0.0118656)
(-0.0752156 0.0171685 -0.0246598)
(-0.0775756 0.0786398 -0.0423245)
(-0.0775821 0.121432 -0.059514)
(-0.0761146 0.13608 -0.069729)
(-0.0732592 0.121593 -0.0694572)
(-0.0687167 0.0841869 -0.0597479)
(-0.0625976 0.0329599 -0.044614)
(-0.0556276 -0.0233563 -0.0287042)
(-0.0489189 -0.0775608 -0.0156878)
(-0.0437647 -0.12385 -0.00741947)
(-0.0415186 -0.157192 -0.0036475)
(-0.0417953 -0.172325 -0.00259564)
(-0.0581164 -0.167462 -0.0261005)
(-0.0691261 -0.140274 -0.0264182)
(-0.0806125 -0.0966303 -0.0253366)
(-0.0884657 -0.0393503 -0.0256217)
(-0.0911021 0.024003 -0.0296403)
(-0.08814 0.0822915 -0.0374583)
(-0.0808304 0.123013 -0.0459853)
(-0.0713406 0.136941 -0.0505065)
(-0.0614382 0.1225 -0.0479897)
(-0.0521124 0.0854746 -0.0391276)
(-0.0440402 0.0349447 -0.0274423)
(-0.0379274 -0.0203082 -0.0171479)
(-0.0345306 -0.0731444 -0.0113985)
(-0.0346078 -0.117822 -0.0112471)
(-0.0387823 -0.149287 -0.0152828)
(-0.0451705 -0.16227 -0.0202526)
(-0.0607254 -0.147133 -0.0417796)
(-0.075733 -0.121951 -0.0427944)
(-0.0887484 -0.0816538 -0.039654)
(-0.0956442 -0.0291553 -0.0347477)
(-0.0950172 0.0287583 -0.0307389)
(-0.0868059 0.0823208 -0.0289311)
(-0.0728333 0.120506 -0.0284112)
(-0.0563283 0.134634 -0.0266161)
(-0.0404926 0.122403 -0.021455)
(-0.0274545 0.0885491 -0.0133368)
(-0.0183488 0.0414893 -0.00505418)
(-0.013787 -0.0103376 -0.000198679)
(-0.0141482 -0.060063 -0.00138275)
(-0.0196282 -0.102145 -0.00892333)
(-0.0300317 -0.13165 -0.0204018)
(-0.0423079 -0.143565 -0.0313538)
(-0.0539421 -0.120507 -0.0483915)
(-0.0713441 -0.0999199 -0.0508411)
(-0.0845032 -0.0655593 -0.0469848)
(-0.0898629 -0.0202024 -0.0388568)
(-0.0862769 0.0304631 -0.0290715)
(-0.073977 0.078253 -0.0196063)
(-0.0551114 0.11377 -0.0111798)
(-0.0334818 0.129073 -0.00327594)
(-0.0132747 0.121074 0.00486738)
(0.00236991 0.0929184 0.0127982)
(0.0118457 0.0518056 0.0184616)
(0.0146171 0.005479 0.0190048)
(0.0106513 -0.0396478 0.0123518)
(0.000318338 -0.0783674 -0.00126566)
(-0.0153147 -0.106012 -0.0186834)
(-0.0325277 -0.118059 -0.0347427)
(-0.0379239 -0.0911222 -0.0447666)
(-0.0557046 -0.076878 -0.049223)
(-0.0676548 -0.050288 -0.0462902)
(-0.0712292 -0.0136098 -0.0377509)
(-0.0656182 0.0287348 -0.0258133)
(-0.0512321 0.0701475 -0.0124207)
(-0.0301759 0.102827 0.000941578)
(-0.00621134 0.119746 0.0133906)
(0.0161455 0.117243 0.0243768)
(0.0330967 0.0967316 0.0330393)
(0.0424973 0.0636863 0.0377166)
(0.0436886 0.0246932 0.03617)
(0.0369146 -0.0145462 0.026751)
(0.0230773 -0.0493225 0.00999529)
(0.00404627 -0.0753719 -0.0106286)
(-0.0162273 -0.0887308 -0.0298606)
(-0.0149263 -0.0631389 -0.031037)
(-0.0306629 -0.0558463 -0.0374166)
(-0.0401121 -0.0376861 -0.0368648)
(-0.0417826 -0.00997583 -0.0309477)
(-0.0353243 0.0240557 -0.0211121)
(-0.0212204 0.0591339 -0.00855062)
(-0.0011823 0.0888032 0.00545591)
(0.0216558 0.106997 0.0195357)
(0.0432113 0.109962 0.0322672)
(0.0595889 0.097762 0.0422608)
(0.0682405 0.0739829 0.0478472)
(0.0682914 0.0436379 0.0470679)
(0.0601069 0.0113039 0.0384588)
(0.0449227 -0.0190974 0.0225175)
(0.0251265 -0.0438573 0.00248567)
(0.00469682 -0.0594443 -0.0168643)
(0.0108049 -0.0408384 -0.00896729)
(-0.000334254 -0.0399948 -0.0162425)
(-0.00612563 -0.0294857 -0.0188604)
(-0.00573799 -0.00950763 -0.0180613)
(0.000557877 0.0175869 -0.0142233)
(0.0122398 0.0473299 -0.00713879)
(0.0282358 0.0741915 0.00301257)
(0.0464659 0.0929713 0.0151899)
(0.0638584 0.100197 0.0277497)
(0.0770916 0.0952299 0.0388848)
(0.0837235 0.0801817 0.0466997)
(0.0828371 0.0584425 0.0492273)
(0.074829 0.0331756 0.0449478)
(0.0609529 0.00719444 0.0339723)
(0.0435496 -0.0165438 0.0187591)
(0.0266104 -0.0347675 0.00306795)
(0.0339559 -0.0280121 0.0180282)
(0.0294881 -0.032283 0.0115004)
(0.02819 -0.0273037 0.00576703)
(0.0307919 -0.0123419 6.05507e-05)
(0.0363332 0.0105759 -0.00480502)
(0.0441572 0.0370914 -0.00676304)
(0.0538886 0.0620379 -0.00415718)
(0.0647142 0.0808678 0.00305777)
(0.0749633 0.0906252 0.0134826)
(0.0824588 0.0905289 0.0250909)
(0.0854586 0.0818017 0.0356855)
(0.0833983 0.0666 0.0431246)
(0.0767897 0.0468721 0.045689)
(0.0666487 0.0243634 0.0428804)
(0.0546074 0.0012322 0.0359804)
(0.0445868 -0.0194083 0.0273404)
(0.0498392 -0.0271087 0.0454292)
(0.052902 -0.0346077 0.0409657)
(0.0563127 -0.0321313 0.0327845)
(0.0610764 -0.0185494 0.0205438)
(0.065613 0.00388792 0.00599198)
(0.0689898 0.0302091 -0.00687545)
(0.0713529 0.0548787 -0.0140107)
(0.0731948 0.0736688 -0.0136734)
(0.0744855 0.0842478 -0.00663719)
(0.0745644 0.0860741 0.00495413)
(0.0728499 0.0800215 0.0185425)
(0.0694316 0.0675823 0.0316642)
(0.0649785 0.0501104 0.0422288)
(0.060115 0.0288411 0.0489915)
(0.0553381 0.00548573 0.0519444)
(0.0540599 -0.0169241 0.0519496)
(0.0560803 -0.038371 0.0685935)
(0.0659691 -0.0468365 0.0664637)
(0.0733995 -0.0436046 0.0566606)
(0.0796616 -0.0277368 0.0389996)
(0.0829469 -0.00195796 0.0155736)
(0.0819552 0.0276004 -0.00810427)
(0.0769776 0.0541932 -0.0254024)
(0.0696672 0.0733319 -0.0324153)
(0.0617603 0.0832089 -0.0290341)
(0.0543545 0.0838377 -0.0174653)
(0.0481815 0.0763062 -0.000693431)
(0.0439604 0.0621506 0.0182684)
(0.0423239 0.0429109 0.0366901)
(0.0433023 0.0200662 0.0524663)
(0.0461573 -0.00456654 0.0644156)
(0.0531164 -0.028023 0.0721874)
(0.0529606 -0.0603478 0.0836179)
(0.0676322 -0.0672259 0.0831519)
(0.0775237 -0.0602167 0.0725138)
(0.0839747 -0.0389646 0.0512709)
(0.0854594 -0.00670988 0.0211625)
(0.0804714 0.0290006 -0.0115076)
(0.0690431 0.0594891 -0.0377906)
(0.0536294 0.0793692 -0.051389)
(0.037818 0.0872295 -0.0511037)
(0.0245895 0.0838662 -0.0391692)
(0.0157994 0.0711058 -0.019147)
(0.0123319 0.051276 0.00513426)
(0.0142888 0.0268069 0.0300763)
(0.0208971 1.66664e-06 0.0527272)
(0.0303793 -0.0268047 0.0710609)
(0.0432914 -0.0507248 0.0839774)
(0.04236 -0.0909914 0.0881251)
(0.0593457 -0.0937177 0.0885346)
(0.0698116 -0.080127 0.07792)
(0.0747993 -0.0508122 0.0551807)
(0.0734023 -0.00991681 0.0211452)
(0.0644318 0.0335628 -0.0180285)
(0.0477562 0.0688776 -0.0515848)
(0.0263608 0.0892911 -0.0706062)
(0.00554509 0.0937051 -0.0722856)
(-0.0101658 0.0840229 -0.0590462)
(-0.0185859 0.0634328 -0.0356349)
(-0.0194703 0.0355647 -0.00712711)
(-0.0136164 0.00398304 0.0220298)
(-0.00248264 -0.0281125 0.048466)
(0.011652 -0.0577502 0.0699322)
(0.0277526 -0.0819035 0.0850787)
(0.0268208 -0.109737 0.0804609)
(0.044169 -0.107726 0.0815299)
(0.0538583 -0.0898843 0.0724517)
(0.055877 -0.0555817 0.0507825)
(0.0495916 -0.0069841 0.0155059)
(0.0352962 0.0473261 -0.0283066)
(0.0147335 0.0923229 -0.0682739)
(-0.00813891 0.114826 -0.0916063)
(-0.0282846 0.111821 -0.0932896)
(-0.0419637 0.0892757 -0.0768928)
(-0.0476507 0.0556263 -0.0496281)
(-0.0456306 0.0177573 -0.0182779)
(-0.0370656 -0.0195893 0.0122024)
(-0.0235633 -0.0534752 0.038813)
(-0.00729103 -0.0816296 0.0598793)
(0.00967597 -0.102025 0.0745332)
(0.0271637 -0.15538 0.0883586)
(0.0460464 -0.138489 0.088824)
(0.0549965 -0.098063 0.0760521)
(0.0548218 -0.0398139 0.049615)
(0.0459456 0.0234707 0.0132893)
(0.0301267 0.0760319 -0.0241464)
(0.010247 0.10724 -0.0533059)
(-0.010797 0.114967 -0.0691597)
(-0.0303875 0.102578 -0.071148)
(-0.0458811 0.0749303 -0.0610741)
(-0.0548268 0.0365645 -0.0416678)
(-0.0555306 -0.00820677 -0.0161096)
(-0.0478025 -0.0547967 0.0121015)
(-0.0329106 -0.0982419 0.0396488)
(-0.0135821 -0.133377 0.0634637)
(0.00705625 -0.155262 0.0809569)
(0.00647821 -0.161217 0.0561188)
(0.0163399 -0.139688 0.0563859)
(0.0191914 -0.0971405 0.047855)
(0.0171858 -0.0373287 0.0287985)
(0.0107092 0.0295875 0.000317485)
(-0.000732334 0.0881448 -0.0317034)
(-0.0167986 0.124318 -0.0588226)
(-0.0349312 0.132459 -0.0746255)
(-0.0511843 0.115333 -0.0770652)
(-0.0620623 0.0795918 -0.0675488)
(-0.0655539 0.0324342 -0.0493029)
(-0.0613735 -0.0194203 -0.0262305)
(-0.050723 -0.0699254 -0.00206695)
(-0.03588 -0.113536 0.020014)
(-0.0199273 -0.145589 0.0378505)
(-0.00590831 -0.162206 0.0500752)
(-0.0145689 -0.172279 0.0245785)
(-0.0119192 -0.145173 0.0248756)
(-0.0142655 -0.0984652 0.0199058)
(-0.0188109 -0.0359445 0.00727332)
(-0.02456 0.032454 -0.0133541)
(-0.0319608 0.0919612 -0.0383468)
(-0.0417327 0.128545 -0.0607657)
(-0.0528372 0.135766 -0.0741972)
(-0.062416 0.115921 -0.075971)
(-0.0676652 0.0760296 -0.0672468)
(-0.0671708 0.0242031 -0.0513714)
(-0.0611445 -0.0318304 -0.0323403)
(-0.0510444 -0.0851257 -0.0137368)
(-0.0390962 -0.129708 0.00190522)
(-0.0279688 -0.160667 0.013443)
(-0.0198048 -0.173934 0.0207941)
(-0.0341544 -0.171315 -0.0051573)
(-0.0377142 -0.140667 -0.00469945)
(-0.0442367 -0.0928157 -0.00628777)
(-0.0503181 -0.0310205 -0.0126125)
(-0.0546211 0.0357399 -0.0250242)
(-0.0573428 0.0939551 -0.0417408)
(-0.0597815 0.129977 -0.0577016)
(-0.0625489 0.136423 -0.0672775)
(-0.064605 0.114712 -0.0676313)
(-0.0643523 0.0720731 -0.0596425)
(-0.0609535 0.0175311 -0.0465647)
(-0.0547421 -0.0402647 -0.0323046)
(-0.0469735 -0.0937997 -0.0201282)
(-0.0394418 -0.136932 -0.0118219)
(-0.0341706 -0.164946 -0.00733107)
(-0.0319244 -0.174034 -0.00522211)
(-0.0494358 -0.161022 -0.030362)
(-0.0580034 -0.129168 -0.0297937)
(-0.0674894 -0.082637 -0.0283212)
(-0.0739422 -0.0241777 -0.028619)
(-0.0759098 0.0384128 -0.0327408)
(-0.0735403 0.0932703 -0.0405103)
(-0.0686512 0.127717 -0.0489158)
(-0.0633081 0.133804 -0.0536543)
(-0.0582753 0.111841 -0.052058)
(-0.0532277 0.0687349 -0.0446882)
(-0.0478753 0.0139742 -0.0345508)
(-0.0425433 -0.0432136 -0.025354)
(-0.0381036 -0.0950133 -0.0199715)
(-0.0357484 -0.135326 -0.0193892)
(-0.0367194 -0.159801 -0.0223166)
(-0.040225 -0.16513 -0.025778)
(-0.0576008 -0.143213 -0.0481482)
(-0.0696324 -0.112741 -0.0478189)
(-0.0806777 -0.0698752 -0.0440472)
(-0.0865689 -0.0169495 -0.03924)
(-0.0858938 0.0395419 -0.0358309)
(-0.0788236 0.0895607 -0.0348754)
(-0.0675121 0.121823 -0.0353224)
(-0.0551169 0.128258 -0.0346)
(-0.0440224 0.107953 -0.0306533)
(-0.0351738 0.0669015 -0.0237766)
(-0.0288036 0.0144851 -0.0165331)
(-0.0251414 -0.0398891 -0.0122661)
(-0.0245569 -0.0883654 -0.0134018)
(-0.0275184 -0.125055 -0.0201551)
(-0.034391 -0.146058 -0.0301217)
(-0.043058 -0.148717 -0.0390568)
(-0.0565283 -0.11995 -0.0563937)
(-0.0702296 -0.0932728 -0.0569312)
(-0.0813432 -0.0561194 -0.0520582)
(-0.0860277 -0.0104601 -0.0438797)
(-0.0829992 0.0385881 -0.0348635)
(-0.0724158 0.0828787 -0.0267589)
(-0.0564618 0.112752 -0.0200083)
(-0.0388543 0.120398 -0.0138185)
(-0.0232345 0.103659 -0.00719936)
(-0.0117663 0.0671201 -0.000440435)
(-0.005218 0.0194377 0.00445222)
(-0.0037003 -0.0301984 0.00464492)
(-0.00701128 -0.0741336 -0.00181316)
(-0.014812 -0.106843 -0.0145059)
(-0.0265323 -0.124928 -0.0302089)
(-0.0392514 -0.126416 -0.043934)
(-0.0454717 -0.0940666 -0.053727)
(-0.05882 -0.0729268 -0.0558585)
(-0.0685095 -0.0429225 -0.0514461)
(-0.0715871 -0.00557225 -0.0424135)
(-0.0669789 0.0353337 -0.0309648)
(-0.0547465 0.073428 -0.0188798)
(-0.0367496 0.100749 -0.00731773)
(-0.0166267 0.110166 0.00321419)
(0.00138832 0.0985374 0.0125313)
(0.0141182 0.068705 0.0199812)
(0.0201478 0.0279437 0.0238616)
(0.0194476 -0.0152835 0.0218465)
(0.0127851 -0.0537951 0.0124108)
(0.00130881 -0.0825412 -0.00364924)
(-0.013502 -0.0986104 -0.0227284)
(-0.0284763 -0.100602 -0.0397147)
(-0.0256231 -0.0688909 -0.0398076)
(-0.0363638 -0.054007 -0.0439465)
(-0.0432206 -0.0316326 -0.0416173)
(-0.0444393 -0.00263363 -0.0346805)
(-0.0393021 0.0303088 -0.024756)
(-0.0277053 0.0622654 -0.0130085)
(-0.0108347 0.0868309 -0.0004354)
(0.00837687 0.0978608 0.0119846)
(0.0259049 0.0918824 0.0232528)
(0.0381113 0.0700649 0.032141)
(0.0429876 0.0378346 0.036887)
(0.0404311 0.00230904 0.0354044)
(0.0316348 -0.0302079 0.0263599)
(0.018412 -0.0552598 0.0105824)
(0.00294367 -0.0703411 -0.00847691)
(-0.0116436 -0.0743504 -0.0261767)
(-0.000306537 -0.0479663 -0.0157908)
(-0.00609044 -0.0389328 -0.0215912)
(-0.00889515 -0.0234268 -0.0225967)
(-0.00805424 -0.00152611 -0.0205269)
(-0.00342858 0.0247932 -0.0160767)
(0.00526895 0.0514799 -0.00916922)
(0.0177636 0.0733176 0.000152888)
(0.0323745 0.0852578 0.0112235)
(0.0460392 0.0841199 0.022811)
(0.0553961 0.0700205 0.0332552)
(0.0582676 0.0465504 0.0405037)
(0.0544266 0.0190482 0.0423756)
(0.0452421 -0.00747612 0.037416)
(0.0328348 -0.0293348 0.0260651)
(0.0196394 -0.0443471 0.0110436)
(0.00878879 -0.0513794 -0.00394497)
(0.0255302 -0.0347411 0.0152025)
(0.0266845 -0.0302632 0.0089498)
(0.0287764 -0.0195743 0.00407329)
(0.0318593 -0.00212176 -0.000714219)
(0.0352502 0.0202094 -0.0048771)
(0.0393113 0.0435079 -0.00652534)
(0.0448136 0.0632159 -0.00408148)
(0.051639 0.0753198 0.00268906)
(0.0582396 0.0773045 0.0127638)
(0.062291 0.0689646 0.0242752)
(0.0620638 0.0525385 0.0348769)
(0.0574027 0.031663 0.0421298)
(0.0496387 0.00995325 0.0442213)
(0.0407174 -0.00973157 0.0408411)
(0.0326791 -0.02546 0.0335364)
(0.0288575 -0.0358241 0.024778)
(0.0466638 -0.031914 0.0480834)
(0.0556261 -0.030266 0.0429084)
(0.0627995 -0.02142 0.0344825)
(0.0681623 -0.00469736 0.022128)
(0.0700738 0.0173847 0.00771111)
(0.0687078 0.0401588 -0.00469667)
(0.0657792 0.0590449 -0.0113477)
(0.0628833 0.0708584 -0.0107015)
(0.0603305 0.0739872 -0.00338264)
(0.0573532 0.0684271 0.00865331)
(0.0532116 0.0557006 0.0228105)
(0.0480953 0.0382699 0.036342)
(0.0431605 0.0187364 0.0469504)
(0.039744 -0.000601483 0.0533951)
(0.0388574 -0.0178818 0.055867)
(0.0439597 -0.0313017 0.0555153)
(0.0593411 -0.0404744 0.0767374)
(0.0753162 -0.0398712 0.0735963)
(0.0867681 -0.0297049 0.0625642)
(0.0939826 -0.00975223 0.0434963)
(0.0945239 0.016292 0.0191866)
(0.0879877 0.0420787 -0.00421986)
(0.0766414 0.0621022 -0.0204473)
(0.063761 0.0736102 -0.0263596)
(0.0516942 0.0759844 -0.0221129)
(0.0414841 0.0698415 -0.00976963)
(0.0336123 0.0566617 0.00779384)
(0.0286765 0.0385029 0.0274662)
(0.0274785 0.0176417 0.0463594)
(0.0304408 -0.00368657 0.0622902)
(0.0371875 -0.023421 0.074189)
(0.0506947 -0.0393614 0.0820237)
(0.062306 -0.0597625 0.0957336)
(0.0829585 -0.0583074 0.0945829)
(0.0969122 -0.0440181 0.082188)
(0.104856 -0.0175101 0.0585663)
(0.104115 0.0161321 0.0266525)
(0.0934673 0.0482073 -0.00603312)
(0.0750099 0.0713417 -0.0307697)
(0.0533966 0.0827213 -0.0425811)
(0.0331654 0.0827577 -0.0410289)
(0.0172594 0.0730157 -0.0283169)
(0.00719994 0.0555305 -0.00773269)
(0.00364892 0.0327225 0.0170788)
(0.00671408 0.00723896 0.042574)
(0.0157554 -0.0182462 0.0657737)
(0.0290711 -0.0412056 0.0846663)
(0.0483697 -0.0591247 0.0983362)
(0.0564792 -0.0881862 0.102132)
(0.078926 -0.0837034 0.102349)
(0.0931963 -0.0628099 0.0898574)
(0.100128 -0.0273408 0.0643824)
(0.0975251 0.0160519 0.0281822)
(0.0837868 0.0562431 -0.0109732)
(0.060336 0.0835457 -0.0425003)
(0.0326205 0.09464 -0.059145)
(0.00724825 0.0909874 -0.0594422)
(-0.0112487 0.0754485 -0.0459127)
(-0.020998 0.0511114 -0.0227284)
(-0.0219028 0.0212163 0.00564995)
(-0.0147603 -0.0109174 0.0351252)
(-0.00104875 -0.0419284 0.0623435)
(0.0167114 -0.0686745 0.0848932)
(0.0385862 -0.0881853 0.101349)
(0.043764 -0.105842 0.0947403)
(0.0655511 -0.0985643 0.0958746)
(0.078501 -0.0742395 0.0849143)
(0.0825981 -0.033166 0.0604587)
(0.0762297 0.0198473 0.023147)
(0.0591126 0.0724135 -0.0198924)
(0.0336655 0.108812 -0.0562939)
(0.00534388 0.12019 -0.0760084)
(-0.0196154 0.108396 -0.0765775)
(-0.0368698 0.0808604 -0.0614143)
(-0.0446389 0.0450347 -0.0361331)
(-0.0431102 0.00653022 -0.00613134)
(-0.0334491 -0.0305203 0.024209)
(-0.0175048 -0.0632029 0.0517255)
(0.00202129 -0.0891159 0.0742633)
(0.0238301 -0.106181 0.0904866)
(0.0488704 -0.122705 0.0885192)
(0.0715264 -0.103802 0.0904238)
(0.0826818 -0.0639334 0.0791241)
(0.0832379 -0.00883352 0.0548678)
(0.07285 0.0483913 0.0213947)
(0.053348 0.0922394 -0.0131717)
(0.0284563 0.113705 -0.0405353)
(0.00213248 0.112851 -0.0562116)
(-0.0219945 0.0945849 -0.0593039)
(-0.0405385 0.0643645 -0.0509285)
(-0.0506873 0.0267261 -0.0333455)
(-0.0508023 -0.0143519 -0.00955752)
(-0.0408645 -0.0548385 0.0169936)
(-0.0225495 -0.0905689 0.0431494)
(0.000723697 -0.11754 0.0660968)
(0.0268875 -0.132231 0.083519)
(0.0287653 -0.130508 0.0545271)
(0.042361 -0.107693 0.0564934)
(0.0480669 -0.0653917 0.0498363)
(0.0478548 -0.00762007 0.0332743)
(0.0411712 0.0548406 0.00760881)
(0.027008 0.105912 -0.0219436)
(0.00634564 0.132554 -0.0475398)
(-0.0168625 0.131692 -0.0630488)
(-0.0375589 0.108325 -0.0662669)
(-0.0516609 0.0699564 -0.0582647)
(-0.0568889 0.023616 -0.042002)
(-0.0528632 -0.0245724 -0.0211634)
(-0.0408802 -0.069209 0.000734287)
(-0.0235451 -0.105645 0.0209096)
(-0.00445939 -0.130294 0.0375172)
(0.0137379 -0.140614 0.0493314)
(0.00715937 -0.141736 0.0218437)
(0.0129375 -0.113906 0.0235476)
(0.0133502 -0.0681833 0.0202532)
(0.0108778 -0.00852028 0.00989121)
(0.00579092 0.0551138 -0.00812584)
(-0.00307262 0.107669 -0.0307371)
(-0.0163784 0.135718 -0.0515829)
(-0.032104 0.134714 -0.0645362)
(-0.0462187 0.108879 -0.0668908)
(-0.0550944 0.0661539 -0.0595905)
(-0.0568297 0.0147057 -0.0457361)
(-0.051426 -0.0380485 -0.0290556)
(-0.0404272 -0.0856435 -0.0128017)
(-0.0264161 -0.122853 0.000887666)
(-0.0125532 -0.145983 0.0111509)
(-0.00123341 -0.15274 0.017958)
(-0.0150823 -0.142958 -0.00923373)
(-0.0159521 -0.111665 -0.0076673)
(-0.0198326 -0.0652605 -0.00781702)
(-0.0238311 -0.00698451 -0.0122639)
(-0.0270914 0.054569 -0.0225014)
(-0.0304736 0.106033 -0.0371334)
(-0.0355685 0.134175 -0.0515688)
(-0.042447 0.132927 -0.0605109)
(-0.0489933 0.105288 -0.0612113)
(-0.0525971 0.0594644 -0.0544394)
(-0.0517465 0.00480037 -0.0432346)
(-0.0464913 -0.0500638 -0.031221)
(-0.038168 -0.0978631 -0.0213034)
(-0.0289156 -0.133175 -0.0148707)
(-0.0211831 -0.1527 -0.011602)
(-0.0164122 -0.154833 -0.0100129)
(-0.0352498 -0.135888 -0.0360736)
(-0.0412015 -0.103004 -0.0344866)
(-0.048091 -0.0581579 -0.0317156)
(-0.0525378 -0.00379316 -0.0305139)
(-0.0534267 0.0529951 -0.0330245)
(-0.0514229 0.100837 -0.0392553)
(-0.0486899 0.127521 -0.0464599)
(-0.0470142 0.126043 -0.0505927)
(-0.0462625 0.0979708 -0.049159)
(-0.045087 0.0512092 -0.0427354)
(-0.0424577 -0.00417297 -0.0341937)
(-0.0383638 -0.058637 -0.0269895)
(-0.0336984 -0.104407 -0.0236465)
(-0.0299061 -0.136137 -0.0247545)
(-0.0285729 -0.151163 -0.0287171)
(-0.0297436 -0.148733 -0.0324465)
(-0.0501201 -0.121839 -0.0558428)
(-0.0592372 -0.089643 -0.054233)
(-0.0676922 -0.0484576 -0.0490378)
(-0.0717048 -2.8707e-05 -0.0428968)
(-0.0701162 0.0500484 -0.0383503)
(-0.063448 0.0924683 -0.0365022)
(-0.0541046 0.116567 -0.0363356)
(-0.0450688 0.115098 -0.0353477)
(-0.0380088 0.0882221 -0.0316071)
(-0.0329576 0.0429664 -0.0254966)
(-0.0294335 -0.0104968 -0.0195578)
(-0.027283 -0.0621873 -0.0169603)
(-0.0267786 -0.104144 -0.0198253)
(-0.0284925 -0.13131 -0.0279918)
(-0.0330706 -0.141757 -0.0387156)
(-0.0391468 -0.135609 -0.0475256)
(-0.0567157 -0.102421 -0.0661499)
(-0.0669431 -0.073207 -0.0648339)
(-0.0754508 -0.0374933 -0.0581422)
(-0.0784055 0.00353063 -0.048482)
(-0.07472 0.0457134 -0.0385281)
(-0.0647518 0.0817699 -0.0300485)
(-0.0507872 0.102793 -0.0233668)
(-0.0363962 0.101823 -0.0175303)
(-0.0246496 0.0777923 -0.0114799)
(-0.0169484 0.0364056 -0.0055251)
(-0.0134162 -0.0127018 -0.00177171)
(-0.0137088 -0.0596096 -0.00298111)
(-0.0173636 -0.0965005 -0.0108679)
(-0.0239762 -0.118788 -0.0246732)
(-0.0332385 -0.12525 -0.0408338)
(-0.0427833 -0.116779 -0.0540265)
(-0.0530756 -0.0800027 -0.0652636)
(-0.0623381 -0.0555533 -0.0648882)
(-0.0693844 -0.0265521 -0.0581005)
(-0.0709148 0.00628749 -0.0471522)
(-0.0659662 0.0401369 -0.034589)
(-0.0546426 0.0695532 -0.0222957)
(-0.0387768 0.0874037 -0.0112666)
(-0.0218501 0.0874493 -0.00168922)
(-0.00768037 0.0677252 0.00654235)
(0.00117587 0.032324 0.0128737)
(0.00393187 -0.0103077 0.0155295)
(0.00110198 -0.0508667 0.0121717)
(-0.00611452 -0.0820173 0.00143275)
(-0.0163379 -0.0997251 -0.0155681)
(-0.0283584 -0.103336 -0.0349196)
(-0.0394618 -0.0942559 -0.0511478)
(-0.039003 -0.0574512 -0.0523995)
(-0.0452223 -0.0385928 -0.0536559)
(-0.0494014 -0.0166802 -0.0484303)
(-0.0493287 0.00810284 -0.0390091)
(-0.0442582 0.0340245 -0.0274945)
(-0.0339635 0.0571263 -0.0152959)
(-0.0194772 0.0718971 -0.00328757)
(-0.00353771 0.0731216 0.00790762)
(0.0101134 0.0584824 0.0177225)
(0.018301 0.0304952 0.0251421)
(0.0196491 -0.00411872 0.0283927)
(0.0146893 -0.0373049 0.0253643)
(0.00520001 -0.0625725 0.0148681)
(-0.0066297 -0.0764508 -0.00196222)
(-0.0188828 -0.0786317 -0.0213881)
(-0.0290318 -0.0706692 -0.0384627)
(-0.0165401 -0.0378727 -0.0282206)
(-0.0176583 -0.0242591 -0.0313493)
(-0.0177577 -0.00866887 -0.0292247)
(-0.0159977 0.00934767 -0.0241757)
(-0.0120439 0.0287522 -0.0175548)
(-0.00525845 0.0465563 -0.00968371)
(0.00442875 0.0585392 -0.000575118)
(0.0155805 0.0606392 0.0094584)
(0.0253458 0.0507602 0.0196123)
(0.0307043 0.0302971 0.0284737)
(0.0300249 0.00409196 0.0340173)
(0.0237352 -0.0215672 0.0340539)
(0.0138667 -0.0413852 0.0272921)
(0.00300865 -0.0524859 0.0144888)
(-0.00658719 -0.0546429 -0.0013278)
(-0.0126943 -0.0491823 -0.0162383)
(0.0101299 -0.024388 0.00449736)
(0.0159214 -0.0146755 0.000119414)
(0.0207813 -0.00339563 -0.00180497)
(0.0243269 0.010433 -0.00342047)
(0.0261758 0.0258777 -0.00496674)
(0.0273716 0.0402135 -0.00508704)
(0.0293432 0.050059 -0.00231357)
(0.0323677 0.0524866 0.00387636)
(0.0351017 0.0460438 0.0128488)
(0.0354512 0.0316275 0.022973)
(0.0320725 0.0125226 0.0319164)
(0.0253352 -0.00682168 0.0372203)
(0.0171561 -0.022475 0.0372164)
(0.00996805 -0.0321544 0.0319166)
(0.00579364 -0.0355081 0.0232165)
(0.00686211 -0.0333584 0.0137886)
(0.0356134 -0.0197089 0.0405251)
(0.049264 -0.0121393 0.0362336)
(0.059383 -0.00220571 0.0302293)
(0.0648553 0.0111708 0.0208387)
(0.0642181 0.0263313 0.00918191)
(0.0587052 0.0398804 -0.00127115)
(0.0512058 0.0487192 -0.00706366)
(0.0439942 0.0509625 -0.00651653)
(0.0376324 0.0460852 9.95427e-05)
(0.0314746 0.0350275 0.011065)
(0.0249494 0.0201025 0.0237989)
(0.0185209 0.00433327 0.0355059)
(0.0137233 -0.00949541 0.0439746)
(0.0123012 -0.0195416 0.0482514)
(0.0154211 -0.0251912 0.0489145)
(0.0257118 -0.0266156 0.0474397)
(0.0549421 -0.0252482 0.0728834)
(0.0758357 -0.0183047 0.0700526)
(0.0905704 -0.00654714 0.0608614)
(0.0979448 0.0106025 0.0442573)
(0.0952014 0.0298922 0.0225074)
(0.0832222 0.0460992 0.00125303)
(0.0661267 0.0555983 -0.0137301)
(0.048319 0.0573641 -0.0193928)
(0.0324889 0.0520189 -0.0155961)
(0.0196649 0.0410292 -0.00411486)
(0.0102512 0.0264173 0.0122362)
(0.00485238 0.0104842 0.0302881)
(0.00442847 -0.0045933 0.0472058)
(0.00968427 -0.0171178 0.0610499)
(0.0204746 -0.0260999 0.0711563)
(0.0397346 -0.031033 0.0780173)
(0.0652206 -0.0408506 0.095104)
(0.0910103 -0.0333123 0.0943224)
(0.108591 -0.017091 0.0833944)
(0.117274 0.0074659 0.0617613)
(0.113308 0.0349771 0.0320779)
(0.0964706 0.0573225 0.00152276)
(0.0712986 0.0693172 -0.0217992)
(0.0442263 0.0705404 -0.033214)
(0.020273 0.062954 -0.0320538)
(0.00216525 0.0489565 -0.0201899)
(-0.00888658 0.0309025 -0.000787155)
(-0.012368 0.0110969 0.0225102)
(-0.00811172 -0.00827193 0.0462403)
(0.00342107 -0.0252928 0.0676578)
(0.0206822 -0.0384784 0.0851498)
(0.0462313 -0.0466884 0.0984112)
(0.0661224 -0.0651426 0.103868)
(0.0935847 -0.0556142 0.104818)
(0.111559 -0.0330067 0.0935635)
(0.12006 0.00108571 0.0697851)
(0.115315 0.0391916 0.0356758)
(0.0958738 0.0699482 -0.00132653)
(0.0655241 0.0857665 -0.0312914)
(0.0321151 0.0863947 -0.0474398)
(0.00295047 0.0752852 -0.0482346)
(-0.0177953 0.0561368 -0.0358533)
(-0.0286142 0.0320849 -0.014165)
(-0.0294666 0.00588867 0.0125666)
(-0.0210569 -0.0198703 0.040439)
(-0.00481061 -0.0427766 0.0662994)
(0.0166658 -0.0607245 0.0880147)
(0.0447787 -0.0718357 0.104648)
(0.058618 -0.0829823 0.0988922)
(0.0847328 -0.0722038 0.100848)
(0.101043 -0.0460644 0.0905287)
(0.107428 -0.00482145 0.067256)
(0.100809 0.0452995 0.0320868)
(0.0802376 0.0899622 -0.00808057)
(0.049259 0.114442 -0.0419603)
(0.0152738 0.11419 -0.0607566)
(-0.0142942 0.094829 -0.0622534)
(-0.0347643 0.0648138 -0.0492412)
(-0.0443104 0.030745 -0.0264317)
(-0.0430466 -0.0031215 0.00141634)
(-0.0321941 -0.0339414 0.0303009)
(-0.0138055 -0.0596838 0.0570871)
(0.00904892 -0.0787635 0.0796149)
(0.0363889 -0.0897522 0.0965881)
(0.0659638 -0.0706761 0.0833102)
(0.0915696 -0.0518091 0.0871658)
(0.10461 -0.0183313 0.0791407)
(0.10614 0.0259546 0.0595565)
(0.0948339 0.0702426 0.031322)
(0.0723689 0.101012 0.000892682)
(0.0431397 0.110986 -0.0248631)
(0.0122047 0.101713 -0.0415398)
(-0.0157471 0.0790966 -0.0472713)
(-0.0366414 0.0490564 -0.0421291)
(-0.0474327 0.0161308 -0.0278009)
(-0.0466597 -0.016139 -0.00707484)
(-0.0346513 -0.0446805 0.0167632)
(-0.0135287 -0.066865 0.0407285)
(0.0126978 -0.080734 0.0623779)
(0.0437288 -0.0848224 0.0798844)
(0.0502756 -0.0822544 0.0508768)
(0.0676558 -0.0600215 0.0550923)
(0.0760522 -0.0226979 0.0513416)
(0.0774588 0.0265191 0.0388209)
(0.0703381 0.0779663 0.0177361)
(0.053481 0.116777 -0.00804739)
(0.0286976 0.131774 -0.0317905)
(0.00113255 0.122175 -0.0475768)
(-0.0233237 0.0944974 -0.052679)
(-0.0401692 0.0566297 -0.0475194)
(-0.0469258 0.0152181 -0.0345838)
(-0.0431443 -0.0244376 -0.0171901)
(-0.0301701 -0.0580613 0.0015232)
(-0.0108095 -0.0825353 0.0192193)
(0.0109293 -0.0960796 0.0344322)
(0.0337844 -0.0977804 0.0461647)
(0.0307199 -0.0943835 0.0184633)
(0.0398641 -0.068184 0.0219733)
(0.0429983 -0.0278416 0.0211076)
(0.0424786 0.0232789 0.0143106)
(0.0378295 0.0764425 0.000590744)
(0.0274334 0.117837 -0.0180971)
(0.0108936 0.135465 -0.0365164)
(-0.00887523 0.12652 -0.0489692)
(-0.0269482 0.0965694 -0.0525067)
(-0.0390542 0.0540704 -0.0476059)
(-0.0428849 0.00703696 -0.0369301)
(-0.0382473 -0.0377147 -0.023803)
(-0.0267029 -0.0747374 -0.0110181)
(-0.0110655 -0.100325 -0.000184692)
(0.00513136 -0.112723 0.00824133)
(0.0201856 -0.111534 0.0142937)
(0.00783655 -0.0985822 -0.0129671)
(0.00969098 -0.0693877 -0.0101557)
(0.00839063 -0.0284935 -0.00835554)
(0.00640197 0.0212841 -0.00977414)
(0.00405489 0.07264 -0.0161315)
(2.06575e-05 0.113556 -0.0268549)
(-0.00740766 0.132074 -0.0383995)
(-0.0178204 0.123441 -0.0460978)
(-0.0282498 0.0917776 -0.0472416)
(-0.0352668 0.0458866 -0.0423132)
(-0.036795 -0.00482384 -0.0339801)
(-0.0326237 -0.0520916 -0.0254689)
(-0.0241019 -0.0895558 -0.0191911)
(-0.0135988 -0.113363 -0.015943)
(-0.00385283 -0.122301 -0.0149288)
(0.00371829 -0.116977 -0.0146189)
(-0.0159057 -0.095296 -0.0408597)
(-0.0196136 -0.0645248 -0.0383759)
(-0.0240501 -0.0252619 -0.0339354)
(-0.0265438 0.0204872 -0.0301748)
(-0.0263841 0.0669494 -0.0293659)
(-0.0246266 0.104239 -0.0320305)
(-0.0236199 0.121467 -0.0362263)
(-0.024904 0.112759 -0.0386029)
(-0.0276748 0.08059 -0.036971)
(-0.0297975 0.0334697 -0.0318227)
(-0.0296406 -0.0182724 -0.0257626)
(-0.0268795 -0.0652519 -0.0218847)
(-0.022356 -0.100513 -0.0222168)
(-0.0176613 -0.12039 -0.0267016)
(-0.0145842 -0.124537 -0.0331635)
(-0.0135853 -0.114725 -0.038336)
(-0.0370923 -0.0853299 -0.0624021)
(-0.044092 -0.0549462 -0.0598225)
(-0.0501815 -0.0193795 -0.052931)
(-0.0523144 0.0202157 -0.0444915)
(-0.0496983 0.0595636 -0.0371598)
(-0.0431721 0.0909318 -0.0323206)
(-0.035261 0.105123 -0.0294543)
(-0.028755 0.0960735 -0.0266371)
(-0.0248128 0.0648065 -0.0223447)
(-0.0228339 0.0189491 -0.0170702)
(-0.021793 -0.0309474 -0.0132251)
(-0.0211803 -0.0749209 -0.0136943)
(-0.021105 -0.105815 -0.0201289)
(-0.0221581 -0.120413 -0.0316829)
(-0.0251367 -0.119363 -0.0449152)
(-0.0292251 -0.105539 -0.0549604)
(-0.0520237 -0.0699145 -0.0751069)
(-0.0598841 -0.0420737 -0.0722667)
(-0.0660843 -0.0119517 -0.0635055)
(-0.0672186 0.0200345 -0.0514939)
(-0.0625713 0.0510235 -0.0391002)
(-0.0527755 0.0753027 -0.0282581)
(-0.0401841 0.0855528 -0.0195225)
(-0.028148 0.0762038 -0.0122487)