/*--------------------------------*- C++ -*----------------------------------*\
| =========                 |                                                 |
| \\      /  F ield         | OpenFOAM: The Open Source CFD Toolbox           |
|  \\    /   O peration     | Version:  3.0.0                                 |
|   \\  /    A nd           | Web:      www.OpenFOAM.org                      |
|    \\/     M anipulation  |                                                 |
\*---------------------------------------------------------------------------*/
FoamFile
{
    version     2.0;
    format      ascii;
    class       surfaceScalarField;
    location    "9.25";
    object      phi;
}
// * * * * * * * * * * * * * * * * * * * * * * * * * * * * * * * * * * * * * //

dimensions      [0 3 -1 0 0 0 0];

internalField   nonuniform List<scalar> 
11520
(
2.04159e-06
-0.00030619
0.000268246
-9.87669e-05
-0.000203884
0.00031489
-0.000198193
-9.08119e-05
0.000310028
-0.000280235
1.52808e-05
0.000256758
-0.000336504
9.12225e-05
0.000165087
-0.000364111
0.000121403
5.12496e-05
-0.000362016
0.000100834
-6.2799e-05
-0.000329633
3.76984e-05
-0.00015615
-0.000268512
-5.21762e-05
-0.000216341
-0.000184369
-0.000151415
-0.000241421
-8.73508e-05
-0.000245365
-0.000235161
8.19797e-06
-0.000324121
-0.000201146
8.49188e-05
-0.000381939
-0.000140219
0.000125427
-0.000414869
-5.33157e-05
0.000119223
-0.000418435
5.36657e-05
-0.00038539
0.000167232
-0.000203774
-0.000189683
0.000177239
-0.000316203
-9.05781e-05
0.000233204
-0.000408938
1.35126e-06
0.000248939
-0.000468683
7.57539e-05
0.000224469
-0.000490789
0.00011855
0.000167103
-0.000475356
0.000120457
8.98678e-05
-0.000426478
8.17059e-05
8.384e-06
-0.000350818
1.19978e-05
-6.34014e-05
-0.000256964
-7.36339e-05
-0.00011833
-0.000155761
-0.0001592
-0.00015564
-6.01004e-05
-0.000232637
-0.000177128
1.55073e-05
-0.000287094
-0.000181227
5.60579e-05
-0.000319542
-0.000160931
4.98784e-05
-0.00032785
-0.000109335
-4.96316e-06
-0.000310232
-2.8632e-05
-0.000266008
6.59913e-05
-0.000373042
-3.15881e-05
9.06725e-05
-0.000484843
4.03416e-05
0.000156953
-0.000561516
9.58827e-05
0.000196264
-0.000594951
0.00012989
0.000204752
-0.000583712
0.000135118
0.000185921
-0.000532541
0.000108644
0.000147681
-0.000450175
5.46653e-05
9.92648e-05
-0.000347425
-1.60131e-05
4.81252e-05
-0.00023624
-8.94856e-05
-2.33364e-06
-0.000129831
-0.000151831
-5.26792e-05
-4.23763e-05
-0.000193749
-0.000103877
1.17492e-05
-0.000211922
-0.000149767
1.94327e-05
-0.000208849
-0.0001744
-2.56462e-05
-0.000187283
-0.0001608
-0.000118027
-0.000150897
-0.000104826
-0.000104438
-2.10776e-05
-0.000486428
0.000149181
5.2551e-06
-0.000586948
0.000176995
8.14667e-05
-0.000643448
0.000187706
0.000144345
-0.000652263
0.000177479
0.000184217
-0.000615368
0.000144921
0.000200765
-0.000540493
9.23019e-05
0.000197283
-0.000438865
2.64682e-05
0.00017789
-0.000323189
-4.17478e-05
0.000145807
-0.000207095
-9.94107e-05
0.000101667
-0.000104742
-0.000134539
4.34509e-05
-3.04999e-05
-0.000139855
-3.0528e-05
2.06519e-06
-0.000115671
-0.000112866
-1.82985e-05
-7.01959e-05
-0.000180076
-9.15646e-05
-1.5706e-05
-0.000204866
-0.000207045
3.7715e-05
-0.000174076
8.10018e-05
-9.84592e-05
-0.000530484
0.000330889
-8.57703e-05
-0.000612422
0.000306222
-5.91369e-07
-0.000647293
0.000268775
8.0464e-05
-0.000635799
0.000213585
0.000145264
-0.000582595
0.000144746
0.000189349
-0.000496833
6.87811e-05
0.000212515
-0.000390083
-5.94706e-06
0.000215716
-0.000275039
-6.91803e-05
0.00020002
-0.000165445
-0.000109363
0.000165228
-7.57584e-05
-0.000116074
0.000108245
-1.96863e-05
-8.36923e-05
2.47537e-05
-8.54353e-06
-1.53378e-05
-8.01909e-05
-4.9187e-05
7.42717e-05
-0.000180499
-0.000137923
0.000163012
-0.000239832
-0.00026066
0.000232455
-0.000235243
0.000270475
-0.000170443
-0.000498424
0.000487799
-0.00018013
-0.000555185
0.000412862
-9.19343e-05
-0.000568331
0.000327175
1.52285e-06
-0.00054107
0.000228812
8.25855e-05
-0.000480735
0.000126931
0.00014517
-0.000396563
3.17179e-05
0.000185593
-0.000298565
-4.80989e-05
0.000203419
-0.000197481
-0.000103585
0.00020003
-0.000105864
-0.00012476
0.000176469
-3.7426e-05
-0.000102877
0.000129408
-3.92461e-06
-3.43592e-05
5.10099e-05
-1.25799e-05
7.50516e-05
-5.92178e-05
-6.60005e-05
0.000205841
-0.000177829
-0.000157002
0.000326351
-0.000264228
-0.000271208
0.000410292
-0.00028629
0.000443212
-0.000238875
-0.00039109
0.000593129
-0.000264576
-0.000417127
0.000479053
-0.000176906
-0.000407895
0.000349815
-7.80086e-05
-0.000369793
0.000213468
1.33693e-05
-0.000311724
8.59087e-05
8.54151e-05
-0.000241719
-2.09782e-05
0.000132538
-0.000166042
-9.99206e-05
0.00015462
-9.17194e-05
-0.000144039
0.000156313
-2.88467e-05
-0.000144814
0.000142234
1.09938e-05
-9.55499e-05
0.000109903
1.90807e-05
4.696e-06
4.78697e-05
-7.27306e-06
0.000147378
-5.1571e-05
-6.46823e-05
0.000309926
-0.000172381
-0.000145583
0.000455302
-0.000275178
-0.000237255
0.000550087
-0.000321866
0.000577892
-0.000298218
-0.000216875
0.000620887
-0.000306009
-0.000207851
0.000485595
-0.000222425
-0.000177958
0.000323722
-0.000122317
-0.000136181
0.000162303
-2.88537e-05
-9.18305e-05
2.33575e-05
4.15425e-05
-4.91285e-05
-8.29137e-05
8.16314e-05
-8.41147e-06
-0.000152988
9.4267e-05
2.81775e-05
-0.000181936
9.01577e-05
5.42081e-05
-0.00016239
7.95256e-05
6.11586e-05
-8.95434e-05
6.16337e-05
4.44124e-05
3.41947e-05
2.18084e-05
6.28456e-06
0.000197514
-5.46834e-05
-4.62952e-05
0.000376758
-0.000161567
-0.000105754
0.000534334
-0.000266223
-0.000162877
0.000632254
-0.000329172
0.000650969
-0.000328954
6.85486e-06
0.0005554
-0.000266489
5.17547e-05
0.000417295
-0.000192296
9.56252e-05
0.000243726
-9.92499e-05
0.000129423
7.98351e-05
-1.57043e-05
0.000146545
-4.95552e-05
3.80209e-05
0.000149534
-0.00014013
5.46846e-05
0.000145194
-0.000193188
4.24576e-05
0.000136988
-0.00020486
2.02142e-05
0.000122407
-0.000167792
4.81568e-06
9.71113e-05
-7.91457e-05
-2.68451e-06
6.08737e-05
5.53524e-05
-1.9324e-05
1.99354e-05
0.000222015
-6.49493e-05
-1.65493e-05
0.000397834
-0.000142217
-4.22987e-05
0.000548768
-0.000228639
-5.30481e-05
0.000636515
-0.000289245
0.000635809
-0.000299129
0.000249739
0.000403539
-0.000142136
0.000320445
0.000279921
-8.13879e-05
0.000366648
0.000121033
-6.35569e-06
0.000379876
-1.7442e-05
5.38443e-05
0.000359254
-0.000115004
7.61408e-05
0.000315188
-0.000176128
5.51824e-05
0.000261635
-0.000206642
5.84413e-06
0.000207228
-0.000201998
-4.39622e-05
0.000154022
-0.00015429
-7.09473e-05
0.000102616
-6.20878e-05
-7.29805e-05
5.69875e-05
6.64062e-05
-6.82627e-05
2.55395e-05
0.000215994
-7.91636e-05
1.76767e-05
0.000365396
-0.000114066
3.79833e-05
0.000486504
-0.000160808
8.44195e-05
0.000546366
-0.00019363
0.000515512
-0.000188909
0.000456417
0.00020539
2.08713e-05
0.000537252
0.000101905
7.0321e-05
0.000574078
-1.80252e-05
0.000123459
0.00056021
-0.000107
0.000152952
0.000500741
-0.000156046
0.000136387
0.00041169
-0.000179463
7.11517e-05
0.00031323
-0.00018577
-2.00038e-05
0.0002188
-0.000169446
-0.000100332
0.000135963
-0.00012178
-0.000141817
7.04397e-05
-4.19883e-05
-0.00014172
2.92446e-05
6.12622e-05
-0.000118619
2.05523e-05
0.000173545
-9.51152e-05
5.11424e-05
0.000276645
-8.28272e-05
0.000122101
0.000349359
-7.817e-05
0.000226064
0.000367342
-6.53937e-05
0.000306545
-2.22136e-05
0.000582767
5.00019e-06
0.000170172
0.000653574
-7.49336e-05
0.000211772
0.000670704
-0.000141588
0.000246127
0.000629702
-0.00016912
0.000246638
0.000539001
-0.000163714
0.000192612
0.000416727
-0.000148101
8.58122e-05
0.000286452
-0.000133122
-4.31383e-05
0.00016659
-0.000113039
-0.000150101
7.03137e-05
-7.86694e-05
-0.000204253
7.46537e-06
-2.812e-05
-0.000203184
-1.4301e-05
3.25616e-05
-0.00016511
1.00716e-05
9.29198e-05
-0.000112013
8.11397e-05
0.000140242
-5.75884e-05
0.000194315
0.000160185
-5.55271e-06
0.000337702
0.000136417
5.33599e-05
6.01974e-05
0.000143303
0.000612815
-0.000165374
0.000272971
0.00065597
-0.000215264
0.000312657
0.000644455
-0.000224839
0.000333086
0.000578362
-0.000192482
0.000309662
0.000467403
-0.000138
0.000225212
0.000328928
-8.9735e-05
8.68192e-05
0.000186798
-6.12201e-05
-6.86386e-05
6.30882e-05
-4.76624e-05
-0.000192796
-2.54028e-05
-3.92424e-05
-0.000254715
-6.7465e-05
-3.07211e-05
-0.000252769
-5.8031e-05
-2.21525e-05
-0.000204233
2.05494e-06
-1.72834e-05
-0.000130018
0.000106172
-2.21724e-05
-4.54153e-05
0.000242726
-4.4941e-05
4.11314e-05
0.000395515
-9.52613e-05
0.000133664
-0.000165418
0.000257985
0.000552557
-0.000289473
0.00032439
0.000557269
-0.000299903
0.000364203
0.000512297
-0.000256471
0.000373747
0.000424545
-0.000175829
0.000332193
0.000304925
-8.65126e-05
0.000227458
0.000168897
-1.91183e-05
7.18499e-05
3.83053e-05
1.11019e-05
-9.47161e-05
-6.49211e-05
7.90332e-06
-0.000224337
-0.000124651
-1.7187e-05
-0.000288502
-0.000132604
-5.38736e-05
-0.000286185
-8.85206e-05
-9.49562e-05
-0.000233176
6.94219e-07
-0.000137186
-0.000148703
0.000122385
-0.000180519
-4.82752e-05
0.00025997
-0.000228437
5.7116e-05
0.000393998
-0.000284662
0.000167467
-0.000331951
0.000304588
0.000419501
-0.00035868
0.000329533
0.00038268
-0.000323346
0.000369828
0.00030606
-0.000237409
0.000371364
0.00020352
-0.000126133
0.00031925
8.78049e-05
-2.12386e-05
0.000207153
-2.71571e-05
4.76353e-05
5.07989e-05
-0.000124159
6.65277e-05
-0.000111244
-0.00018649
3.9972e-05
-0.000235756
-0.000203629
-1.78923e-05
-0.000298087
-0.000173325
-9.16801e-05
-0.000297604
-0.000100578
-0.000168944
-0.00024773
3.79245e-06
-0.000241568
-0.000164952
0.00012451
-0.000305755
-6.33092e-05
0.000242991
-0.000361295
4.62189e-05
0.000339785
-0.000407106
0.000160243
-0.00042482
0.000290841
0.000244014
0.000297151
0.000170101
0.00033758
6.74726e-05
0.000336734
-4.31412e-05
0.000285893
-0.000143982
0.000182602
-0.000222418
4.2284e-05
-0.000269119
-0.000101994
-0.000278359
-0.000214142
-0.00024941
-0.000273424
-0.00018642
-0.000278658
-9.77076e-05
-0.000240282
5.03249e-06
-0.000171047
0.000107373
-8.16851e-05
0.000192953
1.88858e-05
0.000246456
0.000124954
0.000237245
-0.00012475
-0.000263004
0.000259175
-0.000208279
-0.000174497
0.000307956
-0.000286066
-8.30248e-05
0.000302952
-0.000343895
-1.53e-06
0.000245934
-0.000374737
5.34541e-05
0.000147295
-0.000377773
7.11727e-05
2.5761e-05
-0.000356639
4.90149e-05
-9.5624e-05
-0.000315237
-6.39515e-06
-0.000195633
-0.000257941
-8.22429e-05
-0.00026244
-0.000190476
-0.000163442
-0.000294103
-0.000120898
-0.000236861
-0.000293101
-5.91637e-05
-0.000294646
-0.000260689
-1.56648e-05
-0.000333771
-0.000196033
5.06595e-07
-0.000352551
-0.000100606
-1.50662e-05
-0.000348445
1.65461e-05
-0.000317852
0.000135657
-0.000274071
-0.000132456
0.00014643
-0.000365204
-5.44256e-05
0.000204265
-0.000434314
1.4894e-05
0.00022013
-0.000470085
6.59839e-05
0.000192726
-0.000468792
8.97249e-05
0.00012954
-0.000432465
8.00239e-05
4.4689e-05
-0.000368396
3.8449e-05
-4.51189e-05
-0.000286251
-2.64084e-05
-0.000125533
-0.000197303
-0.000100735
-0.000188786
-0.00011337
-0.000169532
-0.000233484
-4.61323e-05
-0.000221331
-0.000259895
-5.70734e-06
-0.000252028
-0.000264269
9.13119e-07
-0.000263206
-0.000238116
-2.84989e-05
-0.00025679
-0.000175683
-9.05962e-05
-0.000232931
-8.20486e-05
-0.000192324
2.41987e-05
-0.00037782
3.45255e-05
4.02759e-05
-0.000466712
8.37602e-05
0.000107659
-0.000520488
0.000117785
0.000147149
-0.000532968
0.000130437
0.000152779
-0.000502998
0.000117197
0.00012848
-0.00043594
7.75445e-05
8.31021e-05
-0.000342011
1.68839e-05
2.69005e-05
-0.000234219
-5.43375e-05
-3.17376e-05
-0.000127435
-0.000121042
-8.88099e-05
-3.69297e-05
-0.000168438
-0.000144279
2.31355e-05
-0.000187205
-0.000198069
4.2246e-05
-0.000178392
-0.000242514
1.63073e-05
-0.000151237
-0.000260431
-5.08159e-05
-0.000114312
-0.000236155
-0.000148236
-7.21055e-05
-0.000168231
-2.83045e-05
-7.20979e-05
-0.000428908
0.000218102
-5.95969e-05
-0.000507553
0.000227398
1.64737e-05
-0.000543532
0.000219822
7.82869e-05
-0.000534444
0.000189804
0.000115762
-0.000482444
0.000137591
0.000128372
-0.000395269
6.75968e-05
0.000120055
-0.000284716
-1.14858e-05
9.57071e-05
-0.00016545
-8.70129e-05
5.92156e-05
-5.37058e-05
-0.000143306
1.21866e-05
3.36083e-05
-0.000165353
-4.69481e-05
8.15409e-05
-0.00014563
-0.000120035
8.0294e-05
-9.0614e-05
-0.000199397
2.85155e-05
-1.8535e-05
-0.000260999
-6.5046e-05
5.24054e-05
-0.000278022
-0.000183978
0.000112199
-0.000239449
0.00015523
-0.000155788
-0.000426893
0.000394694
-0.000154685
-0.000488512
0.00036151
-7.30843e-05
-0.000504814
0.000310121
6.46647e-06
-0.000476697
0.000236636
7.03148e-05
-0.000409365
0.000145813
0.000113795
-0.00031235
4.68462e-05
0.000136252
-0.000198086
-4.85001e-05
0.000138466
-8.08991e-05
-0.00012614
0.000121961
2.31051e-05
-0.000169926
8.78432e-05
9.71595e-05
-0.000165094
3.39316e-05
0.000127505
-0.000105908
-4.53129e-05
0.000107005
-3.69239e-06
-0.000146613
3.72572e-05
0.000114667
-0.000243952
-7.00292e-05
0.000220408
-0.000300549
-0.000195458
0.000297189
-0.000294804
0.000337968
-0.000229422
-0.000373917
0.000539929
-0.00024159
-0.000412903
0.000467479
-0.000158917
-0.000407499
0.00037374
-6.75002e-05
-0.000362597
0.000258305
1.60147e-05
-0.000286201
0.00013208
8.25056e-05
-0.00018926
8.61669e-06
0.000126881
-8.36018e-05
-9.78426e-05
0.000147104
1.84035e-05
-0.000173056
0.00014494
0.000102458
-0.000201201
0.000123689
0.00015366
-0.000168788
8.19004e-05
0.000161375
-7.24935e-05
9.8804e-06
0.000122807
7.24076e-05
-9.67496e-05
4.31568e-05
0.000232317
-0.00021583
-6.49653e-05
0.000369476
-0.000305173
-0.000182444
0.000461045
-0.000332668
0.00049908
-0.000292289
-0.000276489
0.000630172
-0.000306509
-0.000286823
0.000526028
-0.000225122
-0.000258494
0.000393521
-0.000126118
-0.000199345
0.000241758
-2.92327e-05
-0.000120941
8.81855e-05
5.09056e-05
-3.48138e-05
-4.99796e-05
0.000105007
4.9914e-05
-0.000158547
0.000130596
0.000124359
-0.000224082
0.000132895
0.000177686
-0.00023251
0.000120215
0.000198606
-0.00017287
9.30649e-05
0.000181095
-4.50067e-05
3.7894e-05
0.000127521
0.000132835
-5.8424e-05
4.62116e-05
0.000323599
-0.000182354
-5.08495e-05
0.000483909
-0.00029255
-0.000147658
0.000585132
-0.000349145
0.000618448
-0.000337065
-0.000141326
0.000646721
-0.000320184
-0.000118407
0.000520887
-0.000240202
-6.77637e-05
0.000357757
-0.000137197
-5.527e-07
0.000181176
-3.54831e-05
6.92869e-05
1.50697e-05
4.48188e-05
0.000132103
-0.000122966
9.18022e-05
0.000183404
-0.000221414
0.000105833
0.000219425
-0.000269239
9.92935e-05
0.000234022
-0.000254956
8.73757e-05
0.000221032
-0.000171061
7.28145e-05
0.000179866
-2.09498e-05
3.89183e-05
0.000117512
0.00017551
-3.50053e-05
4.4166e-05
0.000381366
-0.000145988
-3.04561e-05
0.000552026
-0.000259718
-9.52421e-05
0.000654279
-0.000333533
0.000677448
-0.000344245
2.67714e-05
0.000581127
-0.000249367
8.33451e-05
0.000444913
-0.000172895
0.000149484
0.000266588
-7.42194e-05
0.000212111
8.48194e-05
1.80261e-05
0.00025846
-7.31076e-05
7.98491e-05
0.000284199
-0.000193857
9.98365e-05
0.000291175
-0.000270539
8.46073e-05
0.000281178
-0.000295165
5.61375e-05
0.000253426
-0.000259041
3.66515e-05
0.000207788
-0.000158326
3.02185e-05
0.000149163
4.05829e-07
1.79462e-05
8.78439e-05
0.000197232
-2.5352e-05
3.43507e-05
0.000398252
-0.00010561
-5.00286e-06
0.000562187
-0.000199447
-2.5881e-05
0.000654066
-0.000268154
0.00065819
-0.000284052
0.000215149
0.000439883
-9.24336e-05
0.000296503
0.000306839
-2.46683e-05
0.000363782
0.000135901
5.70524e-05
0.000404824
-2.54175e-05
0.000123039
0.000412745
-0.00015325
0.000148363
0.000391029
-0.000241833
0.000124874
0.000348055
-0.000289508
6.77876e-05
0.000290478
-0.00029076
9.20909e-06
0.000222998
-0.000239312
-2.31962e-05
0.000151634
-0.000134478
-2.54644e-05
8.60576e-05
1.51803e-05
-1.74606e-05
3.8139e-05
0.000191203
-2.52165e-05
1.74604e-05
0.000364749
-5.98841e-05
2.6584e-05
0.000501503
-0.000109247
6.25449e-05
0.000569388
-0.000144912
0.000548651
-0.000140433
0.000384963
0.00024877
0.000100835
0.000474235
0.00013063
0.000157257
0.000526161
-7.23211e-06
0.000214666
0.000532614
-0.000123599
0.00024468
0.000495536
-0.000204091
0.000224306
0.000425892
-0.000251827
0.000150789
0.000336839
-0.000269372
4.89137e-05
0.00023901
-0.000253007
-4.02566e-05
0.000142295
-0.000198334
-8.60794e-05
5.81958e-05
-0.00010631
-8.57899e-05
-6.12467e-07
1.46832e-05
-5.93138e-05
-2.25985e-05
0.000149165
-3.10907e-05
-1.25536e-06
0.000275048
-1.44695e-05
6.21182e-05
0.000366489
-6.52973e-06
0.000158276
0.000398939
8.89788e-06
0.000355478
5.54221e-05
0.000488329
4.57895e-05
0.000265616
0.000564529
-4.76954e-05
0.000313898
0.000588254
-0.000133571
0.000348741
0.000557218
-0.000189666
0.000343741
0.000481211
-0.000215245
0.000279773
0.000375391
-0.000221236
0.00016104
0.000255045
-0.000213599
2.14335e-05
0.000133849
-0.000190133
-9.17785e-05
2.61123e-05
-0.000147205
-0.000147645
-5.31591e-05
-8.51921e-05
-0.000145031
-9.08792e-05
-9.57784e-06
-0.000103129
-7.87676e-05
6.93577e-05
-4.43174e-05
-1.51842e-05
0.000137066
1.68101e-05
9.31051e-05
0.000176607
7.60394e-05
0.000232833
0.000172101
0.000140469
0.000117532
0.000233291
0.00049744
-0.000135569
0.000366653
0.000543169
-0.000192826
0.000412059
0.000532099
-0.000219137
0.000429723
0.000469438
-0.000213671
0.000396328
0.000369391
-0.000188323
0.000298337
0.0002475
-0.000159877
0.000147351
0.000118564
-0.000137122
-1.61794e-05
-2.33047e-06
-0.000119008
-0.000143027
-9.87818e-05
-0.00010125
-0.000204219
-0.000155644
-8.10009e-05
-0.000200098
-0.000162559
-5.84441e-05
-0.000148452
-0.000116318
-3.72061e-05
-6.96953e-05
-2.13996e-05
-2.42757e-05
2.10086e-05
0.000110243
-2.89249e-05
0.000115021
0.000261805
-5.92033e-05
0.000213407
-0.000109896
0.000337454
0.000416249
-0.000269364
0.000401275
0.000422052
-0.000280902
0.000446476
0.000376943
-0.000251748
0.000451467
0.0002934
-0.000195976
0.000398042
0.000187107
-0.000133789
0.000279216
7.15038e-05
-8.51012e-05
0.000112677
-4.1206e-05
-6.01834e-05
-5.89447e-05
-0.000137483
-5.81584e-05
-0.000188909
-0.000202959
-7.24919e-05
-0.000251783
-0.000225891
-9.56752e-05
-0.000248579
-0.000200718
-0.000121862
-0.00019493
-0.000129467
-0.000148379
-0.000108781
-2.13755e-05
-0.000176025
-4.6165e-06
0.00010801
-0.000208219
0.000107025
0.000240215
-0.000246953
0.000223011
-0.000281151
0.000356719
0.000269984
-0.000339058
0.000381198
0.000235838
-0.00030334
0.000426412
0.000164292
-0.0002321
0.000423263
7.29245e-05
-0.00014513
0.000359771
-2.27719e-05
-6.59723e-05
0.000235033
-0.00011249
-1.43298e-05
6.9746e-05
-0.000188401
3.23832e-07
-9.58408e-05
-0.000242163
-1.94013e-05
-0.00022075
-0.000265245
-6.406e-05
-0.000283437
-0.000251897
-0.000121963
-0.000284664
-0.000201653
-0.000182685
-0.00023715
-0.000120156
-0.000239315
-0.000155513
-1.86255e-05
-0.000288807
-5.2058e-05
8.68832e-05
-0.000330609
6.31001e-05
0.000179379
-0.000362731
0.000183526
-0.000374089
0.000311203
9.89223e-05
0.000321402
3.21646e-05
0.000365957
-5.66509e-05
0.000361336
-0.000145986
0.00030028
-0.000219558
0.000185383
-0.000270502
3.62497e-05
-0.000297149
-0.000112348
-0.000299892
-0.000226324
-0.000278797
-0.000287533
-0.00023473
-0.00029603
-0.000171067
-0.000261408
-9.46545e-05
-0.000194319
-1.56098e-05
-0.000103452
5.30675e-05
3.26952e-06
9.90771e-05
0.000117351
0.000231187
-0.000214377
-0.000203368
0.000225375
-0.000270892
-0.00013047
0.000269904
-0.000318749
-5.73411e-05
0.000262464
-0.000348851
7.05516e-06
0.000201919
-0.000356235
5.02107e-05
9.97244e-05
-0.00034198
6.44911e-05
-2.34459e-05
-0.000310702
4.63194e-05
-0.000142701
-0.000268038
-1.19626e-06
-0.000237541
-0.000219678
-6.81476e-05
-0.00029835
-0.000171723
-0.000139796
-0.000325285
-0.000130892
-0.000201879
-0.00032167
-0.00010302
-0.000246772
-0.000288396
-9.1625e-05
-0.000273433
-0.000224135
-9.79886e-05
-0.000282388
-0.000130401
-0.000121556
-0.000272983
-1.62558e-05
-0.000243904
9.81131e-05
-0.000297092
-6.8415e-05
9.23437e-05
-0.000360929
-8.71618e-06
0.000146348
-0.000401413
4.27059e-05
0.000160566
-0.000411824
7.87421e-05
0.00013145
-0.000390028
9.15026e-05
6.64526e-05
-0.000338811
7.68627e-05
-1.88994e-05
-0.000266083
3.54849e-05
-0.000107013
-0.000182816
-2.64341e-05
-0.000183561
-0.000101937
-9.60097e-05
-0.000241803
-3.66968e-05
-0.000156917
-0.000281602
1.6866e-06
-0.000195831
-0.000304327
7.07255e-06
-0.000210048
-0.000306379
-1.93461e-05
-0.000205726
-0.000279405
-7.08811e-05
-0.000188449
-0.000218087
-0.000139255
-0.000159649
-0.000127009
-0.000120181
-2.25553e-05
-0.000334145
9.52477e-05
-2.96929e-05
-0.000397143
0.000128248
3.3693e-05
-0.000425855
0.000147707
7.08589e-05
-0.00041646
0.000146823
7.5303e-05
-0.000369178
0.000122159
5.05419e-05
-0.000289405
7.40487e-05
6.14247e-06
-0.000187478
7.42581e-06
-4.69671e-05
-7.76554e-05
-6.76621e-05
-0.000100332
2.31303e-05
-0.000135315
-0.00015029
9.70802e-05
-0.000177063
-0.000198083
0.000129328
-0.000180729
-0.000245419
0.000113464
-0.000150657
-0.000286041
5.4266e-05
-0.000103775
-0.000303184
-3.46683e-05
-5.41135e-05
-0.000281557
-0.000137481
-5.99778e-06
-0.00021907
3.80719e-05
-0.00012738
-0.000330185
0.000267561
-0.000137367
-0.000385755
0.000267767
-6.74759e-05
-0.000399828
0.000249529
-9.46196e-06
-0.000371698
0.000207558
2.6897e-05
-0.000304305
0.00014251
4.06275e-05
-0.000205386
5.93978e-05
3.57862e-05
-8.70708e-05
-3.2557e-05
1.73748e-05
3.48052e-05
-0.000119478
-1.08446e-05
0.000141768
-0.000182558
-4.75336e-05
0.000214133
-0.000201254
-9.51218e-05
0.000235826
-0.000164289
-0.000158167
0.000200877
-8.29757e-05
-0.00023213
0.000116689
1.34409e-05
-0.000294027
1.34092e-06
9.98824e-05
-0.000316671
-0.000121743
0.000166409
-0.000288772
0.000212194
-0.000216012
-0.000293899
0.000427338
-0.000229791
-0.000335453
0.000393648
-0.000157412
-0.000332126
0.000335869
-8.31995e-05
-0.000286158
0.00025178
-1.98763e-05
-0.00020352
0.000146534
2.7134e-05
-9.42966e-05
3.0046e-05
5.63799e-05
2.80982e-05
-8.42067e-05
6.77207e-05
0.000147785
-0.000179168
6.19637e-05
0.000246683
-0.000233966
4.03539e-05
0.000305929
-0.000227287
7.18804e-07
0.00031116
-0.00014936
-6.54734e-05
0.000258967
-1.73149e-05
-0.000160081
0.000159008
0.000128777
-0.000259329
3.18181e-05
0.000252002
-0.000325479
-9.81509e-05
0.000336844
-0.00033527
0.000382207
-0.000288359
-0.000233817
0.00055347
-0.000302838
-0.000255068
0.000487362
-0.00023138
-0.000231488
0.000390443
-0.000145656
-0.000168333
0.000265768
-6.11279e-05
-7.49994e-05
0.000124028
1.16779e-05
3.59633e-05
-1.9854e-05
6.58185e-05
0.000150665
-0.000148846
9.70419e-05
0.000254554
-0.000244035
0.000105918
0.000331927
-0.00028434
9.669e-05
0.000367228
-0.000249963
6.92748e-05
0.000350546
-0.000134146
1.13481e-05
0.000282871
4.16341e-05
-8.80236e-05
0.000175959
0.000230225
-0.000210365
4.96597e-05
0.000385299
-0.000312171
-7.25088e-05
0.000485039
-0.000358694
0.000527882
-0.000341539
-0.000157402
0.000627042
-0.000344325
-0.000152488
0.000530908
-0.000273581
-0.000106502
0.000397073
-0.000178733
-2.78782e-05
0.000236826
-7.89144e-05
7.01689e-05
6.73137e-05
9.57295e-06
0.000173128
-9.23089e-05
7.45032e-05
0.000268065
-0.000223502
0.000110314
0.000343403
-0.000307717
0.000121239
0.000387725
-0.000325976
0.000117528
0.000391086
-0.000262406
0.000102147
0.000349984
-0.000114747
5.95984e-05
0.000270507
9.27481e-05
-3.00612e-05
0.000165682
0.00031051
-0.000157815
5.25635e-05
0.000487055
-0.000281188
-4.93747e-05
0.000594736
-0.000356905
0.000630691
-0.000367603
-6.73901e-05
0.000634115
-0.000329732
-3.18743e-05
0.000511628
-0.000256439
3.60425e-05
0.000346804
-0.000154845
0.000124432
0.000161776
-4.88223e-05
0.00021714
-2.03187e-05
3.97427e-05
0.000299714
-0.000178791
9.57098e-05
0.000362222
-0.000296779
0.000116603
0.000397735
-0.000358571
0.000114635
0.000400689
-0.000349209
0.000107655
0.000368454
-0.000258284
0.000100928
0.000304842
-8.85311e-05
7.63141e-05
0.000220409
0.000134779
7.39645e-06
0.00012805
0.000364171
-0.00010729
4.0061e-05
0.000547738
-0.000232411
-3.02606e-05
0.000653137
-0.000321612
0.000675217
-0.000349166
4.04168e-05
0.000568905
-0.000230811
0.000106591
0.000427518
-0.000154958
0.000189569
0.000244626
-5.50204e-05
0.000275163
5.30828e-05
4.11256e-05
0.000347255
-0.000120893
0.000108332
0.000394993
-0.000259509
0.000132815
0.000413467
-0.000350404
0.000119758
0.000401263
-0.000382423
9.21939e-05
0.000359459
-0.000345489
7.47353e-05
0.000293343
-0.000234782
7.28316e-05
0.00021367
-5.71894e-05
6.62775e-05
0.000134191
0.000162853
2.60528e-05
6.63993e-05
0.000383417
-5.70637e-05
1.66012e-05
0.000556694
-0.000158606
-1.00231e-05
0.00064828
-0.000236673
0.000648658
-0.00026128
0.000166295
0.000436543
-4.67979e-05
0.000254456
0.000290093
2.45965e-05
0.000337484
0.000110364
0.000108286
0.000402009
-6.34725e-05
0.00017507
0.000436953
-0.000207614
0.00020014
0.000438017
-0.000310768
0.000175069
0.000406012
-0.000366618
0.000116007
0.000344738
-0.000368795
5.68546e-05
0.000261799
-0.000311847
2.61007e-05
0.000169735
-0.000195404
2.72214e-05
8.46429e-05
-2.85366e-05
3.89785e-05
2.18752e-05
0.000166875
3.35292e-05
-9.18588e-06
0.000356508
-1.91412e-06
-7.9434e-06
0.000500559
-5.43541e-05
2.21874e-05
0.000566963
-9.37258e-05
0.000543333
-9.24892e-05
0.000285191
0.000256448
0.000171783
0.00037858
0.000122014
0.000231947
0.000443549
-2.82979e-05
0.000288359
0.00047162
-0.000160139
0.000313276
0.000460279
-0.000257267
0.000285299
0.000412443
-0.000316516
0.000204373
0.000333423
-0.000337225
9.85411e-05
0.000231304
-0.000317097
1.01638e-05
0.000119374
-0.000254169
-3.18261e-05
1.56608e-05
-0.00015042
-2.70609e-05
-6.10297e-05
-1.47338e-05
3.5738e-06
-9.59768e-05
0.00013554
3.51921e-05
-8.29326e-05
0.000274797
5.41975e-05
-2.60239e-05
0.00037364
6.34806e-05
6.3768e-05
0.000407111
7.89586e-05
0.000364618
0.00012186
0.000352139
6.01244e-05
0.000352352
0.000431474
-4.53572e-05
0.000401934
0.00046574
-0.000144724
0.000430901
0.000453378
-0.000218041
0.000414005
0.000400406
-0.000260349
0.000335827
0.000314597
-0.000275839
0.000206172
0.000203751
-0.000268406
6.34604e-05
7.90783e-05
-0.000238744
-4.54579e-05
-4.2148e-05
-0.000186626
-9.39622e-05
-0.000139208
-0.000113768
-8.46216e-05
-0.000193874
-2.58281e-05
-3.73689e-05
-0.000194736
6.60148e-05
2.60691e-05
-0.000140062
0.000145341
9.15918e-05
-3.8544e-05
0.000193313
0.000154848
9.41019e-05
0.000194163
0.000220771
0.000144135
0.000305325
0.000336257
-0.000117257
0.000452118
0.000386562
-0.000179541
0.000495938
0.000386462
-0.000218528
0.000503627
0.000341758
-0.000230839
0.00045383
0.00026333
-0.000222013
0.000338429
0.000160476
-0.000202067
0.000176433
4.14781e-05
-0.000178242
1.2655e-05
-8.11398e-05
-0.000152998
-0.000106155
-0.00018902
-0.000125791
-0.000157175
-0.00026263
-9.53251e-05
-0.000144931
-0.000287182
-6.19464e-05
-8.77808e-05
-0.000256405
-2.95798e-05
-4.87759e-06
-0.000173586
-6.20734e-06
8.97374e-05
-5.13788e-05
-1.49099e-06
0.000187618
9.23963e-05
-2.31732e-05
0.000286968
-6.80931e-05
0.000397737
0.000241938
-0.000245308
0.000468276
0.000256392
-0.000257347
0.000509828
0.000226627
-0.000240586
0.000503289
0.000163891
-0.00020281
0.000432749
8.03377e-05
-0.000156656
0.000297413
-1.57933e-05
-0.000115637
0.000122378
-0.000117662
-8.87648e-05
-4.65531e-05
-0.000214326
-7.87708e-05
-0.000166472
-0.00029031
-8.31023e-05
-0.000218488
-0.000330541
-9.6041e-05
-0.000207633
-0.000325561
-0.000111948
-0.000149909
-0.000274071
-0.00012818
-6.16709e-05
-0.000183106
-0.000145938
4.41487e-05
-6.68493e-05
-0.000168654
0.000157931
5.72233e-05
-0.000197968
0.000273733
-0.000227638
0.000392601
0.000100451
-0.000304772
0.00041861
8.09718e-05
-0.000270744
0.000459288
3.13248e-05
-0.00021334
0.000445664
-3.44568e-05
-0.000144771
0.000367513
-0.000105036
-8.0619e-05
0.000229576
-0.00017452
-3.51076e-05
5.87008e-05
-0.000239315
-1.68584e-05
-0.000102952
-0.00029331
-2.73137e-05
-0.000218213
-0.000327376
-6.11759e-05
-0.000271297
-0.000333065
-0.000108613
-0.000266402
-0.000306363
-0.000159227
-0.000216573
-0.000249336
-0.000205876
-0.000134844
-0.000169966
-0.000245731
-3.1635e-05
-8.11326e-05
-0.000278347
8.39601e-05
2.9036e-06
-0.000302278
0.000203799
-0.000311421
0.00031949
-4.41195e-05
0.000326534
-9.06927e-05
0.000366825
-0.000150997
0.000353986
-0.000209854
0.000281428
-0.00025641
0.000156063
-0.000287313
2.50697e-06
-0.000303907
-0.000143133
-0.000307794
-0.000249311
-0.000298595
-0.00030221
-0.000275037
-0.000305179
-0.000237422
-0.000268634
-0.000188952
-0.000202058
-0.00013571
-0.000112284
-8.63435e-05
-5.8984e-06
-4.9926e-05
0.000108008
0.000215493
-0.000256026
-0.000134988
0.000169591
-0.000284983
-7.50929e-05
0.000204851
-0.000305052
-1.24128e-05
0.000193257
-0.000311556
4.3881e-05
0.000131695
-0.000302162
8.55175e-05
3.12998e-05
-0.000278221
0.000103631
-8.56203e-05
-0.000244152
9.20619e-05
-0.000193444
-0.000205684
4.99417e-05
-0.000272949
-0.000168642
-1.52071e-05
-0.00031728
-0.000139158
-8.71632e-05
-0.000329835
-0.000123166
-0.00014814
-0.000316854
-0.000123507
-0.000188638
-0.000280972
-0.000137933
-0.000209118
-0.000221536
-0.000161228
-0.000212624
-0.0001394
-0.000188843
-0.00020022
-4.09995e-05
-0.000171513
5.79033e-05
-0.000274101
-7.11085e-06
2.37271e-05
-0.000312821
4.02726e-05
6.97022e-05
-0.000329279
8.37091e-05
8.09024e-05
-0.000320496
0.000114315
5.22327e-05
-0.000285073
0.000125679
-9.13163e-06
-0.000225741
0.000112923
-8.75233e-05
-0.000149745
7.41064e-05
-0.000165053
-6.82547e-05
1.2739e-05
-0.000227849
5.08706e-06
-5.9959e-05
-0.000270393
5.54191e-05
-0.00012402
-0.000295077
7.06783e-05
-0.000161305
-0.00030642
4.76798e-05
-0.000168063
-0.000303956
-5.55354e-06
-0.000154388
-0.000280901
-7.483e-05
-0.000129917
-0.000231518
-0.000147115
-9.75124e-05
-0.000157432
-5.73876e-05
-6.89541e-05
-0.000254723
0.000139561
-0.000104377
-0.000296579
0.000166138
-5.03155e-05
-0.000305626
0.00018071
-1.70954e-05
-0.000280389
0.000176365
-1.19839e-05
-0.00022162
0.000149719
-3.22681e-05
-0.000134041
0.000100282
-6.87955e-05
-2.741e-05
3.10096e-05
-0.000110501
8.38641e-05
-4.97641e-05
-0.000149103
0.000181203
-0.000125755
-0.000181833
0.00024434
-0.000173522
-0.000211718
0.000256253
-0.000174327
-0.000244311
0.000212519
-0.000132326
-0.000278043
0.00012551
-7.17027e-05
-0.000298861
1.75026e-05
-1.23967e-05
-0.000291069
-8.99417e-05