/*--------------------------------*- C++ -*----------------------------------*\
| =========                 |                                                 |
| \\      /  F ield         | OpenFOAM: The Open Source CFD Toolbox           |
|  \\    /   O peration     | Version:  3.0.0                                 |
|   \\  /    A nd           | Web:      www.OpenFOAM.org                      |
|    \\/     M anipulation  |                                                 |
\*---------------------------------------------------------------------------*/
FoamFile
{
    version     2.0;
    format      ascii;
    class       volVectorField;
    location    "9.25";
    object      U;
}
// * * * * * * * * * * * * * * * * * * * * * * * * * * * * * * * * * * * * * //

dimensions      [0 1 -1 0 0 0 0];

internalField   nonuniform List<vector> 
4096
(
(0.0111929 -0.0942004 0.0664563)
(-0.0114119 -0.0673981 0.0769072)
(-0.0387815 -0.0350663 0.075231)
(-0.0626528 -0.00383723 0.0623274)
(-0.0806 0.0194108 0.0404271)
(-0.0915891 0.0299155 0.0131668)
(-0.0950923 0.0265712 -0.0142793)
(-0.0907112 0.0114985 -0.0365755)
(-0.0784366 -0.0114421 -0.0503702)
(-0.0591981 -0.0379561 -0.0551593)
(-0.0351047 -0.0642293 -0.0522154)
(-0.00939262 -0.0874548 -0.0429131)
(0.0138652 -0.105823 -0.0278195)
(0.0298628 -0.118083 -0.00713998)
(0.033937 -0.122638 0.0180542)
(0.0282385 -0.116064 0.0453393)
(-0.0389206 -0.0647809 0.046722)
(-0.0666379 -0.0380652 0.0596563)
(-0.0945929 -0.0111629 0.0630569)
(-0.114725 0.0124533 0.0571445)
(-0.125329 0.0281393 0.0436994)
(-0.126102 0.0324106 0.0257459)
(-0.117593 0.0246299 0.00701864)
(-0.101156 0.00713313 -0.00917783)
(-0.0787468 -0.0159644 -0.0210929)
(-0.0528951 -0.0402743 -0.0287664)
(-0.0267075 -0.0622796 -0.0330185)
(-0.00378235 -0.0797941 -0.033869)
(0.0120412 -0.0916344 -0.0297303)
(0.0168887 -0.096909 -0.0185658)
(0.00806607 -0.0947678 -0.00041577)
(-0.00916786 -0.084225 0.0214415)
(-0.0825583 -0.0298664 0.0279967)
(-0.11047 -0.00683716 0.043841)
(-0.136513 0.0127125 0.0531205)
(-0.151021 0.0269436 0.0552879)
(-0.153698 0.0331758 0.051364)
(-0.145322 0.0299423 0.043205)
(-0.127646 0.0178628 0.0329056)
(-0.103209 -0.000423004 0.0220936)
(-0.0749495 -0.0211129 0.0113619)
(-0.046109 -0.0404471 0.000217351)
(-0.0202256 -0.0556785 -0.0118724)
(-0.00109617 -0.0654928 -0.0237876)
(0.00757136 -0.0697157 -0.0315544)
(0.00261949 -0.0682308 -0.0303013)
(-0.0169305 -0.0611407 -0.01834)
(-0.0407458 -0.0488755 0.000808196)
(-0.113793 0.0143493 0.00859633)
(-0.138213 0.0278388 0.027678)
(-0.160474 0.0367485 0.0430082)
(-0.169032 0.0399401 0.0528626)
(-0.165023 0.0364032 0.0574436)
(-0.150129 0.0261392 0.0575912)
(-0.126805 0.0106299 0.0542004)
(-0.0981639 -0.00732916 0.0478308)
(-0.0675869 -0.0242585 0.0383506)
(-0.0386235 -0.0369151 0.0249043)
(-0.0149446 -0.0431846 0.00674414)
(-0.000355734 -0.0426994 -0.0146039)
(0.00181505 -0.0367765 -0.0333686)
(-0.0108137 -0.0272 -0.0417526)
(-0.0378309 -0.0156303 -0.0357004)
(-0.064169 -0.0037591 -0.0180471)
(-0.12815 0.0619478 -0.0132441)
(-0.147132 0.0625006 0.00856422)
(-0.164238 0.0591977 0.028786)
(-0.167218 0.0508458 0.0446204)
(-0.158351 0.0378014 0.0554917)
(-0.139901 0.0212263 0.0615712)
(-0.114522 0.00311323 0.0631426)
(-0.0853297 -0.0138095 0.0603187)
(-0.0557043 -0.0264081 0.0527167)
(-0.0292623 -0.0318262 0.0391893)
(-0.00963534 -0.0284032 0.0183835)
(-0.00020727 -0.0165739 -0.00869518)
(-0.00355524 0.000696923 -0.0356332)
(-0.0211359 0.0190206 -0.0523714)
(-0.0515334 0.0347726 -0.0522205)
(-0.0774577 0.0452072 -0.0363678)
(-0.12313 0.10664 -0.0381267)
(-0.1358 0.0935209 -0.0146613)
(-0.146483 0.0776359 0.00869282)
(-0.144421 0.0578568 0.0284505)
(-0.132536 0.0358082 0.0432935)
(-0.113423 0.0136697 0.0529402)
(-0.0894904 -0.00630056 0.0575306)
(-0.0633261 -0.0216045 0.0573203)
(-0.0378929 -0.0294961 0.0521608)
(-0.0166106 -0.0275237 0.0407891)
(-0.002819 -0.0144743 0.0210588)
(0.000886697 0.00853549 -0.00725847)
(-0.00684539 0.0370431 -0.0384544)
(-0.0263863 0.0640253 -0.061496)
(-0.0558643 0.0837112 -0.0673586)
(-0.0792218 0.0925516 -0.0548858)
(-0.099058 0.141922 -0.062755)
(-0.104562 0.116897 -0.0388737)
(-0.10761 0.0889258 -0.0138044)
(-0.101041 0.0584061 0.00822677)
(-0.0880585 0.0284668 0.0250249)
(-0.0712403 0.00206814 0.0359255)
(-0.0522314 -0.0186224 0.0413258)
(-0.0325575 -0.0315319 0.0422617)
(-0.014391 -0.0343303 0.0393595)
(-0.000661069 -0.0250496 0.0315069)
(0.00589652 -0.00307691 0.0157362)
(0.00381129 0.0297717 -0.00979702)
(-0.00691796 0.0679796 -0.0411698)
(-0.0255812 0.102519 -0.0679334)
(-0.0502398 0.125628 -0.0795954)
(-0.0691725 0.133168 -0.0724647)
(-0.0586692 0.160819 -0.0780969)
(-0.0553785 0.127711 -0.0553052)
(-0.0503217 0.0893953 -0.0298349)
(-0.0404413 0.0501714 -0.00724179)
(-0.0289127 0.0149415 0.00915477)
(-0.0177089 -0.0132209 0.0184)
(-0.00704345 -0.0328053 0.0216431)
(0.00305996 -0.0423183 0.0213296)
(0.0114595 -0.0397952 0.019407)
(0.0159953 -0.0237792 0.0151779)
(0.0148389 0.00555447 0.00493685)
(0.00773958 0.0456509 -0.0148064)
(-0.00406927 0.0904662 -0.0424433)
(-0.0190766 0.130173 -0.0694946)
(-0.0356535 0.155439 -0.0852936)
(-0.047671 0.161543 -0.0841266)
(-0.00637185 0.156839 -0.0730999)
(0.00761432 0.12063 -0.0534432)
(0.0193951 0.0760094 -0.0298601)
(0.0300153 0.0326108 -0.00950599)
(0.0366736 -0.00324927 0.00316497)
(0.0388124 -0.0294572 0.00708904)
(0.0382317 -0.0457003 0.00457319)
(0.0365433 -0.0509542 -1.1464e-06)
(0.033725 -0.0434048 -0.00298846)
(0.0286392 -0.0220887 -0.0045199)
(0.0205732 0.0119332 -0.00886989)
(0.0103726 0.0554208 -0.0208537)
(0.000156294 0.102322 -0.0409914)
(-0.00817406 0.143242 -0.0635014)
(-0.0137097 0.168107 -0.079085)
(-0.0143536 0.171123 -0.0811961)
(0.0497814 0.127611 -0.0457438)
(0.0748667 0.0933267 -0.0303875)
(0.0900883 0.0490128 -0.011515)
(0.0980687 0.00842704 0.00333602)
(0.0968188 -0.0220517 0.00888267)
(0.0875891 -0.0422922 0.00410268)
(0.0742979 -0.0532867 -0.00732536)
(0.0600908 -0.05406 -0.0187737)
(0.0460942 -0.0426821 -0.0247898)
(0.0324295 -0.0186255 -0.0249379)
(0.0196208 0.0162518 -0.0238345)
(0.00932809 0.0581579 -0.0270543)
(0.0040398 0.101357 -0.0366206)
(0.00545896 0.137771 -0.0493238)
(0.0132467 0.15796 -0.0583653)
(0.0303468 0.154763 -0.0577002)
(0.0980511 0.0796765 -0.00707857)
(0.131519 0.0502368 0.00462046)
(0.145648 0.0134056 0.017846)
(0.148554 -0.0169445 0.025564)
(0.138576 -0.0365284 0.0221923)
(0.118227 -0.0477411 0.00698011)
(0.0930681 -0.0524788 -0.0148879)
(0.0676399 -0.0494553 -0.0344113)
(0.0443771 -0.036509 -0.0444761)
(0.024867 -0.0134106 -0.04423)
(0.010755 0.0175186 -0.0384205)
(0.00402537 0.0522929 -0.0329085)
(0.00682065 0.0857162 -0.0306537)
(0.0198035 0.111419 -0.0305885)
(0.0406042 0.121946 -0.0284311)
(0.0785775 0.110222 -0.0185946)
(0.128857 0.0257768 0.0291562)
(0.164451 0.00192365 0.0388789)
(0.173455 -0.0224 0.0474885)
(0.170053 -0.0375624 0.0484829)
(0.15258 -0.0431238 0.0364378)
(0.123787 -0.0439591 0.0111618)
(0.0899901 -0.0425512 -0.0204822)
(0.0568599 -0.0373395 -0.0473754)
(0.0283097 -0.0259971 -0.0611964)
(0.00730632 -0.00830757 -0.0608869)
(-0.00384689 0.0136152 -0.0511756)
(-0.00356928 0.0363489 -0.0379588)
(0.00908736 0.0557827 -0.0249066)
(0.0329399 0.0673735 -0.0127882)
(0.0630499 0.0659743 0.000880325)
(0.116102 0.0472965 0.0223169)
(0.139 -0.0232593 0.0557393)
(0.169255 -0.0404373 0.0645984)
(0.170272 -0.0501858 0.0698155)
(0.159763 -0.0490428 0.0652533)
(0.13657 -0.0406352 0.0460304)
(0.103119 -0.0317582 0.0128397)
(0.0655331 -0.025552 -0.0259342)
(0.0301253 -0.0205725 -0.0578083)
(0.00195569 -0.0144084 -0.0739938)
(-0.0152988 -0.00630001 -0.0734604)
(-0.0195307 0.00279399 -0.0607795)
(-0.0102795 0.0109407 -0.0417524)
(0.0116732 0.0157106 -0.0206124)
(0.0431356 0.0142887 0.000436921)
(0.077123 0.00346324 0.0226702)
(0.132504 -0.0167498 0.0530801)
(0.129614 -0.0618675 0.0706208)
(0.14835 -0.0699642 0.0791989)
(0.140111 -0.065191 0.0817506)
(0.122338 -0.0497245 0.0728631)
(0.0952587 -0.0301551 0.0486336)
(0.0611515 -0.0142701 0.0108651)
(0.0253847 -0.00586163 -0.031117)
(-0.00590862 -0.00394049 -0.0646512)
(-0.0276202 -0.00587928 -0.0813679)
(-0.036523 -0.00970262 -0.0804282)
(-0.0315779 -0.0145041 -0.0660922)
(-0.0138043 -0.0202568 -0.0438788)
(0.0144139 -0.0276002 -0.0182333)
(0.0485843 -0.037918 0.00781854)
(0.0810566 -0.0527946 0.0345645)
(0.12664 -0.0687796 0.0684004)
(0.10356 -0.0880326 0.0746689)
(0.107617 -0.084304 0.0832538)
(0.0904513 -0.0665067 0.0837699)
(0.0665175 -0.0405367 0.0721663)
(0.0378922 -0.0144472 0.0458772)
(0.00718963 0.00407166 0.00765737)
(-0.0212404 0.0111585 -0.0332386)
(-0.0425934 0.00762456 -0.0652215)
(-0.0531727 -0.00339858 -0.081026)
(-0.05133 -0.0185372 -0.0800574)
(-0.0375313 -0.0350914 -0.0660651)
(-0.0139582 -0.0513579 -0.0438855)
(0.0161109 -0.0666176 -0.0176844)
(0.0478484 -0.0811315 0.00945119)
(0.0742688 -0.0950556 0.0369509)
(0.103447 -0.103595 0.0690503)
(0.0661228 -0.0939459 0.0697774)
(0.0564473 -0.0799024 0.0784477)
(0.0317643 -0.0539389 0.0782441)
(0.00315918 -0.0228241 0.0667442)
(-0.0249274 0.00474019 0.0425166)
(-0.0488057 0.0211234 0.00841515)
(-0.0654444 0.0231227 -0.0275699)
(-0.0727951 0.0125786 -0.0558205)
(-0.0700633 -0.00611714 -0.0703608)
(-0.0577757 -0.0284069 -0.0706279)
(-0.0376234 -0.050729 -0.0595541)
(-0.0122447 -0.0708471 -0.0409501)
(0.0150804 -0.0877007 -0.0180521)
(0.0401314 -0.101072 0.00665998)
(0.0575754 -0.110413 0.0319635)
(0.070367 -0.111691 0.0592056)
(-0.0228709 -0.0836991 0.0699002)
(-0.042004 -0.0597291 0.0827197)
(-0.0642 -0.0331749 0.0816146)
(-0.082209 -0.00868183 0.0672876)
(-0.0937395 0.00889181 0.0425022)
(-0.0980657 0.0162201 0.0118486)
(-0.0956355 0.0126588 -0.0188625)
(-0.0874129 -0.00023689 -0.0442419)
(-0.0743961 -0.0194544 -0.0611808)
(-0.057843 -0.0413492 -0.0691347)
(-0.039592 -0.0624992 -0.0687838)
(-0.0220697 -0.0805054 -0.0605898)
(-0.00791003 -0.0940807 -0.0444194)
(0.000146021 -0.102386 -0.0205364)
(-0.000242973 -0.10428 0.00900371)
(-0.00605346 -0.0978901 0.0397341)
(-0.0596322 -0.0520754 0.0436906)
(-0.0820179 -0.0299331 0.0587615)
(-0.1042 -0.00877037 0.063)
(-0.118188 0.00877899 0.0562032)
(-0.122619 0.0193388 0.0403542)
(-0.117533 0.0206259 0.0190093)
(-0.104181 0.0124502 -0.00362617)
(-0.084796 -0.00320386 -0.0239348)
(-0.0620892 -0.022876 -0.0399043)
(-0.0390654 -0.0426379 -0.0511663)
(-0.0188714 -0.0592836 -0.0578366)
(-0.00446871 -0.0712035 -0.0590824)
(0.0019104 -0.0780826 -0.0528408)
(-0.00118569 -0.0798245 -0.0375392)
(-0.0140871 -0.076094 -0.0142832)
(-0.0301956 -0.0665102 0.0123402)
(-0.0867082 -0.0137789 0.0187672)
(-0.108845 0.00330769 0.0363476)
(-0.128905 0.0170025 0.0466682)
(-0.137751 0.0255605 0.0483862)
(-0.135293 0.0270971 0.0424697)
(-0.122392 0.0208538 0.0311132)
(-0.101069 0.00770238 0.0168726)
(-0.0743557 -0.00983776 0.001852)
(-0.045864 -0.0281459 -0.012896)
(-0.0195209 -0.0433878 -0.0273228)
(0.000725986 -0.052899 -0.0413135)
(0.0114636 -0.0562452 -0.0529317)
(0.0106682 -0.0546776 -0.057881)
(-0.00202138 -0.0493597 -0.0521304)
(-0.0250836 -0.0408075 -0.0352002)
(-0.0478988 -0.0295616 -0.0111946)
(-0.101375 0.0320377 -0.00545709)
(-0.120964 0.0399457 0.0146178)
(-0.137435 0.043602 0.0308567)
(-0.141027 0.0415319 0.0407464)
(-0.132782 0.033211 0.0441474)
(-0.114335 0.0191616 0.0420055)
(-0.0882038 0.00118672 0.035535)
(-0.0578138 -0.0176815 0.0257344)
(-0.027152 -0.0335671 0.0129998)
(-0.000532713 -0.0426332 -0.00297366)
(0.017789 -0.0427268 -0.0224139)
(0.0243415 -0.0348166 -0.0431387)
(0.0174297 -0.0223749 -0.0590106)
(-0.00242965 -0.00871918 -0.0633129)
(-0.0322555 0.00437372 -0.053269)
(-0.0584994 0.0156962 -0.0318478)
(-0.102877 0.0793778 -0.0296335)
(-0.118547 0.0763088 -0.00787634)
(-0.130104 0.0688083 0.0130306)
(-0.128502 0.0555741 0.0295723)
(-0.115683 0.0372291 0.0405477)
(-0.0939247 0.0155037 0.0458462)
(-0.0660457 -0.00696941 0.045743)
(-0.0354767 -0.0267319 0.0406666)
(-0.00612246 -0.0396818 0.0308337)
(0.0177138 -0.0419721 0.0156837)
(0.0319466 -0.0318791 -0.00582188)
(0.0336568 -0.0116956 -0.03231)
(0.0218415 0.0127221 -0.0569911)
(-0.00231135 0.035363 -0.0707446)
(-0.0349615 0.0528841 -0.068235)
(-0.0617372 0.0636036 -0.0505467)
(-0.0917394 0.121879 -0.0532056)
(-0.102362 0.108056 -0.0309428)
(-0.107765 0.0893687 -0.00710067)
(-0.10097 0.0650565 0.0141618)
(-0.08468 0.0370413 0.0305438)
(-0.0617437 0.00826338 0.0409672)
(-0.0350646 -0.0179384 0.0451646)
(-0.00767618 -0.0378034 0.0436449)
(0.017024 -0.0472026 0.0370542)
(0.0351614 -0.0424612 0.024843)
(0.0432778 -0.022375 0.00492889)
(0.0395284 0.00962093 -0.0229956)
(0.024028 0.0456169 -0.0529013)
(-0.00146296 0.0769767 -0.0743828)
(-0.0330061 0.0986608 -0.0796117)
(-0.0577804 0.108659 -0.0674377)
(-0.0698703 0.153347 -0.0724775)
(-0.0739511 0.130264 -0.0506115)
(-0.072067 0.100978 -0.0251139)
(-0.0602073 0.0663473 -0.000905335)
(-0.0417192 0.0299172 0.0185049)
(-0.0199847 -0.00424684 0.0311288)
(0.00241886 -0.0324045 0.0366779)
(0.0233556 -0.050851 0.0365358)
(0.0403355 -0.0557263 0.0324484)
(0.0503455 -0.0438427 0.0241923)
(0.0509835 -0.0147205 0.00864995)
(0.0417822 0.0272788 -0.016592)
(0.0240748 0.0729008 -0.0475286)
(4.11438e-05 0.111533 -0.0739291)
(-0.0269051 0.136536 -0.0861816)
(-0.047355 0.145691 -0.0808411)
(-0.0394451 0.168162 -0.079497)
(-0.0349554 0.138059 -0.0585137)
(-0.0252306 0.0994911 -0.032446)
(-0.00921808 0.0565215 -0.00736479)
(0.00919795 0.0145118 0.0119027)
(0.0266098 -0.0218738 0.0227929)
(0.041413 -0.0491229 0.0257443)
(0.0528248 -0.0640491 0.023836)
(0.0595832 -0.0633606 0.0204305)
(0.0599153 -0.0446576 0.0158218)
(0.0528226 -0.00835189 0.00602713)
(0.0392199 0.0405771 -0.0133434)
(0.0214005 0.0924281 -0.0409386)
(0.00164329 0.135659 -0.0682126)
(-0.0176503 0.162261 -0.084949)
(-0.0312193 0.169742 -0.0857264)
(-0.00157226 0.16243 -0.0653604)
(0.0132965 0.128026 -0.0460938)
(0.0297236 0.0830251 -0.0215136)
(0.0472067 0.0356427 0.00111603)
(0.061778 -0.00726993 0.0159476)
(0.070999 -0.0415011 0.0204542)
(0.0749774 -0.0645618 0.0165348)
(0.0744684 -0.0740465 0.00954509)
(0.0695248 -0.0673792 0.00462451)
(0.0598657 -0.0431073 0.00249931)
(0.0460678 -0.00254319 -0.00140244)
(0.0302228 0.0491083 -0.0128009)
(0.0151497 0.102615 -0.0327241)
(0.00284413 0.146691 -0.0553001)
(-0.00565985 0.172363 -0.0713027)
(-0.00846278 0.176283 -0.0742088)
(0.0413038 0.135296 -0.029491)
(0.0663968 0.0999416 -0.0129751)
(0.0860494 0.0535558 0.00723604)
(0.100645 0.00783325 0.0235776)
(0.107058 -0.0301595 0.0298027)
(0.104779 -0.0578165 0.02399)
(0.0959156 -0.0740782 0.00998858)
(0.0825836 -0.077274 -0.00437323)
(0.0660741 -0.0655054 -0.0124355)
(0.0476889 -0.0382349 -0.013293)
(0.0295178 0.00252399 -0.0118047)
(0.0144696 0.0517103 -0.0141552)
(0.00545614 0.10124 -0.0228542)
(0.00388513 0.141215 -0.0348116)
(0.00912654 0.162682 -0.0432077)
(0.0226806 0.160964 -0.041701)
(0.0811206 0.0905784 0.016131)
(0.113197 0.0576492 0.0297322)
(0.13102 0.0166414 0.0441365)
(0.138697 -0.0203331 0.0520896)
(0.134426 -0.0479136 0.0475662)
(0.119839 -0.065753 0.0297065)
(0.0986529 -0.0740506 0.00461229)
(0.0739592 -0.0716517 -0.0175898)
(0.048209 -0.0572149 -0.0292315)
(0.0242063 -0.0308741 -0.0295214)
(0.00521304 0.005062 -0.0233408)
(-0.0055618 0.0460599 -0.0167115)
(-0.00563342 0.0855629 -0.012859)
(0.00538023 0.115778 -0.0110248)
(0.0249597 0.129235 -0.007108)
(0.0581803 0.121005 0.00488875)
(0.107002 0.0373322 0.056085)
(0.139871 0.0094885 0.0680392)
(0.15133 -0.0199711 0.0773221)
(0.15005 -0.0425486 0.0771474)
(0.135672 -0.0562234 0.0622352)
(0.111264 -0.0628965 0.0332225)
(0.081247 -0.0637052 -0.00155877)
(0.0492931 -0.0578784 -0.0302185)
(0.0189062 -0.0444445 -0.0447453)
(-0.00596602 -0.0237326 -0.0446485)
(-0.0215324 0.00229241 -0.0346693)
(-0.0249817 0.0301698 -0.0204499)
(-0.0149292 0.0551681 -0.00561619)
(0.00749983 0.0718455 0.00882096)
(0.0378187 0.0750386 0.02492)
(0.0857392 0.0617512 0.0490787)
(0.112635 -0.0141109 0.0823833)
(0.138992 -0.0340783 0.0939427)
(0.141405 -0.0485223 0.0993245)
(0.131214 -0.054566 0.0923914)
(0.109583 -0.0539035 0.0691027)
(0.0800473 -0.0502733 0.0318293)
(0.0468079 -0.0456097 -0.00940183)
(0.0136726 -0.0395091 -0.0419344)
(-0.0152646 -0.0310496 -0.0580897)
(-0.0357025 -0.020067 -0.057716)
(-0.0441927 -0.00741462 -0.0452501)
(-0.0389889 0.00507621 -0.0259015)
(-0.0201859 0.0147012 -0.00351738)
(0.00955176 0.0182095 0.0197372)
(0.0443181 0.0126552 0.0445731)
(0.0947155 -0.00194284 0.0774346)
(0.0981718 -0.0559217 0.0937934)
(0.112548 -0.0649396 0.105506)
(0.105358 -0.0639752 0.107856)
(0.0878885 -0.0550509 0.0958838)
(0.0627682 -0.042659 0.0671545)
(0.0333992 -0.0317011 0.0256103)
(0.0031672 -0.0247356 -0.0180293)
(-0.0246175 -0.0216084 -0.0515809)
(-0.0462152 -0.021023 -0.0682031)
(-0.0580326 -0.0217009 -0.0679361)
(-0.057748 -0.0228909 -0.0547302)
(-0.0449476 -0.0246137 -0.0332236)
(-0.0210474 -0.027712 -0.00715525)
(0.0103153 -0.0336653 0.0207846)
(0.042953 -0.0436079 0.0502457)
(0.0840566 -0.0553056 0.0860579)
(0.0680707 -0.0832535 0.0923383)
(0.0687 -0.0793729 0.104162)
(0.0532004 -0.0651555 0.104361)
(0.0312138 -0.0454029 0.0895838)
(0.00647216 -0.0260002 0.0590103)
(-0.0179685 -0.0121216 0.0174899)
(-0.0398319 -0.0063967 -0.0247619)
(-0.0570556 -0.00852863 -0.0569839)
(-0.0673469 -0.0165409 -0.0733652)
(-0.0687138 -0.027921 -0.0739503)
(-0.0603104 -0.0404208 -0.0619924)
(-0.0428432 -0.0525913 -0.0413249)
(-0.018459 -0.0639249 -0.015194)
(0.00904932 -0.0746021 0.0137824)
(0.0342556 -0.0844238 0.0443427)
(0.060051 -0.0904466 0.0784278)
(0.0303388 -0.0890609 0.0809278)
(0.0193483 -0.0748223 0.092588)
(-0.00233805 -0.0526519 0.0921929)
(-0.0263789 -0.0278947 0.0777817)
(-0.0480517 -0.00688784 0.0495149)
(-0.0643998 0.00526572 0.012071)
(-0.0744443 0.00665955 -0.025769)
(-0.0781933 -0.00151026 -0.0550606)
(-0.0757425 -0.0162508 -0.0709183)
(-0.0671593 -0.0341249 -0.0732016)
(-0.0529545 -0.0521779 -0.0643617)
(-0.0344442 -0.0684678 -0.047249)
(-0.0137682 -0.0820572 -0.0242288)
(0.00593153 -0.0925586 0.00260725)
(0.0207184 -0.0991956 0.0313768)
(0.0313214 -0.099539 0.0611674)
(-0.0489851 -0.0683936 0.0637967)
(-0.06171 -0.0481563 0.0760837)
(-0.0764042 -0.0267724 0.0746367)
(-0.0868831 -0.00719794 0.0594735)
(-0.0917392 0.0072053 0.0334189)
(-0.0907062 0.0138906 0.00155535)
(-0.0846204 0.0118365 -0.0299305)
(-0.0748485 0.00153872 -0.0556471)
(-0.0627789 -0.0149106 -0.0727714)
(-0.0498884 -0.0340955 -0.0809663)
(-0.0379666 -0.052353 -0.0808385)
(-0.0288177 -0.0671895 -0.0725278)
(-0.0236196 -0.0776043 -0.0556942)
(-0.0230632 -0.0832003 -0.0307807)
(-0.027548 -0.0834375 -0.000313569)
(-0.032878 -0.0774791 0.0303348)
(-0.0689294 -0.0362129 0.0319836)
(-0.084587 -0.0185833 0.0466172)
(-0.0993696 -0.00195444 0.050576)
(-0.106303 0.0114496 0.043202)
(-0.104769 0.0192072 0.0264408)
(-0.0950801 0.0195517 0.00412267)
(-0.0786429 0.0120729 -0.0193227)
(-0.0579236 -0.0020148 -0.0401864)
(-0.0360095 -0.0198256 -0.0565475)
(-0.0163439 -0.0373463 -0.0681032)
(-0.00236287 -0.0510069 -0.0749027)
(0.00343909 -0.0593638 -0.0758346)
(0.000515303 -0.0628619 -0.0686612)
(-0.0101493 -0.0621208 -0.0520391)
(-0.0268244 -0.0572118 -0.0274099)
(-0.0422629 -0.0481113 0.000446931)
(-0.0782578 0.00258285 0.00219233)
(-0.0946389 0.0149305 0.0193167)
(-0.107766 0.0244965 0.0292585)
(-0.11048 0.0293563 0.0304356)
(-0.102976 0.0281088 0.0238199)
(-0.0862096 0.0202571 0.011812)
(-0.0621908 0.00648405 -0.00283787)
(-0.0340985 -0.0110806 -0.0179334)
(-0.00596452 -0.0288354 -0.0324387)
(0.0176383 -0.0423202 -0.0464231)
(0.0321636 -0.0482781 -0.05993)
(0.0344357 -0.0468661 -0.0709633)
(0.0242101 -0.0408686 -0.0750669)
(0.00394625 -0.0325965 -0.0683582)
(-0.0225464 -0.0227412 -0.0505943)
(-0.0454063 -0.0117343 -0.0255284)
(-0.0777773 0.0465352 -0.0250379)
(-0.0932355 0.0510148 -0.00588698)
(-0.103344 0.0513945 0.00963292)
(-0.101581 0.0460745 0.019024)
(-0.088928 0.0346908 0.0221213)
(-0.0669953 0.0179188 0.0199815)
(-0.0383139 -0.00244293 0.0139105)
(-0.00648791 -0.0232995 0.00493398)
(0.0240579 -0.0402116 -0.00652754)
(0.0483122 -0.0481432 -0.0209234)
(0.0613349 -0.044078 -0.0389463)
(0.0597997 -0.0300464 -0.0587876)
(0.043714 -0.01195 -0.0742662)
(0.0165423 0.005309 -0.0785432)
(-0.0163352 0.0199831 -0.0689668)
(-0.0435667 0.0316416 -0.0478561)
(-0.069655 0.0901441 -0.0496128)
(-0.0826065 0.0858648 -0.0294216)
(-0.0883655 0.0761946 -0.009527)
(-0.0818538 0.0600866 0.00678505)
(-0.0647819 0.0382357 0.0182001)
(-0.0394509 0.0125264 0.0244722)
(-0.00887705 -0.0141325 0.0257142)
(0.0231708 -0.037732 0.0222776)
(0.0523251 -0.0531153 0.0145217)
(0.0737168 -0.05482 0.00190903)
(0.0827788 -0.0400775 -0.0172915)
(0.076845 -0.0125867 -0.0426685)
(0.0564612 0.018619 -0.0676309)
(0.0254712 0.0455472 -0.082673)
(-0.00992564 0.0650082 -0.0822377)
(-0.038288 0.0767293 -0.066832)
(-0.0562402 0.127856 -0.0704324)
(-0.0649488 0.115007 -0.0503056)
(-0.0650922 0.095171 -0.0273993)
(-0.0535155 0.0683252 -0.0057703)
(-0.0326732 0.0364184 0.0120371)
(-0.00564432 0.00262968 0.0244361)
(0.0241425 -0.0290772 0.0306479)
(0.0530513 -0.0539762 0.0310329)
(0.0772048 -0.0665773 0.0266447)
(0.0924477 -0.0614735 0.0173008)
(0.0952802 -0.0364463 0.000172007)
(0.0843679 0.00348669 -0.0265431)
(0.0611407 0.0468908 -0.0574014)
(0.0294761 0.0829232 -0.0814053)
(-0.00463028 0.106799 -0.0901402)
(-0.031064 0.118207 -0.0819441)
(-0.0396632 0.154461 -0.0841097)
(-0.0421564 0.133561 -0.0643897)
(-0.0356033 0.103825 -0.0393454)
(-0.018878 0.0669422 -0.0139537)
(0.00474632 0.0264286 0.00774919)
(0.0313887 -0.0132701 0.0229168)
(0.0574832 -0.0474318 0.0304979)
(0.0799525 -0.0711004 0.0317854)
(0.0958578 -0.0790223 0.0292923)
(0.102324 -0.0665028 0.0235104)
(0.0975058 -0.0323147 0.0106621)
(0.081734 0.017583 -0.0134379)
(0.057358 0.0705075 -0.0457362)
(0.0279753 0.113669 -0.075396)
(-0.00145076 0.140695 -0.091871)
(-0.0231813 0.151059 -0.0911643)
(-0.0207774 0.165557 -0.0838038)
(-0.0149567 0.137228 -0.0640333)
(-0.00120088 0.0984378 -0.0375949)
(0.0198567 0.0533738 -0.0106945)
(0.0441465 0.00726865 0.0111587)
(0.0673715 -0.0345932 0.0243584)
(0.0864343 -0.0674281 0.0285778)
(0.0992925 -0.0867287 0.0270724)
(0.104334 -0.0880653 0.0242673)
(0.100427 -0.0680097 0.0212944)
(0.087757 -0.0266227 0.0136306)
(0.0683105 0.0296309 -0.0048208)
(0.0450699 0.0880533 -0.033819)
(0.0209633 0.135105 -0.0643423)
(-0.000684945 0.163023 -0.0850222)
(-0.0150331 0.17082 -0.0896837)
(0.00188717 0.158433 -0.0617019)
(0.0174149 0.123925 -0.0420147)
(0.0373563 0.0783094 -0.0162839)
(0.0600838 0.0287333 0.00821404)
(0.081223 -0.0182325 0.0250281)
(0.0970248 -0.0574128 0.0307487)
(0.105632 -0.0848863 0.0268192)
(0.106335 -0.0971673 0.0191415)
(0.0990274 -0.0910262 0.013966)
(0.0845531 -0.0645312 0.0126682)
(0.0651644 -0.0189926 0.0101982)
(0.0442282 0.0391036 -0.000509961)
(0.0249961 0.0981185 -0.0214744)
(0.00944645 0.14498 -0.0465267)
(-0.00111039 0.170907 -0.0653021)
(-0.0046601 0.174026 -0.0703957)
(0.0295882 0.132808 -0.0175742)
(0.0539741 0.0948909 0.000559764)
(0.0767231 0.0468556 0.0221045)
(0.0965353 -0.00160974 0.0395188)
(0.109793 -0.0436999 0.04626)
(0.114431 -0.0755072 0.0400057)
(0.110254 -0.094617 0.0247105)
(0.0978195 -0.098805 0.0090128)
(0.0784929 -0.0861129 0.000402768)
(0.0550321 -0.0559643 3.27671e-06)
(0.0314281 -0.0105427 0.00250914)
(0.0119408 0.0441077 0.000889816)
(-0.00022515 0.098121 -0.00803013)
(-0.00405736 0.140049 -0.0210531)
(-0.000381449 0.161003 -0.0306321)
(0.0112854 0.158046 -0.0297392)
(0.0575158 0.0913171 0.0355321)
(0.0870624 0.0541913 0.0509209)
(0.107604 0.0102748 0.0659448)
(0.11992 -0.0303155 0.0734166)
(0.122044 -0.0621322 0.0674749)
(0.11412 -0.0832756 0.0475603)
(0.0973999 -0.092916 0.0204155)
(0.0733813 -0.0899947 -0.00304016)
(0.0447481 -0.0736383 -0.0148735)
(0.0158503 -0.0442025 -0.0145215)
(-0.00821591 -0.00416722 -0.00726124)
(-0.0229684 0.0413129 0.000506847)
(-0.0256822 0.0845136 0.00522389)
(-0.0163715 0.116494 0.00756469)
(0.00225347 0.1297 0.0117106)
(0.0314516 0.120995 0.023562)
(0.0751542 0.040539 0.0798686)
(0.104045 0.0087969 0.0930491)
(0.11807 -0.02421 0.10176)
(0.120697 -0.0510988 0.0994059)
(0.11189 -0.0691036 0.0813855)
(0.0935666 -0.0784145 0.0493304)
(0.067738 -0.0795158 0.0125424)
(0.0365114 -0.0722602 -0.016661)
(0.00361009 -0.0564851 -0.0306342)
(-0.025656 -0.0328521 -0.0294478)
(-0.0459259 -0.00341359 -0.0181278)
(-0.053268 0.0280638 -0.00239618)
(-0.0460041 0.0562035 0.0140034)
(-0.0253847 0.074902 0.0299366)
(0.00437635 0.0789577 0.0469776)
(0.0464853 0.0664805 0.0703361)
(0.0746888 -0.00987798 0.105622)
(0.096874 -0.0320056 0.117865)
(0.102231 -0.0498254 0.121701)
(0.0958919 -0.060423 0.111446)
(0.0794875 -0.0640615 0.0841875)
(0.0556894 -0.0627024 0.0437622)
(0.0265683 -0.057847 0.00118013)
(-0.00552235 -0.0499759 -0.0310125)
(-0.0364232 -0.0391189 -0.0459812)
(-0.0607891 -0.0254833 -0.0442624)
(-0.0739156 -0.00995232 -0.0304874)
(-0.0730606 0.00552508 -0.00975831)
(-0.0578815 0.0179351 0.0141444)
(-0.0307946 0.0237458 0.0390197)
(0.00315164 0.0201541 0.0647728)
(0.0473906 0.00711415 0.0955764)
(0.0560772 -0.0507029 0.11232)
(0.0676929 -0.0601835 0.124296)
(0.0644609 -0.0623081 0.124639)
(0.0518005 -0.057963 0.109027)
(0.0324241 -0.0497685 0.0764052)
(0.00892765 -0.040909 0.0322542)
(-0.0170521 -0.0335814 -0.0119966)
(-0.0434679 -0.0285536 -0.0446888)
(-0.0666737 -0.0255163 -0.059996)
(-0.0823279 -0.023614 -0.0586151)
(-0.0870781 -0.0221409 -0.0445754)
(-0.0795555 -0.0211548 -0.0222718)
(-0.0605498 -0.0216446 0.00477843)
(-0.0330901 -0.0251449 0.0339893)
(-0.00213287 -0.0326168 0.0641463)
(0.0340056 -0.042816 0.0971657)
(0.0255088 -0.0756848 0.103731)
(0.0260991 -0.0718946 0.115486)
(0.0159384 -0.0610203 0.113751)
(0.000277026 -0.0459721 0.0957117)
(-0.0177384 -0.0305898 0.0618837)
(-0.0359793 -0.0185352 0.0184052)
(-0.0535301 -0.0121714 -0.0240927)
(-0.0693277 -0.0121362 -0.0555038)
(-0.0812261 -0.0174744 -0.0709436)
(-0.0866758 -0.0261527 -0.070962)
(-0.0839558 -0.0359768 -0.0587947)
(-0.0728422 -0.0454831 -0.0379461)
(-0.0546597 -0.0542358 -0.0113152)
(-0.0322949 -0.0624163 0.0186353)
(-0.00979921 -0.0698656 0.0499325)
(0.0130433 -0.0749334 0.0816888)
(-0.00728039 -0.07949 0.0845714)
(-0.0154386 -0.0659693 0.0959902)
(-0.0304925 -0.0474809 0.0940141)
(-0.0466916 -0.0274078 0.076876)
(-0.0606755 -0.010035 0.0458573)
(-0.0706789 0.00100646 0.00669018)
(-0.0766881 0.00379171 -0.0315182)
(-0.0792991 -0.00165627 -0.0603362)
(-0.0786565 -0.0135178 -0.0755994)
(-0.0744153 -0.0288201 -0.0776325)
(-0.0663876 -0.0445449 -0.0688889)
(-0.0550304 -0.0586145 -0.0518723)
(-0.0415143 -0.0700816 -0.0285409)
(-0.0278596 -0.0785684 -0.000798027)
(-0.0166704 -0.0834993 0.0290142)
(-0.00742862 -0.083535 0.0579229)
(-0.0631556 -0.0497111 0.051679)
(-0.0689819 -0.0330094 0.0620632)
(-0.0762998 -0.0150134 0.0596661)
(-0.0800089 0.0021381 0.0438728)
(-0.0796013 0.0158555 0.0176103)
(-0.0751541 0.023704 -0.0135612)
(-0.0674855 0.023843 -0.0431353)
(-0.0579175 0.0156171 -0.0659993)
(-0.047835 0.000380679 -0.0800147)
(-0.03874 -0.0183176 -0.0855786)
(-0.0324371 -0.0361051 -0.0838084)
(-0.0303682 -0.0499433 -0.0750299)
(-0.0325308 -0.0589382 -0.0589166)
(-0.0378401 -0.0631606 -0.0358235)
(-0.0451792 -0.0625851 -0.00789332)
(-0.0496279 -0.0569452 0.0200175)
(-0.0659416 -0.0194268 0.0152534)
(-0.0756864 -0.00504238 0.0282839)
(-0.0837924 0.00914925 0.0315648)
(-0.0850353 0.0210067 0.0240151)
(-0.0792703 0.0284492 0.00755524)
(-0.0668291 0.0296571 -0.0137825)
(-0.0489672 0.0234987 -0.035414)
(-0.0280484 0.0102308 -0.053729)
(-0.00724674 -0.00768699 -0.0671526)
(0.00967052 -0.0257014 -0.0759396)
(0.0187986 -0.0391603 -0.0807391)
(0.017693 -0.0462072 -0.0808532)
(0.00712945 -0.0479027 -0.0742189)
(-0.00967525 -0.0456643 -0.0594525)
(-0.0291521 -0.039978 -0.0375002)
(-0.0442919 -0.0309341 -0.0120221)
(-0.0598202 0.0164296 -0.0175714)
(-0.0719499 0.0263559 -0.00220324)
(-0.0793336 0.0342081 0.0068754)
(-0.0773853 0.037969 0.00798707)
(-0.0664055 0.0363478 0.00196655)
(-0.0472153 0.0286299 -0.00870756)
(-0.0216155 0.014909 -0.0211999)
(0.00730468 -0.00333064 -0.0333641)
(0.0353126 -0.0225225 -0.0443898)
(0.0572932 -0.0371966 -0.0548287)
(0.0679023 -0.0426222 -0.0655456)
(0.0636672 -0.0388042 -0.0753354)
(0.0456729 -0.0299311 -0.0800549)
(0.0189717 -0.0195631 -0.0757338)
(-0.0104227 -0.00870028 -0.0615475)
(-0.0339594 0.00261955 -0.0398882)
(-0.0485247 0.0551507 -0.0456343)
(-0.0612368 0.0588831 -0.0288835)
(-0.0663596 0.0584747 -0.0146898)
(-0.0605763 0.052477 -0.00544614)
(-0.044734 0.04047 -0.00146265)
(-0.0202851 0.0228978 -0.00174342)
(0.0103499 0.00116353 -0.00503803)
(0.0435219 -0.0219373 -0.0104432)
(0.0745158 -0.0416442 -0.0177017)
(0.0977711 -0.0514527 -0.0276233)
(0.107541 -0.0464652 -0.0418882)
(0.100043 -0.028769 -0.0599833)
(0.0764192 -0.00655995 -0.0762906)
(0.0427417 0.0134598 -0.0837295)
(0.00682787 0.029473 -0.0789961)
(-0.0218823 0.0419365 -0.0630641)
(-0.0358064 0.0921819 -0.0684817)
(-0.0469363 0.088889 -0.0514878)
(-0.0482579 0.0792252 -0.0333531)
(-0.0379377 0.062698 -0.0171795)
(-0.0175116 0.0399277 -0.00446158)
(0.0107853 0.0125983 0.0043012)
(0.0438277 -0.016562 0.00892179)
(0.0775529 -0.0435212 0.00945831)
(0.107191 -0.0625215 0.00619508)
(0.127483 -0.066421 -0.00146189)
(0.13341 -0.0503788 -0.0161786)
(0.122004 -0.0182304 -0.0393292)
(0.0946538 0.0180999 -0.0652948)
(0.0574973 0.0483253 -0.0842321)
(0.0190164 0.0693454 -0.089737)
(-0.0112398 0.0821993 -0.0811933)
(-0.0243973 0.123122 -0.085105)
(-0.0316309 0.112197 -0.0685467)
(-0.0277337 0.0927648 -0.0474679)
(-0.0122962 0.0656125 -0.0257356)
(0.0123287 0.0326271 -0.00615881)
(0.042966 -0.00317348 0.00920919)
(0.075775 -0.0378286 0.0190088)
(0.10649 -0.0663373 0.0231745)
(0.130705 -0.0824632 0.0228275)
(0.144154 -0.0792193 0.0181112)
(0.14349 -0.0525104 0.00553562)
(0.127494 -0.00751577 -0.018707)
(0.0981508 0.0413719 -0.0505861)
(0.0609904 0.0808243 -0.0787958)
(0.0239137 0.106095 -0.0939271)
(-0.0043274 0.11844 -0.0933427)
(-0.0155865 0.143832 -0.092666)
(-0.0166658 0.124582 -0.0760826)
(-0.00646445 0.095211 -0.0524435)
(0.0142012 0.0581103 -0.0266084)
(0.0420643 0.0166513 -0.00289669)
(0.0729771 -0.0248991 0.015229)
(0.102577 -0.0616812 0.0259883)
(0.126761 -0.0882963 0.0302482)