/*--------------------------------*- C++ -*----------------------------------*\
| =========                 |                                                 |
| \\      /  F ield         | OpenFOAM: The Open Source CFD Toolbox           |
|  \\    /   O peration     | Version:  3.0.0                                 |
|   \\  /    A nd           | Web:      www.OpenFOAM.org                      |
|    \\/     M anipulation  |                                                 |
\*---------------------------------------------------------------------------*/
FoamFile
{
    version     2.0;
    format      ascii;
    class       volScalarField;
    location    "150";
    object      nut;
}
// * * * * * * * * * * * * * * * * * * * * * * * * * * * * * * * * * * * * * //

dimensions      [0 2 -1 0 0 0 0];

internalField   nonuniform List<scalar> 
10720
(
0.0958895
0.100522
0.105789
0.11156
0.118139
0.125537
0.133891
0.143011
0.152857
0.16301
0.172975
0.181936
0.189238
0.194676
0.198237
0.200118
0.200528
0.199755
0.197923
0.195217
0.191607
0.18718
0.18198
0.176242
0.170385
0.164693
0.159143
0.153582
0.147905
0.142108
0.136186
0.130103
0.123821
0.117287
0.11031
0.102767
0.0935136
0.0832063
0.0598831
0.0914807
0.0867951
0.0817472
0.0756804
0.0686567
0.0601267
0.0493739
0.0372275
0.034468
0.0326191
0.0402199
0.0468896
0.0521419
0.0566678
0.060941
0.0651629
0.0693718
0.0735322
0.07759
0.0815166
0.0853066
0.0889705
0.0925262
0.0959671
0.0991081
0.101731
0.10381
0.105392
0.10653
0.107258
0.107622
0.107717
0.107593
0.107217
0.106497
0.105414
0.103525
0.10134
0.0922357
0.100319
0.0999301
0.0992649
0.0983509
0.0973766
0.0962784
0.095156
0.0940702
0.0939714
0.0949198
0.0966047
0.0992964
0.103051
0.10772
0.113326
0.119611
0.126462
0.133599
0.140871
0.147936
0.15466
0.160618
0.165485
0.168819
0.170181
0.16965
0.167622
0.164432
0.160425
0.155882
0.151013
0.14597
0.140867
0.135798
0.130872
0.126187
0.121962
0.118139
0.113056
0.100716
0.1008
0.101019
0.100767
0.100258
0.0994399
0.0981472
0.0961956
0.0932443
0.0898747
0.0857642
0.0815
0.0773224
0.0732701
0.069449
0.0659233
0.0627588
0.0599778
0.0575993
0.0556143
0.0540171
0.0527863
0.051898
0.0513123
0.0510029
0.050935
0.0510463
0.0512722
0.0515575
0.0519324
0.0531122
0.0555862
0.0588453
0.0622258
0.0653026
0.0680518
0.070376
0.0744384
0.0780925
0.12184
0.121666
0.121284
0.120694
0.12001
0.119126
0.11804
0.116813
0.11539
0.113868
0.112479
0.111391
0.1106
0.110077
0.109666
0.109388
0.109316
0.109506
0.109652
0.109203
0.109327
0.110165
0.111635
0.116121
0.12304
0.130374
0.137146
0.142915
0.147488
0.150804
0.152925
0.154007
0.154251
0.15386
0.15303
0.15181
0.150606
0.147959
0.148607
0.122013
0.121964
0.121969
0.121712
0.121261
0.120585
0.119605
0.118285
0.116648
0.114642
0.112273
0.109602
0.106681
0.103526
0.100226
0.0968206
0.093377
0.089944
0.086573
0.0832762
0.0800845
0.0769969
0.0740191
0.0710569
0.0680629
0.0651006
0.0622083
0.059428
0.0567917
0.0543388
0.0520549
0.0505359
0.0504968
0.0515556
0.0532636
0.0554426
0.0580298
0.0609338
0.0659943
0.128987
0.128882
0.128674
0.128362
0.127984
0.127499
0.1269
0.126208
0.125391
0.124459
0.12341
0.122243
0.121021
0.119851
0.118683
0.117159
0.115322
0.113312
0.111157
0.108814
0.106432
0.104169
0.102096
0.100649
0.100257
0.101059
0.10284
0.108404
0.115648
0.123427
0.131189
0.138537
0.145216
0.151123
0.156314
0.160814
0.16506
0.167469
0.171318
0.129067
0.129066
0.129052
0.128921
0.128686
0.128328
0.127804
0.127097
0.126191
0.125065
0.123717
0.122157
0.120391
0.118411
0.116252
0.113924
0.111452
0.108866
0.106204
0.10348
0.100717
0.0979306
0.0951172
0.0921914
0.0890865
0.0858518
0.0825179
0.0791188
0.0756865
0.0722557
0.0688535
0.0655186
0.0623611
0.0595381
0.0569988
0.0558152
0.0562112
0.0570028
0.0597644
0.132597
0.132524
0.132383
0.132181
0.13194
0.131628
0.131247
0.130804
0.130281
0.129682
0.129003
0.128233
0.127365
0.126396
0.12532
0.12412
0.122754
0.121193
0.119396
0.117349
0.115024
0.112449
0.109673
0.106738
0.104312
0.102474
0.100797
0.0993616
0.0991756
0.100405
0.105671
0.113167
0.122064
0.131811
0.141993
0.152333
0.162946
0.173168
0.182999
0.132649
0.132645
0.132638
0.132548
0.132399
0.132166
0.13183
0.131385
0.130824
0.130133
0.129305
0.12835
0.127263
0.126028
0.124658
0.123155
0.121522
0.119763
0.117895
0.115927
0.113869
0.111719
0.109472
0.107065
0.104435
0.101606
0.0985937
0.095421
0.0921062
0.0886722
0.0851451
0.0815515
0.0779122
0.0742676
0.0706328
0.0670905
0.0639409
0.0607165
0.0593635
0.134661
0.134609
0.134519
0.134386
0.134221
0.13401
0.133751
0.133449
0.133094
0.132685
0.132221
0.131694
0.131099
0.130427
0.129669
0.128816
0.127848
0.126741
0.125465
0.123996
0.122287
0.12031
0.118038
0.115465
0.112753
0.110034
0.10733
0.104589
0.102365
0.100204
0.0988223
0.0988922
0.102837
0.109991
0.119947
0.132505
0.147462
0.165388
0.18401
0.134692
0.134691
0.134684
0.134623
0.134523
0.134361
0.134129
0.13382
0.133442
0.132985
0.132436
0.131803
0.131089
0.13028
0.129377
0.128376
0.127285
0.126097
0.124814
0.123436
0.121972
0.120411
0.118739
0.116908
0.114868
0.11262
0.110162
0.107504
0.104651
0.101611
0.0983958
0.0950249
0.091513
0.0878757
0.0841267
0.0802263
0.076192
0.0717113
0.0649417
0.135978
0.135941
0.135876
0.135779
0.13566
0.135508
0.13532
0.135101
0.134846
0.134552
0.134218
0.133838
0.133409
0.132926
0.132377
0.131756
0.131051
0.130248
0.129323
0.128258
0.127025
0.125593
0.123937
0.122039
0.119918
0.117587
0.115054
0.112333
0.109531
0.106632
0.103752
0.101182
0.0993557
0.0991527
0.103358
0.112115
0.125916
0.147429
0.17497
0.135999
0.135997
0.135991
0.135946
0.135874
0.135755
0.135585
0.135361
0.135087
0.134762
0.13438
0.133938
0.133436
0.132875
0.132255
0.131562
0.1308
0.129974
0.129078
0.128103
0.127054
0.125928
0.124708
0.123349
0.121814
0.1201
0.118194
0.116086
0.113776
0.111261
0.108538
0.105609
0.102484
0.0991646
0.0956529
0.0919129
0.0878425
0.0834434
0.0746798
0.136883
0.136856
0.136809
0.136738
0.13665
0.136537
0.136399
0.136236
0.136046
0.135828
0.135581
0.135298
0.134978
0.134618
0.134209
0.133745
0.133215
0.132614
0.131924
0.131127
0.130204
0.129141
0.127913
0.126506
0.124929
0.123169
0.121191
0.118974
0.116506
0.113785
0.110845
0.107749
0.104546
0.101554
0.0997164
0.100526
0.107792
0.125758
0.158153
0.136897
0.136894
0.136887
0.136852
0.136799
0.136707
0.136575
0.136409
0.136205
0.135959
0.135676
0.135357
0.134993
0.134582
0.134134
0.133641
0.133093
0.132492
0.131845
0.131143
0.130377
0.129545
0.128643
0.127635
0.126482
0.125182
0.123728
0.122101
0.120287
0.118279
0.116068
0.113644
0.111
0.108132
0.105028
0.101656
0.0978534
0.0938277
0.0850078
0.137538
0.137518
0.137482
0.137428
0.13736
0.137271
0.137164
0.137039
0.136891
0.136722
0.136531
0.136315
0.136068
0.135789
0.135474
0.135119
0.134712
0.134248
0.133719
0.13311
0.132405
0.13159
0.130653
0.129581
0.12838
0.12704
0.125531
0.123825
0.121887
0.119685
0.11719
0.114379
0.111253
0.107843
0.104292
0.101087
0.100047
0.108381
0.138163
0.137548
0.137544
0.137537
0.137508
0.137467
0.137397
0.137288
0.137156
0.137003
0.136814
0.136594
0.13635
0.136081
0.135775
0.135435
0.135068
0.134667
0.134222
0.133736
0.133213
0.132646
0.132021
0.131335
0.130572
0.129701
0.128708
0.127589
0.126335
0.124927
0.123348
0.121587
0.119634
0.117469
0.115076
0.112436
0.109518
0.106134
0.102562
0.0944315
0.138033
0.138018
0.137989
0.137947
0.137893
0.137822
0.137736
0.137636
0.13752
0.137387
0.137235
0.137065
0.136874
0.136657
0.13641
0.136132
0.135816
0.135454
0.135037
0.13456
0.134009
0.133371
0.132637
0.1318
0.13086
0.129812
0.128632
0.127298
0.125784
0.124055
0.122072
0.119788
0.117154
0.114104
0.110601
0.106578
0.102564
0.100324
0.12064
0.138039
0.138034
0.138026
0.138001
0.137968
0.137914
0.137827
0.137718
0.137592
0.137447
0.137276
0.137081
0.136871
0.13664
0.136382
0.136096
0.13579
0.135458
0.135089
0.134684
0.13425
0.133777
0.133249
0.132654
0.131982
0.13122
0.13035
0.129369
0.12827
0.127032
0.125637
0.124075
0.12233
0.120378
0.118189
0.115734
0.112822
0.109742
0.102564
0.138417
0.138406
0.138384
0.138348
0.138303
0.138246
0.138176
0.138093
0.137997
0.13789
0.137769
0.13763
0.137476
0.137303
0.137106
0.136882
0.136628
0.136341
0.13601
0.135629
0.135191
0.134688
0.134107
0.133444
0.132699
0.131866
0.130926
0.129862
0.128655
0.127277
0.125697
0.123873
0.121752
0.119254
0.116286
0.11259
0.108306
0.101836
0.110175
0.138421
0.138416
0.138407
0.138385
0.138358
0.138311
0.138243
0.138155
0.138048
0.137928
0.137795
0.137642
0.13747
0.137286
0.137089
0.136868
0.136624
0.136365
0.136085
0.135772
0.135428
0.135058
0.134651
0.134184
0.133649
0.133051
0.132373
0.131599
0.130725
0.129747
0.128642
0.127391
0.125985
0.124405
0.122616
0.120586
0.118136
0.115541
0.109388
0.138724
0.138715
0.138697
0.138667
0.138628
0.138579
0.138521
0.138453
0.138373
0.138283
0.138183
0.138071
0.137944
0.137802
0.137642
0.137463
0.137256
0.137022
0.136756
0.13645
0.136096
0.135689
0.135223
0.134691
0.134093
0.133424
0.132667
0.131808
0.130832
0.129716
0.128437
0.126961
0.125246
0.123224
0.120814
0.117745
0.114056
0.10741
0.106821
0.138726
0.138721
0.138711
0.138691
0.13867
0.138629
0.138569
0.138499
0.138413
0.138309
0.138197
0.138077
0.137941
0.137788
0.137628
0.137459
0.137268
0.137056
0.136833
0.136593
0.136323
0.136022
0.135698
0.135334
0.134908
0.134423
0.133883
0.133272
0.132573
0.131784
0.1309
0.129899
0.128762
0.127478
0.126021
0.124356
0.12232
0.120163
0.115006
0.138974
0.138966
0.138949
0.138924
0.138892
0.138849
0.138797
0.13874
0.138674
0.138597
0.138512
0.138419
0.138315
0.138197
0.138063
0.137915
0.137747
0.137555
0.137334
0.137084
0.136797
0.136465
0.136085
0.135653
0.135169
0.134625
0.13401
0.133311
0.132515
0.131604
0.130557
0.129348
0.127942
0.126285
0.124319
0.121816
0.118824
0.113255
0.107885
0.138975
0.138969
0.138959
0.13894
0.138923
0.13889
0.138836
0.138773
0.138705
0.138621
0.138522
0.13842
0.138313
0.138191
0.138056
0.137916
0.137768
0.137602
0.137416
0.137222
0.137012
0.136773
0.136504
0.136209
0.135874
0.135483
0.135039
0.134546
0.133989
0.133349
0.132627
0.131818
0.130899
0.129851
0.128656
0.127292
0.125609
0.123825
0.119571
0.13918
0.139174
0.139159
0.139135
0.139106
0.13907
0.139025
0.138973
0.138916
0.138853
0.138781
0.1387
0.138612
0.138515
0.138404
0.138278
0.138137
0.13798
0.137798
0.137588
0.13735
0.137078
0.136765
0.13641
0.136012
0.135567
0.135062
0.134488
0.133835
0.133086
0.132223
0.131225
0.130063
0.128692
0.127064
0.125007
0.12253
0.118354
0.111406
0.139181
0.139175
0.139164
0.139145
0.139129
0.139104
0.13906
0.139003
0.13894
0.138872
0.138793
0.138702
0.13861
0.138514
0.138406
0.138285
0.138162
0.138033
0.137885
0.13772
0.137547
0.137362
0.137145
0.136896
0.136621
0.136311
0.135949
0.135538
0.135083
0.13457
0.133978
0.133309
0.132559
0.131705
0.130721
0.129594
0.128204
0.126729
0.123253
0.139352
0.139346
0.139334
0.139312
0.139284
0.139252
0.139214
0.139169
0.139117
0.139062
0.139002
0.138934
0.138857
0.138773
0.138681
0.138577
0.138456
0.138321
0.138171
0.137997
0.137796
0.137568
0.13731
0.137016
0.136685
0.136316
0.135899
0.135424
0.134882
0.134261
0.133547
0.132719
0.131754
0.130613
0.129254
0.127552
0.125429
0.122396
0.115638
0.139353
0.139348
0.139337
0.13932
0.139304
0.139279
0.139244
0.139198
0.13914
0.139078
0.139014
0.13894
0.138858
0.138774
0.138689
0.138592
0.138484
0.138374
0.13826
0.138128
0.137979
0.137823
0.137654
0.137452
0.137216
0.136959
0.136671
0.136333
0.135949
0.135526
0.135047
0.134495
0.133868
0.133165
0.132356
0.131421
0.130266
0.129041
0.126214
0.139499
0.139492
0.13948
0.139461
0.139437
0.139405
0.13937
0.139332
0.139289
0.139238
0.139184
0.139128
0.139064
0.13899
0.138909
0.138821
0.138722
0.138606
0.138475
0.138331
0.138164
0.137969
0.137751
0.137506
0.137231
0.136922
0.136573
0.136177
0.135724
0.135206
0.13461
0.13392
0.133114
0.132161
0.131021
0.12961
0.127768
0.125489
0.119634
0.139501
0.139495
0.139484
0.139467
0.139456
0.139432
0.139397
0.139359
0.139312
0.139255
0.139195
0.139136
0.139069
0.138994
0.138918
0.138843
0.138756
0.138659
0.13856
0.138458
0.138338
0.138201
0.138057
0.137898
0.137707
0.137483
0.137242
0.136972
0.136654
0.136292
0.135894
0.135445
0.134923
0.134331
0.13366
0.132886
0.131922
0.130895
0.1286
0.139625
0.139618
0.139604
0.139586
0.139565
0.139538
0.139504
0.139469
0.139432
0.13939
0.139342
0.139289
0.139235
0.139175
0.139104
0.139025
0.138941
0.138846
0.138733
0.138605
0.138465
0.138304
0.138116
0.137908
0.137678
0.137418
0.137124
0.13679
0.13641
0.135974
0.135473
0.134893
0.134217
0.133418
0.132458
0.131284
0.129699
0.127883
0.123055
0.139626
0.139621
0.139609
0.139592
0.139582
0.139565
0.139532
0.139494
0.139455
0.139409
0.139353
0.139298
0.139245
0.139184
0.139115
0.139047
0.138979
0.138901
0.138813
0.138723
0.13863
0.13852
0.138392
0.138255
0.138104
0.137922
0.137709
0.137481
0.137226
0.136925
0.136582
0.136205
0.135778
0.135281
0.134712
0.134066
0.133263
0.132399
0.130529
0.139732
0.139726
0.139714
0.139694
0.139673
0.139649
0.139622
0.139589
0.139553
0.139518
0.139478
0.139432
0.139381
0.13933
0.139272
0.139203
0.139126
0.139045
0.138952
0.138842
0.138716
0.13858
0.138424
0.138245
0.138048
0.137829
0.13758
0.137297
0.136975
0.136606
0.136182
0.135691
0.13512
0.134446
0.133635
0.132651
0.131305
0.129794
0.125869
0.139734
0.13973
0.139719
0.139702
0.139691
0.139676
0.139651
0.139615
0.139577
0.139537
0.139493
0.139441
0.139391
0.139342
0.139287
0.139224
0.139162
0.139101
0.139031
0.138949
0.138867
0.138782
0.138679
0.138555
0.138423
0.138279
0.138106
0.137903
0.137685
0.137444
0.137157
0.136828
0.136468
0.13606
0.135579
0.135027
0.134355
0.133628
0.132099
0.139825
0.139818
0.139807
0.13979
0.139769
0.139745
0.139721
0.139695
0.139662
0.139627
0.139594
0.139556
0.139512
0.139462
0.139413
0.139357
0.13929
0.139214
0.139135
0.139045
0.138936
0.138813
0.138681
0.138531
0.138361
0.138172
0.137961
0.13772
0.137445
0.137131
0.13677
0.136353
0.135866
0.135295
0.134606
0.133775
0.132639
0.131359
0.128161
0.13983
0.139826
0.139815
0.139799
0.139788
0.139772
0.139751
0.139722
0.139685
0.139647
0.139609
0.139567
0.13952
0.139473
0.139429
0.139379
0.139322
0.139266
0.139211
0.139147
0.139071
0.138994
0.138914
0.138815
0.138695
0.138568
0.138431
0.138265
0.13807
0.137862
0.137631
0.137355
0.137039
0.136692
0.136295
0.135827
0.135253
0.134638
0.133384
0.139909
0.1399
0.139886
0.139871
0.139854
0.139832
0.139807
0.139784
0.139759
0.139728
0.139694
0.139662
0.139627
0.139584
0.139535
0.139487
0.139434
0.139368
0.139292
0.139214
0.139126
0.139018
0.138899
0.138771
0.138628
0.138464
0.138282
0.138076
0.137841
0.137572
0.137263
0.136906
0.13649
0.136001
0.135415
0.134708
0.133748
0.132659
0.13004
0.139913
0.139909
0.139898
0.139882
0.139875
0.13986
0.139837
0.139812
0.139783
0.139746
0.139709
0.139674
0.139635
0.139591
0.139549
0.139509
0.139464
0.139412
0.139361
0.139311
0.139252
0.13918
0.139107
0.13903
0.138933
0.138817
0.138694
0.138564
0.138404
0.138216
0.138015
0.137793
0.137527
0.13722
0.136881
0.136492
0.136004
0.135475
0.134442
0.139981
0.139973
0.139959
0.139942
0.139927
0.139909
0.139887
0.139863
0.139841
0.139817
0.139788
0.139755
0.139725
0.139691
0.139649
0.139602
0.139554
0.139502
0.139437
0.139362
0.139284
0.139197
0.139092
0.138977
0.138854
0.138716
0.138557
0.138378
0.138177
0.137946
0.13768
0.137373
0.137015
0.136596
0.136092
0.135488
0.134673
0.133746
0.13159
0.139985
0.139983
0.139973
0.139955
0.139948
0.139937
0.139917
0.139891
0.139865
0.139835
0.1398
0.139765
0.139733
0.139697
0.139657
0.139619
0.139583
0.139543
0.139495
0.139447
0.139401
0.139346
0.139277
0.139205
0.13913
0.139037
0.138924
0.138806
0.13868
0.138526
0.138343
0.138149
0.137934
0.137675
0.137374
0.137041
0.136633
0.13618
0.13532
0.140044
0.140035
0.140024
0.140008
0.139991
0.139975
0.139959
0.139938
0.139915
0.139894
0.139872
0.139844
0.139812
0.139782
0.13975
0.139709
0.139662
0.139615
0.139563
0.139498
0.139424
0.139347
0.139262
0.13916
0.139049
0.13893
0.138795
0.138639
0.138464
0.138265
0.138035
0.13777
0.137462
0.1371
0.136666
0.136145
0.135452
0.134659
0.132878
0.14005
0.140049
0.140039
0.140023
0.140013
0.140003
0.139988
0.139964
0.139937
0.13991
0.139882
0.139849
0.139816
0.139787
0.139755
0.139719
0.139684
0.139652
0.139615
0.13957
0.139526
0.139483
0.13943
0.139362
0.139291
0.139219
0.139129
0.139019
0.138904
0.138783
0.138633
0.138456
0.138267
0.138057
0.137802
0.137506
0.137156
0.136773
0.136055
0.140102
0.140091
0.140078
0.140067
0.140052
0.140035
0.140019
0.140005
0.139985
0.139964
0.139944
0.139923
0.139896
0.139865
0.139836
0.139804
0.139763
0.139717
0.139669
0.139618
0.139553
0.13948
0.139404
0.139321
0.139223
0.139116
0.138999
0.138865
0.138712
0.138539
0.13834
0.138111
0.137844
0.13753
0.137155
0.136705
0.136111
0.13543
0.133953
0.140109
0.140108
0.140097
0.140082
0.140074
0.140063
0.140048
0.140029
0.140005
0.139977
0.139951
0.139924
0.139894
0.139864
0.139838
0.13981
0.139777
0.139745
0.139716
0.139682
0.13964
0.139598
0.139556
0.139504
0.139438
0.139368
0.139298
0.139211
0.139104
0.138992
0.138874
0.138729
0.138555
0.13837
0.138163
0.13791
0.137601
0.137272
0.136675
0.140153
0.140143
0.140128
0.140116
0.140106
0.140092
0.140075
0.140062
0.140049
0.140031
0.14001
0.139991
0.139971
0.139945
0.139914
0.139885
0.139853
0.139812
0.139765
0.139718
0.139667
0.139602
0.13953
0.139457
0.139376
0.139282
0.139177
0.139061
0.138929
0.138777
0.138604
0.138404
0.138173
0.137901
0.137576
0.137185
0.136673
0.136086
0.134857
0.140159
0.140159
0.14015
0.140134
0.140128
0.140119
0.140103
0.140085
0.140065
0.140039
0.140012
0.139988
0.139964
0.139937
0.13991
0.139887
0.139861
0.139832
0.139802
0.139775
0.139743
0.139703
0.139663
0.139622
0.13957
0.139505
0.139438
0.139369
0.139285
0.13918
0.139071
0.138956
0.138814
0.138644
0.13846
0.138253
0.137989
0.137697
0.137197
0.140197
0.140188
0.140176
0.140163
0.140151
0.140142
0.14013
0.140116
0.140103
0.140091
0.140075
0.140054
0.140035
0.140015
0.139989
0.139959
0.139929
0.139897
0.139857
0.13981
0.139762
0.13971
0.139647
0.139578
0.139507
0.139427
0.139335
0.139232
0.139117
0.138985
0.138833
0.138659
0.138457
0.138221
0.137939
0.137599
0.137157
0.136648
0.13562
0.140204
0.140206
0.140199
0.140181
0.140174
0.140168
0.140155
0.140136
0.140115
0.140095
0.14007
0.140045
0.140024
0.140002
0.139978
0.139954
0.139933
0.13991
0.139883
0.139856
0.13983
0.1398
0.139761
0.139721
0.13968
0.13963
0.139566
0.139501
0.139434
0.139352
0.139249
0.139142
0.13903
0.13889
0.138721
0.138539
0.13832
0.138067
0.137641
0.140238
0.140227
0.140217
0.140207
0.140195
0.140185
0.140178
0.140168
0.140155
0.140143
0.140131
0.140115
0.140095
0.140075
0.140055
0.14003
0.14
0.13997
0.139937
0.139897
0.13985
0.139803
0.139752
0.13969
0.139624
0.139554
0.139475
0.139384
0.139281
0.139166
0.139034
0.138882
0.138705
0.138499
0.138254
0.137958
0.137575
0.137132
0.136271
0.140247
0.14025
0.140241
0.140225
0.140217
0.14021
0.1402
0.140183
0.140162
0.140142
0.140121
0.140099
0.140077
0.140058
0.140039
0.140017
0.139996
0.139977
0.139956
0.139931
0.139905
0.139881
0.139852
0.139814
0.139773
0.139733
0.139684
0.139623
0.139558
0.139493
0.139412
0.139312
0.139207
0.139096
0.138956
0.138789
0.138597
0.138386
0.138024
0.140275
0.140264
0.140253
0.140245
0.140237
0.140228
0.14022
0.140214
0.140206
0.140193
0.14018
0.140167
0.140151
0.140132
0.140112
0.140092
0.140067
0.140037
0.140007
0.139975
0.139934
0.139888
0.139842
0.139791
0.139732
0.139668
0.139599
0.13952
0.139429
0.139327
0.139211
0.139077
0.138922
0.138742
0.138528
0.13827
0.137939
0.137549
0.13685
0.140284
0.140287
0.140279
0.140264
0.140258
0.140251
0.140239
0.140225
0.140206
0.140185
0.140165
0.140147
0.140128
0.140108
0.140091
0.140075
0.140055
0.140036
0.140019
0.14
0.139976
0.139951
0.139928
0.139899
0.139861
0.139821
0.139782
0.139734
0.139674
0.139611
0.139547
0.139468
0.139369
0.139265
0.139154
0.139014
0.13884
0.138655
0.138354
0.140308
0.140299
0.140287
0.140278
0.140273
0.140269
0.140263
0.140255
0.140249
0.14024
0.140227
0.140214
0.140201
0.140186
0.140167
0.140147
0.140127
0.140102
0.140072
0.140042
0.140009
0.139969
0.139925
0.139879
0.13983
0.139773
0.13971
0.139641
0.139561
0.139471
0.139368
0.13925
0.139114
0.138956
0.138768
0.138543
0.138256
0.13791
0.137349
0.140316
0.140321
0.140314
0.140297
0.140293
0.140288
0.140276
0.14026
0.140244
0.140226
0.140206
0.140189
0.140173
0.140156
0.140139
0.140124
0.14011
0.140092
0.140074
0.140058
0.14004
0.140018
0.139994
0.13997
0.139941
0.139904
0.139866
0.139827
0.13978
0.139721
0.139659
0.139596
0.139518
0.139421
0.139317
0.139205
0.139059
0.13889
0.138634
0.140337
0.140328
0.140319
0.140312
0.140307
0.140305
0.140302
0.140296
0.140287
0.14028
0.140271
0.140259
0.140246
0.140234
0.140218
0.1402
0.14018
0.140159
0.140135
0.140105
0.140075
0.140042
0.140003
0.13996
0.139916
0.139868
0.139811
0.139749
0.139679
0.1396
0.139509
0.139405
0.139285
0.139145
0.13898
0.138782
0.138534
0.138225
0.137771
0.140346
0.140353
0.140348
0.14033
0.140324
0.140321
0.140311
0.140294
0.140277
0.140261
0.140245
0.140228
0.140213
0.140199
0.140185
0.14017
0.140156
0.140143
0.140128
0.140111
0.140096
0.140079
0.140057
0.140033
0.140009
0.139981
0.139945
0.139907
0.139869
0.139823
0.139765
0.139704
0.139642
0.139565
0.139468
0.139365
0.139246
0.139102
0.138879
0.140365
0.140355
0.140346
0.140343
0.140341
0.140338
0.140336
0.140333
0.140326
0.140317
0.14031
0.140302
0.14029
0.140277
0.140264
0.14025
0.140231
0.140211
0.14019
0.140165
0.140136
0.140106
0.140073
0.140035
0.139994
0.139951
0.139903
0.139847
0.139785
0.139715
0.139635
0.139543
0.139437
0.139313
0.139168
0.138994
0.138779
0.138503
0.13813
0.140374
0.140382
0.140376
0.14036
0.140355
0.140349
0.14034
0.140326
0.140309
0.140292
0.140279
0.140265
0.14025
0.140237
0.140226
0.140213
0.140199
0.140187
0.140175
0.140161
0.140146
0.140131
0.140114
0.140093
0.140069
0.140045
0.140018
0.139983
0.139946
0.139908
0.139864
0.139807
0.139747
0.139685
0.139608
0.139512
0.139405
0.139285
0.139096
0.14039
0.140381
0.140371
0.140371
0.140373
0.140371
0.140367
0.140364
0.140361
0.140355
0.140347
0.140339
0.140331
0.14032
0.140307
0.140294
0.140279
0.140261
0.14024
0.140219
0.140195
0.140166
0.140135
0.140103
0.140067
0.140028
0.139985
0.139936
0.139881
0.139819
0.139748
0.139667
0.139573
0.139464
0.139336
0.139182
0.138995
0.13875
0.138438
0.140398
0.140406
0.140401
0.140385
0.140382
0.140378
0.140366
0.140352
0.140338
0.140323
0.140309
0.140297
0.140286
0.140273
0.140261
0.140252
0.140241
0.140228
0.140217
0.140206
0.140193
0.140178
0.140164
0.140148
0.140127
0.140103
0.14008
0.140053
0.140021
0.139984
0.139948
0.139905
0.13985
0.13979
0.139728
0.13965
0.139552
0.139445
0.139286
0.140412
0.140404
0.140397
0.140398
0.1404
0.1404
0.140398
0.140395
0.140392
0.140389
0.140383
0.140375
0.140368
0.14036
0.140349
0.140335
0.140322
0.140308
0.140289
0.140268
0.140247
0.140223
0.140195
0.140165
0.140134
0.140099
0.14006
0.140017
0.139968
0.139913
0.13985
0.139778
0.139695
0.139599
0.139486
0.139351
0.139187
0.13897
0.138707
0.140419
0.140429
0.140425
0.140408
0.140406
0.140403
0.140391
0.140376
0.140363
0.140351
0.140339
0.140327
0.140317
0.140308
0.140296
0.140286
0.140277
0.140268
0.140257
0.140246
0.140237
0.140225
0.14021
0.140196
0.14018
0.140161
0.140139
0.140117
0.140093
0.140063
0.140029
0.139993
0.139952
0.139899
0.139839
0.139774
0.139693
0.139595
0.139456
0.140432
0.140423
0.140419
0.140426
0.140426
0.140425
0.140426
0.140426
0.140422
0.140419
0.140417
0.140411
0.140403
0.140395
0.140388
0.140377
0.140363
0.14035
0.140335
0.140317
0.140296
0.140274
0.140251
0.140223
0.140195
0.140164
0.14013
0.140091
0.140047
0.139998
0.139942
0.139879
0.139805
0.139721
0.139621
0.139501
0.139364
0.13917
0.138943
0.140439
0.140449
0.140446
0.14043
0.140427
0.140424
0.140414
0.140399
0.140385
0.140375
0.140366
0.140356
0.140345
0.140337
0.140329
0.14032
0.14031
0.140303
0.140295
0.140285
0.140276
0.140267
0.140256
0.140243
0.140231
0.140218
0.140203
0.140184
0.140165
0.140145
0.140117
0.140084
0.14005
0.14001
0.139957
0.139895
0.139826
0.139743
0.139617
0.140451
0.140442
0.140439
0.140449
0.140449
0.140448
0.14045
0.140451
0.140451
0.140448
0.140445
0.140442
0.140437
0.14043
0.140422
0.140415
0.140405
0.140391
0.140378
0.140364
0.140345
0.140324
0.140303
0.14028
0.140253
0.140225
0.140194
0.14016
0.14012
0.140076
0.140027
0.13997
0.139905
0.13983
0.139744
0.139637
0.139528
0.139354
0.139156
0.140456
0.140461
0.140458
0.140448
0.140446
0.140441
0.140431
0.14042
0.140408
0.140398
0.14039
0.140383
0.140374
0.140365
0.140358
0.140352
0.140344
0.140336
0.14033
0.140323
0.140315
0.140307
0.140301
0.140295
0.140287
0.140279
0.140271
0.14026
0.140245
0.140229
0.140212
0.140188
0.140156
0.140121
0.140081
0.140027
0.139961
0.139886
0.139786
0.140464
0.140459
0.140458
0.140464
0.140465
0.140467
0.140468
0.140469
0.14047
0.140471
0.140469
0.140467
0.140466
0.140462
0.140456
0.140449
0.140443
0.140434
0.140422
0.140409
0.140396
0.140378
0.140357
0.140335
0.140313
0.140286
0.140257
0.140225
0.140189
0.140149
0.140104
0.140054
0.139998
0.139935
0.139864
0.139773
0.139681
0.139526
0.139351
0.140465
0.140467
0.140465
0.140459
0.140457
0.140453
0.140445
0.140435
0.140428
0.14042
0.140412
0.140405
0.1404
0.140393
0.140385
0.140381
0.140376
0.140369
0.140363
0.140359
0.140355
0.140351
0.140349
0.14035
0.140349
0.140344
0.140339
0.140334
0.140327
0.140317
0.140304
0.140291
0.140272
0.140244
0.140209
0.140167
0.14011
0.140035
0.139959
0.14047
0.140469
0.14047
0.140472
0.140473
0.140476
0.140478
0.140479
0.14048
0.140482
0.140483
0.140482
0.140481
0.140481
0.14048
0.140477
0.140473
0.14047
0.140465
0.140457
0.140448
0.140439
0.140426
0.140408
0.140389
0.140366
0.140339
0.140307
0.140274
0.140236
0.140195
0.14015
0.1401
0.140045
0.139983
0.139906
0.139826
0.139686
0.13953
0.14047
0.140472
0.14047
0.140464
0.140461
0.140459
0.140453
0.140446
0.140441
0.140437
0.140431
0.140425
0.140421
0.140418
0.140412
0.140407
0.140404
0.140401
0.140397
0.140394
0.140393
0.140394
0.140393
0.140393
0.140394
0.140392
0.140388
0.140384
0.140382
0.140377
0.140369
0.14036
0.140351
0.140338
0.140317
0.140289
0.140252
0.140187
0.140126
0.140474
0.140473
0.140474
0.140478
0.140479
0.140481
0.140484
0.140487
0.140488
0.140489
0.140491
0.140493
0.140492
0.140492
0.140493
0.140493
0.140491
0.140489
0.140488
0.140485
0.140479
0.140474
0.14047
0.140461
0.14045
0.140437
0.14042
0.140399
0.140372
0.140342
0.140306
0.140264
0.140218
0.140165
0.140107
0.140036
0.139964
0.139836
0.139696
0.140475
0.140475
0.140473
0.140468
0.140464
0.140461
0.140457
0.140452
0.140447
0.140444
0.140442
0.140439
0.140435
0.140433
0.140432
0.140429
0.140426
0.140424
0.140424
0.140421
0.140419
0.14042
0.140421
0.140419
0.140417
0.140417
0.140416
0.140413
0.14041
0.140409
0.140405
0.140399
0.140394
0.140388
0.140378
0.140362
0.140346
0.140304
0.140263
0.140477
0.140476
0.140477
0.140481
0.140483
0.140485
0.140487
0.140491
0.140494
0.140495
0.140496
0.140499
0.140501
0.140501
0.140501
0.140502
0.140503
0.140502
0.140501
0.140501
0.140499
0.140495
0.140492
0.14049
0.140484
0.140477
0.140469
0.140459
0.140445
0.140426
0.140402
0.140372
0.140334
0.140288
0.140234
0.140168
0.1401
0.139985
0.139855
0.140476
0.140476
0.140474
0.14047
0.140467
0.140462
0.140458
0.140455
0.140452
0.140448
0.140446
0.140445
0.140443
0.140441
0.14044
0.14044
0.140438
0.140435
0.140435
0.140435
0.140434
0.140432
0.140433
0.140434
0.140432
0.140431
0.140431
0.140431
0.140428
0.140427
0.140427
0.140425
0.14042
0.140416
0.140413
0.140405
0.140396
0.140375
0.140355
0.140478
0.140478
0.140479
0.140482
0.140485
0.140488
0.140491
0.140493
0.140496
0.1405
0.140501
0.140503
0.140505
0.140508
0.140508
0.140509
0.140511
0.140512
0.140511
0.140511
0.140511
0.140511
0.140508
0.140506
0.140505
0.140501
0.140496
0.140492
0.140485
0.140476
0.140464
0.140447
0.140424
0.140393
0.140352
0.140296
0.140233
0.140135
0.140013
0.140476
0.140476
0.140474
0.14047
0.140467
0.140463
0.140459
0.140455
0.140453
0.140451
0.140449
0.140448
0.140448
0.140446
0.140445
0.140444
0.140444
0.140443
0.140441
0.140442
0.140442
0.140441
0.14044
0.140442
0.140442
0.140441
0.14044
0.140441
0.140442
0.14044
0.140439
0.14044
0.140439
0.140436
0.140434
0.140431
0.140427
0.140415
0.140407
0.140477
0.140478
0.14048
0.140483
0.140486
0.140489
0.140493
0.140496
0.140499
0.140502
0.140505
0.140507
0.140509
0.140512
0.140514
0.140515
0.140516
0.140518
0.14052
0.14052
0.14052
0.140521
0.140521
0.140519
0.140518
0.140517
0.140515
0.140511
0.140508
0.140504
0.140498
0.14049
0.140479
0.140463
0.140439
0.140401
0.140353
0.140276
0.140168
0.140476
0.140476
0.140474
0.14047
0.140466
0.140463
0.140459
0.140455
0.140453
0.140452
0.140451
0.140449
0.140448
0.140449
0.140448
0.140447
0.140447
0.140447
0.140447
0.140445
0.140446
0.140447
0.140446
0.140446
0.140447
0.140448
0.140448
0.140447
0.140449
0.14045
0.140449
0.140449
0.14045
0.14045
0.140448
0.140447
0.140447
0.140441
0.140438
0.140477
0.140478
0.14048
0.140484
0.140487
0.14049
0.140494
0.140498
0.140501
0.140504
0.140507
0.140511
0.140513
0.140515
0.140518
0.14052
0.140522
0.140523
0.140526
0.140528
0.140528
0.140528
0.14053
0.14053
0.140529
0.140529
0.140528
0.140527
0.140525
0.140522
0.140519
0.140515
0.14051
0.140503
0.140492
0.140473
0.140444
0.140391
0.140307
0.140476
0.140475
0.140473
0.140469
0.140465
0.140461
0.140457
0.140454
0.140452
0.140451
0.14045
0.14045
0.140449
0.140449
0.140449
0.140449
0.140448
0.140448
0.140449
0.140449
0.140448
0.140449
0.14045
0.14045
0.14045
0.140451
0.140453
0.140453
0.140453
0.140455
0.140456
0.140456
0.140456
0.140459
0.14046
0.140459
0.140459
0.140458
0.140458
0.140476
0.140477
0.140479
0.140483
0.140487
0.14049
0.140494
0.140498
0.140502
0.140506
0.140508
0.140512
0.140516
0.140518
0.14052
0.140523
0.140526
0.140528
0.14053
0.140532
0.140535
0.140536
0.140537
0.140538
0.140539
0.140539
0.140539
0.140539
0.140538
0.140537
0.140535
0.140533
0.14053
0.140527
0.140522
0.140514
0.140501
0.140472
0.140419
0.140474
0.140473
0.140471
0.140467
0.140463
0.140459
0.140455
0.140452
0.140451
0.140449
0.140449
0.140449
0.140449
0.140449
0.140449
0.140449
0.140449
0.140449
0.140449
0.14045
0.14045
0.140449
0.14045
0.140452