/*--------------------------------*- C++ -*----------------------------------*\
| =========                 |                                                 |
| \\      /  F ield         | OpenFOAM: The Open Source CFD Toolbox           |
|  \\    /   O peration     | Version:  3.0.0                                 |
|   \\  /    A nd           | Web:      www.OpenFOAM.org                      |
|    \\/     M anipulation  |                                                 |
\*---------------------------------------------------------------------------*/
FoamFile
{
    version     2.0;
    format      ascii;
    class       volScalarField;
    location    "150";
    object      p;
}
// * * * * * * * * * * * * * * * * * * * * * * * * * * * * * * * * * * * * * //

dimensions      [0 2 -2 0 0 0 0];

internalField   nonuniform List<scalar> 
10720
(
0.00984444
-79.385
-172.501
-261.948
-342.115
-422.992
-492.727
-549.231
-597.042
-632.56
-657.891
-675.046
-685.227
-689.157
-687.245
-678.982
-665.557
-645.664
-620.501
-588.712
-551.401
-507.775
-460.107
-409.342
-359.003
-314.156
-273.732
-234.086
-194.91
-156.406
-118.376
-80.667
-43.1611
-5.61278
32.2345
71.5061
112.359
160.617
206.456
81.8987
156.814
239.76
319.481
390.229
447.831
488.365
509.507
515.222
510.639
496.497
476.574
454.894
433.196
412.245
392.073
372.922
354.529
336.693
318.968
301.314
283.43
265.396
247.584
231.796
219.081
208.474
199.625
192.543
187.29
183.788
181.923
181.608
182.841
185.621
190.334
197.471
210.612
233.449
140.793
79.7553
12.3586
-58.0878
-129.443
-201.582
-270.574
-334.295
-392.245
-442.674
-485.579
-521.035
-548.944
-569.448
-582.452
-588.033
-586.864
-578.477
-563.462
-541.232
-512.427
-476.816
-436.16
-391.661
-346.469
-304.935
-266.556
-228.481
-190.514
-152.949
-115.68
-78.5864
-41.5771
-4.42358
33.1184
72.1569
112.832
161.021
206.113
196.297
249.846
304.209
358.114
407.38
449.331
480.779
499.339
505.996
502.673
491.141
474.559
455.585
435.706
415.764
396.131
377.103
358.638
340.621
322.779
305.036
287.203
269.358
251.886
236.196
223.19
212.213
202.973
195.502
189.862
185.988
183.787
183.175
184.144
186.703
191.241
198.241
211.303
233.144
162.937
108.208
47.508
-18.7502
-86.5197
-155.009
-222.616
-286.498
-345.055
-397.388
-442.329
-479.492
-508.872
-530.834
-545.534
-553.297
-554.271
-548.334
-535.743
-516.311
-490.41
-458.138
-420.809
-379.748
-337.552
-297.79
-260.545
-223.602
-186.621
-149.868
-113.271
-76.7238
-40.1498
-3.34076
33.9336
72.7606
113.264
161.283
205.969
212.939
262.434
312.59
361.254
404.767
441.472
469.134
486.177
493.432
492.041
483.312
469.536
452.709
434.308
415.329
396.333
377.666
359.427
341.565
323.9
306.338
288.757
271.222
254.087
238.473
225.26
214.087
204.678
197.045
191.238
187.205
184.856
184.108
184.953
187.409
191.865
198.806
211.756
232.667
197.599
151.523
99.5423
42.9932
-15.7267
-76.4528
-137.414
-196.709
-252.944
-304.997
-351.757
-392.576
-427.101
-455.187
-476.696
-491.513
-499.362
-500.114
-493.798
-480.363
-460.056
-433.149
-400.726
-364.173
-325.735
-288.466
-252.933
-217.506
-181.791
-146.062
-110.311
-74.4534
-38.4343
-2.06721
34.8621
73.4093
113.677
161.403
205.723
239.268
279.876
321.244
362.108
399.08
430.9
455.55
471.574
479.361
479.604
473.305
462.163
447.746
431.35
413.93
396.086
378.21
360.5
342.991
325.597
308.257
290.916
273.651
256.798
241.281
227.93
216.58
206.975
199.126
193.087
188.821
186.246
185.288
185.946
188.246
192.578
199.416
212.182
232.177
211.114
170.074
123.542
72.5267
19.3711
-36.2815
-92.9426
-148.862
-202.954
-254.047
-300.979
-342.972
-379.402
-409.815
-433.904
-451.344
-461.941
-465.612
-462.323
-452.116
-435.154
-411.778
-382.881
-349.775
-314.4
-279.301
-245.284
-211.203
-176.658
-141.913
-107.008
-71.8706
-36.4541
-0.585826
35.9363
74.1384
114.1
161.429
205.235
248.344
284.432
321.252
357.545
390.328
418.798
441.26
456.512
464.711
466.289
462.076
453.322
441.226
426.864
411.105
394.547
377.618
360.589
343.573
326.569
309.562
292.547
275.616
259.088
243.736
230.319
218.826
209.057
201.024
194.787
190.32
187.553
186.418
186.917
189.083
193.302
200.035
212.59
231.656
221.276
184.89
143.372
97.862
50.3738
0.223547
-51.1875
-102.466
-152.805
-201.114
-246.388
-287.859
-324.81
-356.649
-382.931
-403.258
-417.357
-424.96
-425.836
-419.915
-407.263
-388.179
-363.409
-334.16
-302.132
-269.482
-237.187
-204.555
-171.251
-137.536
-103.501
-69.1035
-34.3115
1.03062
37.111
74.9199
114.512
161.331
204.507
254.26
286.076
318.733
351.125
380.493
406.278
426.989
441.583
450.047
452.668
450.16
443.463
433.494
421.125
407.108
391.995
376.212
360.063
343.719
327.247
310.683
294.066
277.51
261.321
246.164
232.73
221.124
211.214
203.012
196.583
191.915
188.948
187.625
187.951
189.965
194.055
200.663
212.965
231.088
226.165
193.311
155.704
114.433
71.4322
25.7488
-21.3593
-68.6697
-115.629
-161.252
-204.656
-245.135
-281.932
-314.385
-341.95
-364.131
-380.453
-390.592
-394.23
-391.287
-381.804
-366.06
-344.683
-318.751
-289.728
-259.416
-228.84
-197.664
-165.625
-132.967
-99.8244
-66.1862
-32.0387
2.75428
38.3638
75.7398
114.901
161.096
203.55
255.971
284.613
314.132
343.5
370.189
393.813
413.111
427.107
435.693
439.126
437.989
433.02
424.936
414.428
402.125
388.506
373.967
358.822
343.275
327.448
311.422
295.277
279.147
263.332
248.413
235.024
223.352
213.332
204.984
198.378
193.519
190.358
188.85
189.003
190.866
194.821
201.29
213.298
230.477
228.597
198.761
164.517
126.957
87.9071
46.265
3.19273
-40.2437
-83.6759
-126.256
-167.213
-205.948
-241.75
-273.952
-301.963
-325.226
-343.206
-355.536
-361.837
-361.895
-355.658
-343.317
-325.377
-302.765
-276.751
-248.851
-220.099
-190.447
-159.729
-128.178
-95.9691
-63.124
-29.6488
4.57189
39.6843
76.5921
115.266
160.728
202.368
255.696
281.664
308.554
335.411
359.885
381.709
399.812
413.25
421.855
425.892
425.84
422.3
415.845
407.021
396.344
384.209
370.968
356.919
342.28
327.204
311.809
296.21
280.562
265.156
250.517
237.227
225.534
215.433
206.962
200.195
195.153
191.805
190.112
190.09
191.795
195.602
201.916
213.588
229.829
229.116
201.792
170.379
135.945
100.242
62.0903
22.544
-17.434
-57.6303
-97.2981
-135.787
-172.605
-207.097
-238.63
-266.612
-290.453
-309.577
-323.527
-331.872
-334.305
-330.725
-321.269
-306.34
-286.729
-263.514
-237.957
-211.044
-182.938
-153.57
-123.165
-91.9279
-59.9123
-27.1426
6.47542
41.0639
77.4719
115.611
160.246
200.978
253.963
277.724
302.433
327.191
349.802
370.104
387.172
400.081
408.629
413.102
413.901
411.527
406.456
399.124
389.945
379.238
367.299
354.396
340.738
326.495
311.812
296.828
281.713
266.757
252.442
239.308
227.641
217.495
208.925
202.018
196.806
193.276
191.401
191.203
192.745
196.397
202.537
213.834
229.143
228.453
203.288
174.325
142.608
109.817
74.7373
38.3501
1.52314
-35.6409
-72.4818
-108.464
-143.186
-176.064
-206.534
-234.026
-257.941
-277.698
-292.797
-302.79
-307.291
-306.123
-299.343
-287.241
-270.473
-249.946
-226.703
-201.66
-175.132
-147.146
-117.923
-87.694
-56.5438
-24.5148
8.46663
42.4987
78.3733
115.942
159.662
199.416
251.372
273.25
296.096
319.059
340.073
359.063
375.218
387.614
396.054
400.831
402.289
400.859
396.95
390.916
383.091
373.723
363.054
351.309
338.678
325.332
311.427
297.12
282.591
268.127
254.18
241.255
229.663
219.508
210.869
203.84
198.474
194.77
192.717
192.342
193.718
197.203
203.151
214.037
228.422
226.984
203.686
176.85
147.498
117.25
84.8695
51.2811
17.2726
-17.1173
-51.3151
-84.8815
-117.503
-148.66
-177.858
-204.572
-228.233
-248.258
-264.124
-275.36
-281.536
-282.394
-277.931
-268.351
-254.177
-236.16
-215.153
-191.977
-167.043
-140.46
-112.453
-83.2658
-53.0151
-21.7616
10.5481
43.9885
79.292
116.254
158.989
197.712
248.234
268.493
289.729
311.138
330.76
348.606
363.934
375.838
384.136
389.113
391.074
390.405
387.463
382.546
375.924
367.789
358.328
347.723
336.137
323.729
310.654
297.077
283.183
269.251
255.716
243.051
231.583
221.458
212.78
205.654
200.148
196.282
194.056
193.505
194.709
198.017
203.757
214.195
227.668
224.996
203.336
178.372
151.104
123.094
93.107
62.018
30.553
-1.3047
-33.0453
-64.3077
-94.8534
-124.232
-152.021
-177.744
-200.868
-220.84
-237.133
-249.262
-256.788
-259.37
-256.948
-249.641
-237.851
-222.188
-203.335
-182.013
-158.682
-133.52
-106.755
-78.6428
-49.325
-18.8811
12.7216
45.5343
80.2257
116.545
158.229
195.889
244.787
263.631
283.457
303.498
321.898
338.728
353.3
364.733
372.859
377.954
380.298
380.238
378.097
374.13
368.566
361.546
353.214
343.709
333.162
321.71
309.502
296.698
283.48
270.121
257.038
244.682
233.387
223.333
214.648
207.45
201.824
197.807
195.414
194.689
195.718
198.838
204.351
214.311
226.885
222.68
202.466
179.166
153.747
127.721
99.8654
71.0124
41.8398
12.2854
-17.196
-46.297
-74.8479
-102.458
-128.772
-153.372
-175.772
-195.452
-211.901
-224.621
-233.189
-237.195
-236.521
-231.22
-221.586
-208.098
-191.297
-171.796
-150.065
-126.333
-100.833
-73.8248
-45.472
-15.872
14.9884
47.1362
81.1735
116.81
157.387
193.959
241.177
258.779
277.353
296.179
313.488
329.41
343.288
354.265
362.2
367.352
369.98
370.403
368.921
365.762
361.115
355.093
347.799
339.336
329.803
319.309
307.987
295.985
283.478
270.728
258.137
246.137
235.062
225.12
216.461
209.218
203.492
199.338
196.786
195.889
196.74
199.663
204.932
214.385
226.076
220.172
201.247
179.434
155.671
131.417
105.471
78.626
51.5238
24.0624
-3.34263
-30.4297
-57.0825
-82.9692
-107.79
-131.189
-152.732
-171.931
-188.307
-201.363
-210.696
-215.855
-216.668
-213.126
-205.43
-193.945
-179.085
-161.355
-141.21
-118.911
-94.6923
-68.8137
-41.4559
-12.7328
17.3496
48.7946
82.1355
117.047
156.468
191.93
237.512
254.005
271.465
289.198
305.53
320.625
333.859
344.404
352.13
357.292
360.126
360.932
359.99
357.509
353.655
348.516
342.166
334.676
326.114
316.561
306.128
294.947
283.178
271.069
259.005
247.404
236.595
226.806
218.208
210.949
205.146
200.869
198.168
197.102
197.773
200.489
205.496
214.419
225.243
217.563
199.799
179.326
157.054
134.393
110.164
85.133
59.9016
34.348
8.85132
-16.3691
-41.2361
-65.4688
-88.8208
-110.984
-131.578
-150.161
-166.284
-179.468
-189.327
-195.395
-197.447
-195.424
-189.45
-179.79
-166.747
-150.724
-132.141
-111.268
-88.34
-63.6126
-37.2776
-9.46288
19.8058
50.5099
83.1117
117.254
155.475
189.813
233.864
249.362
265.814
282.56
298.006
312.344
324.979
335.11
342.62
347.752
350.732
351.836
351.336
349.425
346.252
341.889
336.387
329.794
322.149
313.507
303.953
293.599
282.586
271.143
259.637
248.474
237.975
228.379
219.878
212.633
206.775
202.394
199.554
198.325
198.812
201.313
206.043
214.414
224.391
214.921
198.209
178.951
158.03
136.806
114.136
90.7494
67.2149
43.4006
19.6548
-3.84165
-27.0398
-49.6986
-71.6203
-92.5467
-112.141
-130.009
-145.741
-158.881
-169.056
-175.816
-178.882
-178.155
-173.695
-165.685
-154.331
-139.94
-122.881
-103.42
-81.786
-58.2265
-32.9389
-6.06311
22.3576
52.2826
84.1024
117.432
154.416
187.615
230.281
244.879
260.417
276.261
290.901
304.541
316.615
326.351
333.638
338.714
341.789
343.126
342.985
341.549
338.958
335.271
330.528
324.751
317.961
310.188
301.492
291.96
281.711
270.952
260.032
249.34
239.19
229.827
221.458
214.257
208.37
203.904
200.937
199.551
199.855
202.131
206.568
214.374
223.524
212.295
196.54
178.389
158.702
138.783
117.529
95.638
73.6515
51.4251
29.2815
7.3784
-14.2617
-35.4366
-55.9835
-75.691
-94.2654
-111.356
-126.592
-139.551
-149.866
-157.124
-161
-161.363
-158.221
-151.687
-141.888
-129.043
-113.459
-95.3863
-75.0428
-52.6623
-28.4432
-2.53436
25.0046
54.1123
85.1078
117.58
153.296
185.348
226.796
240.575
255.276
270.293
284.196
297.187
308.733
318.093
325.153
330.152
333.284
334.797
334.947
333.91
331.813
328.715
324.642
319.605
313.604
306.65
298.779
290.052
280.566
270.502
260.189
249.997
240.232
231.14
222.938
215.813
209.924
205.391
202.311
200.775
200.896
202.941
207.072
214.299
222.646
209.718
194.839
177.704
159.144
140.42
120.458
99.9328
79.3598
58.5885
37.9165
17.4839
-2.71004
-22.4914
-41.7324
-60.2542
-77.8064
-94.083
-108.746
-121.412
-131.724
-139.311
-143.816
-145.079
-143.07
-137.846
-129.467
-118.072
-103.905
-87.1896
-68.1251
-46.9289
-23.7956
1.12087
27.7458
55.9987
86.1289
117.702
152.124
183.022
223.431
236.46
250.393
264.648
277.868
290.256
301.305
310.303
317.139
322.043
325.201
326.848
327.233
326.525
324.85
322.26
318.777
314.403
309.125
302.934
295.847
287.903
279.17
269.804
260.111
250.444
241.095
232.308
224.308
217.29
211.424
206.847
203.669
201.991
201.931
203.739
207.552
214.195
221.761
207.212
193.141
176.941
159.418
141.787
123.013
103.74
84.4628
65.025
45.7076
26.6301
7.7787
-10.6989
-28.7016
-46.084
-62.6289
-78.0731
-92.1143
-104.402
-114.597
-122.366
-127.338
-129.332
-128.284
-124.209
-117.114
-107.068
-94.2526
-78.854
-61.0495
-41.0372
-19.0025
4.8989
30.5796
57.9415
87.166
117.799
150.909
180.65
220.199
232.539
245.761
259.312
271.898
283.722
294.301
302.953
309.565
314.363
317.522
319.267
319.841
319.408
318.09
315.939
312.974
309.19
304.567
299.083
292.734
285.538
277.54
268.869
259.804
250.681
241.774
233.324
225.557
218.676
212.862
208.263
205.002
203.193
202.954
204.521
208.005
214.062
220.874
204.795
191.469
176.135
159.57
142.946
125.263
107.145
89.0571
70.8448
52.7748
34.9517
17.3445
0.0852613
-16.7491
-33.0435
-48.6104
-63.22
-76.6078
-88.4551
-98.4417
-106.268
-111.57
-114.141
-113.896
-110.818
-104.874
-96.0726
-84.5348
-70.4056
-53.8357
-35.0003
-14.0722
8.795
33.5037
59.9398
88.2205
117.876
149.662
178.243
217.11
228.813
241.376
254.271
266.266
277.561
287.695
296.015
302.406
307.09
310.232
312.046
312.77
312.566
311.55
309.777
307.264
304.004
299.97
295.133
289.472
282.987
275.699
267.712
259.278
250.709
242.266
234.18
226.677
219.963
214.228
209.63
206.304
204.374
203.96
205.283
208.431
213.905
219.989
202.477
189.842
175.31
159.635
143.941
127.267
110.212
93.2224
76.1409
59.2204
42.5543
26.1029
9.97711
-5.76071
-21.019
-35.6421
-49.4282
-62.1437
-73.5045
-83.2149
-90.996
-96.506
-99.5197
-99.9352
-97.7137
-92.7909
-85.1274
-74.7875
-61.8729
-46.5049
-28.8336
-9.01484
12.8031
36.5148
61.9927
89.2939
117.935
148.392
175.817
214.168
225.278
237.228
249.511
260.952
271.75
281.464
289.465
295.64
300.202
303.313
305.174
306.017
306.001
305.241
303.792
301.672
298.875
295.371
291.121
286.096
280.28
273.673
266.352
258.542
250.534
242.571
234.873
227.66
221.142
215.512
210.938
207.565
205.527
204.943
206.021
208.828
213.726
219.111
200.263
188.274
174.488
159.639
144.809
129.07
112.999
97.0228
80.9894
65.1313
49.5346
34.1533
19.0852
4.37417
-9.907
-23.6225
-36.6042
-48.6445
-59.4886
-68.8685
-76.5217
-82.1378
-85.4764
-86.4229
-84.9274
-80.9032
-74.271
-65.0456
-53.2853
-39.0808
-22.5541
-3.84189
16.9159
39.609
64.0992
90.388
117.983
147.111
173.384
211.373
221.931
233.307
245.018
255.941
266.269
275.584
283.278
289.242
293.68
296.748
298.637
299.573
299.713
299.169
297.999
296.221
293.831
290.798
287.08
282.639
277.446
271.484
264.806
257.61
250.164
242.691
235.399
228.5
222.204
216.705
212.178
208.778
206.644
205.898
206.732
209.195
213.528
218.245
198.159
186.771
173.684
159.606
145.576
130.708
115.551
100.514
85.4478
70.5762
55.9709
41.5827
27.4984
13.749
0.389263
-12.4636
-24.6647
-36.0352
-46.3467
-55.3558
-62.8162
-68.4517
-72.0129
-73.3785
-72.4891
-69.2462
-63.5408
-55.3441
-44.6737
-31.5877
-16.1804
1.43301
21.1247
42.782
66.2579
91.5054
118.025
145.83
170.96
208.725
218.769
229.606
240.779
251.214
261.099
270.035
277.435
283.19
287.504
290.52
292.422
293.431
293.7
293.339
292.406
290.926
288.893
286.277
283.038
279.13
274.513
269.159
263.096
256.498
249.607
242.63
235.758
229.193
223.142
217.798
213.341
209.932
207.717
206.817
207.411
209.53
213.314
217.394
196.167
185.34
172.907
159.551
146.269
132.209
117.903
103.74
89.5721
75.612
61.9273
48.4621
35.2935
22.4432
9.95193
-2.08251
-13.5348
-24.2461
-34.0175
-42.6284
-49.8466
-55.43
-59.1268
-60.8115
-60.4205
-57.8513
-52.9724
-45.7179
-36.0698
-24.0523
-9.73326
6.79596
25.4195
46.0275
68.4674
92.648
118.069
144.56
168.558
206.222
215.782
226.114
236.783
246.757
256.22
264.796
271.913
277.468
281.656
284.614
286.517
287.581
287.956
287.749
287.021
285.798
284.077
281.832
279.02
275.594
271.509
266.721
261.242
255.221
248.876
242.394
235.95
229.736
223.95
218.784
214.419
211.021
208.739
207.696
208.054
209.833
213.086
216.564
194.284
183.986
172.166
159.486
146.904
133.6
120.086
106.736
93.405
80.2923
67.4614
54.8551
42.5394
30.527
18.851
7.59224
-3.14289
-13.2146
-22.4464
-30.6404
-37.5811
-43.0539
-46.8123
-48.7297
-48.7421
-46.7465
-42.5979
-36.2
-27.5033
-16.5014
-3.23338
12.2292
29.7895
49.3403
70.7253
93.8193
118.121
143.314
166.194
203.859
212.966
222.823
233.014
242.553
251.616
259.849
266.695
272.056
276.118
279.013
280.908
282.013
282.474
282.398
281.846
280.846
279.398
277.479
275.048
272.058
268.457
264.194
259.266
253.797
247.982
241.989
235.978
230.127
224.623
219.656
215.404
212.035
209.702
208.527
208.657
210.103
212.848
215.757
192.509
182.71
171.467
159.421
147.494
134.899
122.127
109.534
96.981
84.6587
72.6214
60.8133
49.2932
38.0643
27.1519
16.6251
6.57426
-2.88025
-11.5799
-19.3478
-25.9843
-31.302
-35.0605
-37.1372
-37.4691
-35.9559
-32.4462
-26.8212
-19.0041
-8.96099
3.29488
17.7168
34.2227
52.712
73.0309
95.0211
118.19
142.104
163.883
201.634
210.314
219.721
229.461
238.588
247.272
255.176
261.765
266.936
270.874
273.703
275.583
276.718
277.25
277.283
276.881
276.074
274.864
273.232
271.14
268.541
265.379
261.601
257.187
252.242
246.939
241.427
235.848
230.366
225.159
220.407
216.288
212.967
210.599
209.304
209.216
210.338
212.6
214.976
190.842
181.511
170.812
159.365
148.052
136.121
124.043
112.159
100.332
88.7459
77.4488
66.384
55.6033
45.1072
34.9107
25.0731
15.6717
6.81137
-1.36772
-8.70806
-15.0231
-20.149
-23.8592
-26.0315
-26.6089
-25.4981
-22.5443
-17.6116
-10.6022
-1.4587
9.82984
23.2389
38.7058
56.1366
75.3795
96.2569
118.284
140.939
161.638
199.54
207.818
216.8
226.113
234.849
243.173
250.764
257.104
262.093
265.909
268.67
270.529
271.684
272.273
272.399
272.126
271.486
270.484
269.104
267.311
265.061
262.298
258.962
255.028
250.577
245.763
240.716
235.565
230.456
225.555
221.034
217.064
213.809
211.422
210.021
209.727
210.538
212.344
214.224
189.279
180.39
170.204
159.322
148.587
137.279
125.852
114.631
103.484
92.5841
81.9769
71.6051
61.5153
51.7017
42.1764
32.9881
24.2014
15.909
8.23547
1.32073
-4.6649
-9.57118
-13.1944
-15.4108
-16.17
-15.389
-12.9133
-8.59749
-2.32562
5.97812
16.3475
28.7782
43.2244
59.6044
77.7702
97.5289
118.409
139.832
159.472
197.573
205.471
214.051
222.96
231.323
239.305
246.596
252.698
257.511
261.207
263.9
265.734
266.901
267.537
267.741
267.578
267.082
266.261
265.102
263.574
261.634
259.23
256.298
252.805
248.817
244.467
239.87
235.136
230.4
225.811
221.533
217.727
214.555
212.165
210.672
210.187
210.702
212.081
213.502
187.816
179.345
169.645
159.295
149.105
138.384
127.568
116.968
106.458
96.2003
86.2373
76.5116
67.0662
57.8915
48.9936
40.4143
32.2091
24.458
17.2716
10.7764
5.12457
0.45542
-3.04843
-5.26783
-6.15562
-5.63989
-3.57321
0.19788
5.79948
13.324
22.8241
34.3138
47.7652
63.1062
80.1987
98.8399
118.577
138.793
157.397
195.729
203.266
211.466
219.989
227.999
235.654
242.66
248.532
253.176
256.756
259.379
261.185
262.359
263.032
263.301
263.233
262.861
262.197
261.232
259.937
258.274
256.19
253.625
250.537
246.979
243.067
238.899
234.571
230.203
225.929
221.901
218.274
215.199
212.821
211.253
210.591
210.829
211.812
212.812
186.45
178.375
169.135
159.288
149.611
139.444
129.204
119.187
109.273
99.6169
90.2561
81.134
72.2898
63.712
55.4015
47.394
39.7367
32.5004
25.7813
19.6941
14.3757
9.95545
6.59374
4.40743
3.43582
3.74026
5.46111
8.75313
13.7497
20.5552
29.2373
39.8269
52.3121
66.6335
82.6613
100.192
118.792
137.833
155.427
194
201.197
209.034
217.192
224.867
232.209
238.942
244.595
249.075
252.541
255.096
256.871
258.046
258.749
259.073
259.086
258.822
258.295
257.498
256.409
254.99
253.193
250.958
248.241
245.081
241.578
237.817
233.88
229.87
225.911
222.14
218.7
215.736
213.386
211.758
210.938
210.917
211.536
212.154
185.175
177.477
168.672
159.302
150.111
140.465
130.767
121.3
111.945
102.851
94.0544
85.4972
77.2145
69.1944
61.4341
53.963
46.8213
40.072
33.8005
28.1081
23.1191
18.9537
15.7515
13.6246
12.6067
12.7476
14.1777
17.0507
21.5035
27.6484
35.5648
45.2982
56.8505
70.1751
85.1544
101.587
119.064
136.96
153.57
192.383
199.256
206.749
214.559
221.914
228.959
235.43
240.873
245.196
248.552
251.038
252.78
253.952
254.678
255.05
255.131
254.961
254.552
253.903
252.993
251.791
250.25
248.311
245.931
243.137
240.015
236.636
233.072
229.411
225.761
222.248
219.004
216.163
213.854
212.182
211.222
210.966
211.254
211.526
183.99
176.648
168.256
159.338
150.605
141.453
132.266
123.315
114.486
105.92
97.6509
89.6226
81.8659
74.3671
67.121
60.1529
53.4969
47.2076
41.3615
36.0493
31.3831
27.4732
24.4428
22.3965
21.362
21.3793
22.5677
25.076
29.0425
34.583
41.7861
50.7082
61.3652
73.7217
87.6731
103.026
119.398
136.182
151.836
190.872
197.437
204.603
212.081
219.13
225.892
232.113
237.354
241.525
244.775
247.193
248.902
250.069
250.812
251.222
251.363
251.272
250.967
250.447
249.695
248.682
247.368
245.696
243.62
241.161
238.391
235.371
232.158
228.832
225.485
222.229
219.185
216.477
214.223
212.523
211.442
210.974
210.965
210.928
182.89
175.885
167.886
159.397
151.098
142.412
133.707
125.242
116.909
108.84
101.064
93.5301
86.2653
79.254
72.4894
65.9925
59.7929
53.9376
48.4951
43.5471
39.1941
35.5381
32.6861
30.7357
29.7088
29.6357
30.6247
32.8178
36.3503
41.3404
47.8817
56.0399
65.8411
77.2626
90.2124
104.509
119.799
135.507
150.234
189.461
195.733
202.588
209.75
216.508
222.999
228.98
234.028
238.053
241.199
243.552
245.227
246.384
247.141
247.583
247.775
247.754
247.537
247.129
246.515
245.67
244.556
243.121
241.321
239.166
236.719
234.032
231.151
228.142
225.089
222.087
219.245
216.677
214.491
212.778
211.596
210.941
210.668
210.358
181.869
175.186
167.56
159.477
151.59
143.344
135.097
127.09
119.222
111.619
104.309
97.2378
90.4329
83.8778
77.5636
71.5078
65.7359
60.2892
55.2293
50.6283
46.5774
43.1705
40.5003
38.6568
37.6561
37.5196
38.3454
40.2666
43.4138
47.9041
53.8344
61.2759
70.2644
80.7873
92.7671
106.037
120.274
134.94
148.77
188.145
194.139
200.697
207.558
214.038
220.27
226.021
230.883
234.769
237.814
240.103
241.743
242.889
243.656
244.125
244.359
244.397
244.259
243.948
243.454
242.756
241.819
240.595
239.041
237.163
235.012
232.631
230.06
227.352
224.579
221.826
219.186
216.763
214.655
212.944
211.682
210.864
210.36
209.813
180.924
174.547
167.276
159.58
152.082
144.254
136.437
128.864
121.435
114.27
107.395
100.759
94.3851
88.2566
82.3641
76.7216
71.3509
66.2885
61.5891
57.3179
53.5569
50.3918
47.9029
46.1733
45.2133
45.0361
45.729
47.4161
50.2223
54.2607
59.6285
66.401
74.621
84.2855
95.3311
107.607
120.823
134.486
147.448
186.919
192.648
198.924
205.496
211.71
217.695
223.226
227.911
231.662
234.611
236.836
238.441
239.575
240.348
240.838
241.109
241.199
241.127
240.901
240.512
239.942
239.162
238.125
236.791
235.162
233.28
231.181
228.896
226.471
223.965
221.451
219.012
216.737
214.715
213.021
211.698
210.743
210.04
209.29
180.051
173.966
167.032
159.703
152.575
145.143
137.734
130.57
123.554
116.802
110.336
104.108
98.1377
92.4084
86.9097
81.654
76.6596
71.9579
67.5982
63.639
60.1543
57.2227
54.9126
53.3006
52.3915
52.1912
52.7768
54.2633
56.7677
60.3986
65.2506
71.4011
78.8982
87.7475
97.8983
109.219
121.45
134.148
146.273
185.778
191.255
197.261
203.559
209.519
215.266
220.587
225.101
228.722
231.578
233.742
235.312
236.432
237.208
237.717
238.019
238.152
238.138
237.985
237.687
237.23
236.585
235.715
234.578
233.172
231.534
229.692
227.671
225.509
223.255
220.97
218.726
216.602
214.674
213.009
211.644
210.577
209.707
208.785
179.246
173.438
166.826
159.846
153.069
146.012
138.989
132.211
125.585
119.222
113.141
107.294
101.703
96.348
91.2182
86.3238
81.6814
77.318
73.2776
69.6127
66.3903
63.6824
61.547
60.0532
59.2016
58.9923
59.4924
60.8071
63.045
66.3086
70.6893
76.2642
83.0846
91.1633
100.463
110.869
122.156
133.928
145.246
184.718
189.954
195.703
201.738
207.455
212.976
218.095
222.445
225.942
228.707
230.812
232.347
233.452
234.229
234.752
235.08
235.251
235.287
235.196
234.978
234.618
234.094
233.369
232.406
231.2
229.781
228.173
226.394
224.475
222.456
220.39
218.336
216.361
214.532
212.908
211.52
210.366
209.358
208.294
178.505
172.961
166.655
160.007
153.563
146.862
140.205
133.792
127.535
121.537
115.817
110.33
105.093
100.088
95.3036
90.7478
86.4341
82.3875
78.6468
75.2592
72.2845
69.7891
67.8224
66.4461
65.6568
65.4485
65.8806
67.0481
69.0511
71.9845
75.9357
80.9797
87.1695
94.5243
103.017
112.553
122.938
133.826
144.368
183.733
188.74
194.243
200.027
205.512
210.816
215.742
219.934
223.312
225.99
228.036
229.537
230.627
231.402
231.936
232.286
232.489
232.567
232.531
232.381
232.106
231.687
231.09
230.281
229.254
228.032
226.634
225.076
223.38
221.58
219.719
217.847
216.019
214.294
212.721
211.326
210.107
208.99
207.814
177.824
172.532
166.517
160.185
154.058
147.695
141.383
135.315
129.406
123.753
118.373
113.223
108.319
103.641
99.1794
94.9402
90.9342
87.1836
83.7235
80.5961
77.8551
75.5608
73.7557
72.4938
71.7686
71.5695
71.9479
72.9891
74.7847
77.4219
80.9828
85.5387
91.1438
97.8215
105.555
114.268
123.796
133.841
143.639
182.82
187.607
192.876
198.421
203.684
208.78
213.52
217.561
220.824
223.418
225.408
226.874
227.947
228.72
229.262
229.629
229.859
229.974
229.985
229.894
229.693
229.364
228.88
228.207
227.338
226.292
225.083
223.724
222.233
220.635
218.965
217.266
215.583
213.964
212.45
211.064
209.802
208.602
207.34
177.199
172.147
166.409
160.379
154.552
148.509
142.526
136.784
131.203
125.875
120.816
115.982
111.389
107.019
102.858
98.9144
95.1959
91.7221
88.5242
85.6404
83.119
81.0137
79.3625
78.2109
77.55
77.3659
77.7019
78.6347
80.247
82.6186
85.8253
89.9348
94.9997
101.047
108.07
116.008
124.725
133.97
143.054
181.974
186.553
191.597
196.912
201.963
206.86
211.422
215.319
218.47
220.984
222.918
224.351
225.406
226.175
226.722
227.104
227.357
227.502
227.554
227.513
227.375
227.125
226.739
226.186
225.457
224.567
223.528
222.348
221.042
219.63
218.139
216.602
215.058
213.546
212.099
210.735
209.451
208.192
206.868
176.626
171.803
166.331
160.586
155.045
149.306
143.634
138.201
132.93
127.908
123.149
118.613
114.312
110.229
106.351
102.683
99.2328
96.0172
93.064
90.4078
88.0918
86.1641
84.6579
83.6118
83.0141
82.8482
83.151
83.9907
85.441
87.5747
90.4608
94.1625
98.7307
104.195
110.556
117.767
125.722
134.208
142.612
181.191
185.57
190.401
195.496
200.344
205.05
209.442
213.199
216.244
218.679
220.56
221.959
222.997
223.759
224.311
224.704
224.975
225.147
225.232
225.235
225.151
224.97
224.668
224.22
223.615
222.863
221.975
220.956
219.817
218.573
217.246
215.863
214.453
213.047
211.672
210.343
209.053
207.759
206.394
176.104
171.498
166.277
160.806
155.536
150.085
144.708
139.567
134.588
129.855
125.38
121.123
117.096
113.282
109.667
106.257
103.057
100.082
97.357
94.9129
92.7885
91.0269
89.6567
88.7102
88.1737
88.0282
88.3047
89.064
90.3712
92.2917
94.8881
98.2186
102.332
107.259
113.005
119.54
126.78
134.551
142.307
180.466
184.656
189.281
194.168
198.821
203.344
207.572
211.196
214.139
216.498
218.326
219.693
220.712
221.467
222.02
222.422
222.709
222.902
223.016
223.055
223.019
222.896
222.668
222.311
221.814
221.185
220.43
219.554
218.566
217.475
216.299
215.057
213.774
212.473
211.175
209.89
208.611
207.3
205.915
175.627
171.23
166.249
161.036
156.024
150.848
145.75
140.885
136.182
131.721
127.512
123.517
119.747
116.184
112.817
109.647
106.68
103.929
101.416
99.1692
97.2232
95.616
94.3731
93.5198
93.0416
92.9177
93.1733
93.8624
95.043
96.7726
99.1076
102.101
105.799
110.232
115.413
121.32
127.893
134.993
142.133
179.797
183.805
188.236
192.921
197.388
201.737
205.808
209.303
212.147
214.433
216.21
217.544
218.544
219.292
219.844
220.253
220.552
220.763
220.901
220.971
220.974
220.901
220.737
220.46
220.057
219.535
218.899
218.15
217.296
216.343
215.304
214.193
213.03
211.831
210.612
209.379
208.125
206.816
205.428
175.193
170.993
166.242
161.275
156.508
151.592
146.758
142.155
137.713
133.509
129.55
125.802
122.272
118.944
115.807
112.861
110.111
107.568
105.253
103.189
101.409
99.9453
98.8202
98.054
97.6306
97.5282
97.7674
98.3952
99.463
101.022
103.121
105.81
109.13
113.112
117.772
123.101
129.054
135.525
142.082
179.18
183.015
187.259
191.752
196.041
200.222
204.143
207.514
210.263
212.477
214.205
215.507
216.488
217.226
217.777
218.19
218.499
218.724
218.882
218.979
219.015
218.985
218.875
218.667
218.347
217.918
217.385
216.75
216.014
215.185
214.27
213.281
212.229
211.129
209.991
208.816
207.598
206.306
204.93
174.799
170.788
166.254
161.523
156.988
152.318
147.735
143.379
139.184
135.221
131.498
127.98
124.676
121.568
118.646
115.909
113.36
111.011
108.879
106.985
105.358
104.027
103.011
102.326
101.954
101.872
102.097
102.671
103.639
105.045
106.932
109.345
112.322
115.894
120.079
124.875
130.255
136.141
142.148
178.611
182.28
186.346
190.656
194.775
198.795
202.571
205.824
208.481
210.627
212.306
213.576
214.538
215.265
215.813
216.229
216.544
216.781
216.955
217.073
217.138
217.144
217.081
216.932
216.683
216.336
215.894
215.357
214.728
214.008
213.205
212.326
211.38
210.374
209.316
208.205
207.031
205.769
204.42
174.441
170.61
166.283
161.776
157.462
153.026
148.68
144.558
140.595
136.86
133.359
130.058
126.965
124.063
121.34
118.798
116.437
114.268
112.305
110.569
109.083
107.874
106.959
106.347
106.022
105.96
106.175
106.701
107.579
108.848
110.545
112.71
115.377
118.576
122.327
126.636
131.489
136.83
142.321
178.086
181.598
185.494
189.629
193.584
197.451
201.088
204.226
206.795
208.875
210.507
211.745
212.687
213.404
213.947
214.363
214.684
214.93
215.117
215.253
215.34
215.377
215.354
215.255
215.067
214.791
214.429
213.978
213.442
212.821
212.118
211.339
210.49
209.574
208.595
207.55
206.429
205.207
203.895
174.118
170.458
166.329
162.033
157.929
153.715
149.594
145.692
141.949
138.428
135.136
132.038
129.142
126.433
123.897
121.535
119.349
117.346
115.541
113.949
112.594
111.498
110.675
110.132
109.85
109.806
110.01