/*--------------------------------*- C++ -*----------------------------------*\
| =========                 |                                                 |
| \\      /  F ield         | OpenFOAM: The Open Source CFD Toolbox           |
|  \\    /   O peration     | Version:  3.0.0                                 |
|   \\  /    A nd           | Web:      www.OpenFOAM.org                      |
|    \\/     M anipulation  |                                                 |
\*---------------------------------------------------------------------------*/
FoamFile
{
    version     2.0;
    format      ascii;
    class       surfaceScalarField;
    location    "150";
    object      phi;
}
// * * * * * * * * * * * * * * * * * * * * * * * * * * * * * * * * * * * * * //

dimensions      [0 3 -1 0 0 0 0];

internalField   nonuniform List<scalar> 
21254
(
-0.264045
0.283024
-0.0189794
0.304529
-0.0215053
0.32248
-0.0179517
0.338225
-0.0157452
0.352982
-0.0147572
0.364319
-0.011337
0.372878
-0.00855972
0.379531
-0.00665396
0.383332
-0.00380053
0.385426
-0.00209417
0.385958
-0.000531281
0.384592
0.0013658
0.381885
0.0027073
0.378035
0.00385027
0.373003
0.00503243
0.367123
0.00587969
0.360191
0.00693234
0.352309
0.00788199
0.343303
0.00900555
0.333368
0.00993561
0.322132
0.0112361
0.310155
0.011977
0.297688
0.0124671
0.286034
0.0116535
0.2764
0.00963371
0.268086
0.00831397
0.259943
0.00814313
0.251649
0.00829466
0.24287
0.00877913
0.233519
0.00935045
0.223567
0.00995331
0.21299
0.0105765
0.201707
0.0112836
0.189451
0.0122569
0.175647
0.0138043
0.15918
0.0164684
0.137667
0.021516
0.106226
0.0314447
0.0904756
0.0158045
-0.241139
-0.022905
-0.217558
-0.0235794
-0.188118
-0.0294398
-0.155519
-0.032598
-0.120934
-0.0345857
-0.0848762
-0.0360575
-0.0488794
-0.0359967
-0.0149194
-0.0339597
0.0158647
-0.0307837
0.0432948
-0.0274299
0.0669347
-0.0236397
0.0871318
-0.0201969
0.104299
-0.0171675
0.118753
-0.0144535
0.131158
-0.0124051
0.141868
-0.0107098
0.151371
-0.00950265
0.159921
-0.00855041
0.167839
-0.0079171
0.17526
-0.00742164
0.182369
-0.00710891
0.189171
-0.00680204
0.195609
-0.00643807
0.201081
-0.00547179
0.205401
-0.00432089
0.208842
-0.00344043
0.211401
-0.00255957
0.213191
-0.00178963
0.214244
-0.00105312
0.214577
-0.000333433
0.214068
0.000508474
0.212747
0.00132117
0.210731
0.0020158
0.208114
0.00261618
0.204799
0.00331461
0.200408
0.00439082
0.193867
0.00654059
0.180103
0.0137611
0.159918
0.020186
-0.241597
0.263167
-0.0405471
0.285147
-0.0434855
0.307966
-0.0407703
0.329139
-0.0369184
0.349708
-0.0353254
0.368613
-0.0302424
0.385492
-0.0254387
0.400621
-0.0217838
0.413593
-0.0167721
0.424472
-0.0129731
0.433458
-0.00951732
0.440812
-0.00598803
0.446605
-0.00308471
0.45073
-0.000274982
0.453054
0.00270813
0.453287
0.00564719
0.451409
0.00881018
0.447596
0.0116955
0.441386
0.0152149
0.433138
0.0181841
0.422498
0.0218766
0.409823
0.0246515
0.395154
0.0271367
0.379176
0.0276305
0.363195
0.0256148
0.347649
0.0238598
0.332597
0.0231957
0.318214
0.0226769
0.304288
0.0227059
0.290644
0.0229945
0.277051
0.0235472
0.263328
0.0242991
0.24921
0.0254024
0.234453
0.0270145
0.218613
0.0296455
0.200596
0.0344863
0.179005
0.0431093
0.144846
0.0656071
0.103335
0.0573496
-0.219473
-0.0450273
-0.195774
-0.0472777
-0.167979
-0.057235
-0.138463
-0.062113
-0.106981
-0.0660681
-0.0739722
-0.069066
-0.0409789
-0.0689898
-0.00938865
-0.0655497
0.0200442
-0.0602163
0.0465424
-0.0539278
0.0697792
-0.0468763
0.0900237
-0.0404413
0.107713
-0.034857
0.123113
-0.0298534
0.13665
-0.0259421
0.148623
-0.0226822
0.159325
-0.0202044
0.169064
-0.0182895
0.178098
-0.0169511
0.18655
-0.0158734
0.194584
-0.0151426
0.202276
-0.0144946
0.209564
-0.0137265
0.216006
-0.0119142
0.221333
-0.00964793
0.225742
-0.00784994
0.22923
-0.00604732
0.23185
-0.00440917
0.233629
-0.00283229
0.234655
-0.00135985
0.23507
9.32565e-05
0.234919
0.00147219
0.234078
0.00285683
0.232483
0.00421
0.23007
0.00572798
0.226593
0.00786742
0.222098
0.0110345
0.212108
0.0237478
0.193143
0.039153
-0.234292
0.255881
-0.0621348
0.277531
-0.065135
0.300827
-0.0640656
0.322032
-0.0581228
0.342062
-0.0553553
0.361135
-0.0493161
0.377959
-0.042262
0.392958
-0.0367829
0.405685
-0.0294993
0.41647
-0.0237575
0.4253
-0.0183476
0.432391
-0.0130785
0.437624
-0.00831767
0.441515
-0.00416599
0.443917
0.000305948
0.445508
0.00405671
0.445904
0.00841413
0.445408
0.012192
0.443638
0.0169843
0.440502
0.0213211
0.435852
0.0265258
0.429494
0.0310106
0.42139
0.0352407
0.411657
0.0373626
0.400863
0.0364096
0.389109
0.035614
0.376322
0.0359822
0.362689
0.0363099
0.348413
0.0369824
0.333599
0.0378085
0.318385
0.0387619
0.302781
0.0399028
0.286702
0.0414813
0.269933
0.0437842
0.25203
0.0475485
0.231909
0.0546079
0.208303
0.0667162
0.173353
0.100559
0.124364
0.106361
-0.212505
-0.0668133
-0.188481
-0.0713015
-0.159643
-0.0860728
-0.129519
-0.0922368
-0.0979224
-0.0976644
-0.0649808
-0.102007
-0.0323311
-0.101639
-0.00169793
-0.0961826
0.0266706
-0.0885846
0.0524682
-0.0797252
0.075428
-0.069836
0.0956987
-0.0607118
0.113578
-0.0527361
0.129333
-0.0456085
0.143277
-0.0398856
0.15573
-0.0351356
0.166956
-0.0314303
0.177219
-0.0285524
0.186732
-0.0264635
0.195662
-0.0248036
0.204197
-0.0236775
0.21236
-0.0226574
0.22007
-0.0214371
0.227038
-0.018882
0.232983
-0.0155929
0.238002
-0.0128695
0.242154
-0.0101993
0.245472
-0.00772699
0.248022
-0.00538211
0.249794
-0.00313235
0.250853
-0.000965944
0.251203
0.00112207
0.250881
0.0031789
0.249828
0.00526203
0.247958
0.00759799
0.244907
0.0109177
0.240303
0.0156383
0.230584
0.033465
0.212226
0.0575115
-0.225911
0.248612
-0.0848349
0.271289
-0.0878123
0.296152
-0.0889277
0.31878
-0.0807507
0.34061
-0.0771851
0.361427
-0.0701325
0.380455
-0.0612902
0.397474
-0.0538018
0.412725
-0.0447497
0.425992
-0.037025
0.437388
-0.0297428
0.44693
-0.0226209
0.454669
-0.016056
0.460647
-0.0101447
0.465139
-0.00418532
0.467739
0.00145637
0.468645
0.00750866
0.467637
0.0131997
0.465086
0.0195352
0.460887
0.0255201
0.455198
0.0322151
0.448256
0.0379524
0.440164
0.0433331
0.431396
0.0461308
0.422337
0.0454682
0.413004
0.0449471
0.402998
0.0459874
0.392166
0.0471423
0.380332
0.0488161
0.367338
0.050803
0.353211
0.0528896
0.337973
0.0551414
0.32164
0.0578144
0.304078
0.0613474
0.284991
0.0666362
0.263351
0.0762492
0.237829
0.0922399
0.201446
0.136945
0.150566
0.157262
-0.203485
-0.0892393
-0.179354
-0.0954322
-0.150022
-0.115404
-0.119814
-0.122445
-0.0882119
-0.129266
-0.0552353
-0.134984
-0.0227676
-0.134107
0.00741467
-0.126365
0.035131
-0.116301
0.0604168
-0.105011
0.0829346
-0.0923536
0.102911
-0.0806882
0.120718
-0.0705425
0.136577
-0.0614677
0.150803
-0.054111
0.163623
-0.0479557
0.175308
-0.0431158
0.186041
-0.0392846
0.196048
-0.0364703
0.205472
-0.0342281
0.214428
-0.0326334
0.222986
-0.0312156
0.231095
-0.0295461
0.238448
-0.026235
0.244805
-0.0219505
0.250225
-0.0182889
0.25475
-0.0147249
0.258431
-0.0114083
0.261301
-0.00825243
0.263417
-0.0052481
0.264808
-0.00235758
0.265504
0.000426196
0.265514
0.00316895
0.264828
0.0059476
0.263342
0.00908361
0.260706
0.0135526
0.256387
0.0199565
0.247218
0.0426323
0.229073
0.0756577
-0.221415
0.244912
-0.108331
0.268458
-0.111359
0.294744
-0.115213
0.318135
-0.104142
0.341012
-0.100061
0.362961
-0.0920816
0.382919
-0.0812482
0.40096
-0.0718434
0.417414
-0.0612033
0.431607
-0.0512178
0.443942
-0.0420772
0.454361
-0.0330398
0.463165
-0.0248607
0.470013
-0.0169921
0.475064
-0.00923662
0.478378
-0.00185713
0.480121
0.00576517
0.480317
0.0130041
0.478708
0.0211439
0.475572
0.0286563
0.470768
0.0370197
0.464447
0.0442733
0.456861
0.0509189
0.448416
0.0545764
0.439674
0.0542098
0.430821
0.0538007
0.421686
0.0551219
0.412175
0.0566536
0.402098
0.0588926
0.391244
0.0616576
0.379332
0.0648021
0.366119
0.0683539
0.351393
0.0725411
0.334874
0.0778661
0.316156
0.0853543
0.294317
0.0980889
0.267864
0.118694
0.230438
0.174372
0.178953
0.208761
-0.197933
-0.112721
-0.173088
-0.120277
-0.142496
-0.145996
-0.111465
-0.153476
-0.0791692
-0.161562
-0.0456139
-0.168539
-0.0127479
-0.166973
0.0174445
-0.156557
0.0448873
-0.143743
0.0698311
-0.129954
0.0919705
-0.114493
0.111619
-0.100336
0.129261
-0.0881842
0.145094
-0.0773014
0.159425
-0.0684416
0.172511
-0.0610413
0.184522
-0.0551271
0.195636
-0.0503987
0.206042
-0.0468757
0.215876
-0.0440625
0.225235
-0.0419927
0.234162
-0.0401422
0.242627
-0.0380112
0.250364
-0.0339724
0.257117
-0.0287034
0.262913
-0.0240851
0.267785
-0.0195969
0.271786
-0.0154092
0.274945
-0.0114111
0.277294
-0.00759736
0.278877
-0.00394139
0.27975
-0.000446416
0.279916
0.00300284
0.279342
0.00652078
0.277992
0.0104341
0.275502
0.0160422
0.271316
0.0241422
0.262686
0.0512606
0.245123
0.0932208
-0.217747
0.242268
-0.132852
0.267187
-0.136277
0.294871
-0.142897
0.319516
-0.128786
0.343445
-0.123991
0.36683
-0.115466
0.387806
-0.102225
0.407207
-0.091244
0.424709
-0.0787051
0.440213
-0.0667222
0.453944
-0.0558079
0.465709
-0.0448044
0.475749
-0.0349007
0.484041
-0.0252836
0.490433
-0.0156295
0.495261
-0.00668506
0.498122
0.00290466
0.499111
0.0120147
0.49836
0.0218951
0.495702
0.031315
0.491201
0.0415208
0.485096
0.0503782
0.477551
0.0584641
0.468998
0.063129
0.459955
0.0632522
0.450685
0.0630712
0.44114
0.064667
0.431326
0.0664675
0.421225
0.0689932
0.410735
0.072148
0.399738
0.0757992
0.387937
0.0801559
0.374984
0.085494
0.360384
0.0924672
0.343462
0.102277
0.322972
0.11858
0.297219
0.144449
0.259956
0.211637
0.208563
0.260168
-0.193296
-0.137173
-0.167643
-0.14593
-0.135752
-0.177886
-0.103586
-0.185642
-0.0703094
-0.194838
-0.0358666
-0.202982
-0.0023092
-0.20053
0.0281933
-0.187059
0.0556627
-0.171212
0.0804679
-0.15476
0.102352
-0.136377
0.121705
-0.119689
0.13912
-0.105599
0.154841
-0.0930225
0.169173
-0.0827735
0.182371
-0.0742386
0.194589
-0.0673451
0.206008
-0.0618174
0.216753
-0.057621
0.226948
-0.0542575
0.236683
-0.0517275
0.245982
-0.0494413
0.254797
-0.0468256
0.262944
-0.0421203
0.270102
-0.0358615
0.276257
-0.0302406
0.281493
-0.0248324
0.285805
-0.0197213
0.289242
-0.0148481
0.291834
-0.0101897
0.293622
-0.00572991
0.294634
-0.00145896
0.294887
0.0027504
0.294401
0.00700648
0.293041
0.0117933
0.290542
0.0185401
0.286257
0.0284266
0.2779
0.0596164
0.260975
0.110146
-0.215541
0.241405
-0.158716
0.26735
-0.162221
0.296616
-0.172163
0.322557
-0.154726
0.347768
-0.149201
0.372242
-0.13994
0.394428
-0.124411
0.414703
-0.111519
0.433299
-0.0973011
0.449785
-0.0832081
0.464386
-0.070408
0.477251
-0.0576702
0.488245
-0.0458941
0.497431
-0.034469
0.504875
-0.0230741
0.510386
-0.0121955
0.514142
-0.000851367
0.516053
0.0101036
0.516141
0.0218074
0.514345
0.0331113
0.510712
0.0451537
0.50531
0.0557801
0.498475
0.0652996
0.490394
0.0712098
0.481585
0.0720619
0.472284
0.0723713
0.462506
0.0744457
0.452287
0.0766859
0.441716
0.0795642
0.430759
0.0831058
0.41941
0.0871483
0.407593
0.0919724
0.395121
0.0979662
0.381566
0.106023
0.36628
0.117563
0.347879
0.136982
0.324282
0.168046
0.289006
0.246914
0.238746
0.310437
-0.189873
-0.162841
-0.163106
-0.172697
-0.129773
-0.211219
-0.0963024
-0.219112
-0.0618371
-0.229304
-0.0261553
-0.238663
0.00833914
-0.235024
0.039456
-0.218176
0.0672497
-0.199006
0.0921709
-0.179681
0.113923
-0.158129
0.133061
-0.138827
0.150261
-0.122799
0.165813
-0.108574
0.180054
-0.0970149
0.193274
-0.0874582
0.205627
-0.0796975
0.217251
-0.0734421
0.228275
-0.0686448
0.238787
-0.0647695
0.248854
-0.0617938
0.25849
-0.0590774
0.267673
-0.056009
0.276164
-0.0506115
0.28373
-0.0434278
0.290294
-0.0368042
0.295874
-0.0304127
0.30052
-0.0243673
0.304235
-0.0185628
0.30708
-0.0130353
0.309059
-0.00770934
0.310232
-0.00263152
0.310612
0.00237027
0.310157
0.00746132
0.308825
0.013125
0.306263
0.0211025
0.301824
0.0328654
0.293551
0.0678883
0.277205
0.126493
-0.214133
0.241338
-0.185921
0.268732
-0.189616
0.299694
-0.203125
0.326839
-0.181872
0.353357
-0.175719
0.379102
-0.165684
0.402326
-0.147636
0.423856
-0.133049
0.44329
-0.116734
0.460751
-0.100669
0.476453
-0.0861094
0.490222
-0.0714398
0.502141
-0.0578127
0.512328
-0.0446557
0.520712
-0.0314585
0.52725
-0.0187336
0.53197
-0.00557056
0.534819
0.00725465
0.535689
0.0209367
0.534604
0.0341965
0.531662
0.0480959
0.526871
0.0605718
0.52048
0.0716902
0.512851
0.0788389
0.504306
0.0806062
0.495101
0.0815763
0.485294
0.0842531
0.47489
0.0870893
0.46394
0.0905142
0.452513
0.0945334
0.440562
0.0990992
0.428137
0.104398
0.415135
0.110969
0.40142
0.119738
0.386511
0.132474
0.36938
0.154114
0.348124
0.189304
0.316256
0.278785
0.268611
0.358093
-0.187236
-0.189738
-0.159316
-0.200617
-0.124262
-0.246274
-0.0892695
-0.254104
-0.0533817
-0.265191
-0.0163398
-0.275705
0.0193535
-0.270717
0.0513161
-0.250138
0.0796271
-0.227317
0.104804
-0.204857
0.126597
-0.179922
0.145604
-0.157834
0.162622
-0.139816
0.177991
-0.123943
0.192103
-0.111127
0.205294
-0.100649
0.217682
-0.092086
0.229441
-0.0852005
0.240663
-0.0798669
0.251435
-0.0755416
0.261785
-0.0721432
0.271751
-0.0690438
0.281274
-0.0655317
0.290146
-0.0594838
0.298098
-0.0513805
0.305045
-0.0437516
0.310998
-0.0363657
0.315985
-0.0293543
0.32
-0.0225777
0.323086
-0.0161215
0.325292
-0.00991513
0.326624
-0.00396384
0.327117
0.0018771
0.326737
0.00784016
0.325387
0.0144751
0.322764
0.0237251
0.318188
0.0374408
0.30993
0.0761445
0.294167
0.142256
-0.213667
0.242235
-0.214488
0.271082
-0.218463
0.303743
-0.235785
0.332287
-0.210416
0.360292
-0.203724
0.387408
-0.1928
0.411873
-0.172101
0.434294
-0.15547
0.454874
-0.137315
0.473195
-0.118989
0.489627
-0.102542
0.504246
-0.0860588
0.517066
-0.0706324
0.528087
-0.0556768
0.537313
-0.0406842
0.544768
-0.0261888
0.55031
-0.0111122
0.553915
0.00364932
0.555563
0.019289
0.555218
0.0345414
0.55297
0.0503443
0.548866
0.0646759
0.543082
0.0774738
0.535942
0.0859796
0.527772
0.088776
0.518776
0.0905727
0.509005
0.0940237
0.498535
0.0975593
0.487427
0.101622
0.475673
0.106287
0.463287
0.111485
0.450276
0.117409
0.436593
0.124653
0.422124
0.134206
0.406638
0.14796
0.389439
0.171313
0.369401
0.209342
0.341089
0.307099
0.297047
0.402142
-0.185267
-0.218138
-0.155989
-0.229895
-0.11916
-0.283103
-0.0826201
-0.290644
-0.0450814
-0.30273
-0.00645836
-0.314328
0.0307076
-0.307883
0.0636923
-0.283123
0.0927119
-0.256336
0.11834
-0.230485
0.140297
-0.201879
0.159294
-0.17683
0.176195
-0.156717
0.191403
-0.139151
0.205364
-0.125088
0.218445
-0.11373
0.230823
-0.104464
0.242642
-0.0970188
0.253996
-0.0912215
0.264972
-0.086517
0.275597
-0.0827685
0.285838
-0.0792847
0.295675
-0.0753683
0.304912
-0.0687208
0.313268
-0.0597372
0.320586
-0.0510689
0.326913
-0.0426932
0.332222
-0.0346634
0.336559
-0.0269148
0.339921
-0.0194839
0.34234
-0.0123336
0.343856
-0.00548055
0.344462
0.00127186
0.344154
0.00814738
0.342832
0.0157973
0.340166
0.0263912
0.335436
0.0421705
0.327218
0.0843621
0.312038
0.157436
-0.213695
0.243887
-0.24468
0.274287
-0.248863
0.308849
-0.270347
0.33885
-0.240416
0.368137
-0.233011
0.396737
-0.221401
0.422383
-0.197747
0.445962
-0.179049
0.467544
-0.158897
0.486764
-0.138209
0.504078
-0.119855
0.519606
-0.101587
0.533158
-0.0841838
0.544924
-0.0674428
0.555047
-0.050808
0.563234
-0.0343748
0.569586
-0.0174649
0.573959
-0.000722829
0.576429
0.016819
0.576886
0.0340842
0.575255
0.0519751
0.571806
0.0681255
0.566603
0.082677
0.559964
0.0926185
0.552143
0.0965972
0.543307
0.0994081
0.533633
0.103698
0.523167
0.108026
0.511902
0.112887
0.499944
0.118245
0.487243
0.124186
0.473774
0.130878
0.459501
0.138926
0.44431
0.149398
0.427996
0.164274
0.409961
0.189349
0.389733
0.229572
0.363828
0.333005
0.323375
0.442604
-0.183935
-0.247898
-0.153188
-0.260642
-0.114393
-0.321898
-0.0759841
-0.329053
-0.0367735
-0.34194
0.00369391
-0.354795
0.0423814
-0.346571
0.076604
-0.317345
0.106505
-0.286237
0.132763
-0.256743
0.155022
-0.224138
0.174085
-0.195893
0.190944
-0.173576
0.206028
-0.154234
0.219838
-0.138898
0.232797
-0.126689
0.245107
-0.116774
0.256918
-0.10883
0.268371
-0.102674
0.279495
-0.097641
0.290297
-0.0935702
0.300811
-0.0897989
0.310959
-0.0855159
0.320537
-0.078299
0.329255
-0.068455
0.336971
-0.058785
0.343649
-0.0493714
0.34932
-0.040335
0.353962
-0.0315568
0.3576
-0.0231223
0.360269
-0.0150027
0.361955
-0.00716682
0.362707
0.000519903
0.362486
0.00836832
0.361175
0.0171078
0.358452
0.0291131
0.353635
0.0469873
0.34548
0.0925157
0.330863
0.172053
-0.214416
0.246173
-0.276437
0.278148
-0.280837
0.314639
-0.306838
0.346332
-0.27211
0.377243
-0.263922
0.407318
-0.251476
0.434104
-0.224533
0.458925
-0.20387
0.481555
-0.181527
0.501733
-0.158386
0.519852
-0.137975
0.536028
-0.117763
0.550404
-0.0985601
0.563044
-0.0800832
0.573775
-0.0615384
0.582763
-0.0433625
0.589857
-0.0245593
0.595038
-0.0059032
0.598185
0.0136721
0.599326
0.0329431
0.598427
0.052874
0.595562
0.0709912
0.590941
0.0872972
0.584813
0.0987472
0.577388
0.104022
0.568849
0.107947
0.559282
0.113264
0.548771
0.118536
0.537442
0.124217
0.525251
0.130437
0.512258
0.137179
0.498433
0.144703
0.483688
0.15367
0.467889
0.165197
0.45079
0.181372
0.431842
0.208298
0.410602
0.250812
0.38567
0.357938
0.347886
0.480393
-0.18297
-0.279344
-0.15072
-0.292892
-0.109845
-0.362772
-0.069503
-0.369395
-0.0283142
-0.383129
0.0140104
-0.39712
0.0544593
-0.387019
0.0900764
-0.352962
0.121047
-0.317207
0.148002
-0.283699
0.170715
-0.24685
0.189972
-0.21515
0.206875
-0.190479
0.221866
-0.169225
0.235543
-0.152575
0.24837
-0.139516
0.260577
-0.128982
0.272362
-0.120614
0.283817
-0.114129
0.295033
-0.108857
0.306024
-0.104561
0.316756
-0.100531
0.327165
-0.0959251
0.33708
-0.0882138
0.346161
-0.0775357
0.354242
-0.0668668
0.361304
-0.056433
0.367317
-0.0463484
0.372295
-0.0365344
0.376217
-0.0270448
0.379112
-0.0178971
0.381018
-0.00907362
0.381904
-0.000366136
0.381777
0.00849543
0.380489
0.0183964
0.377749
0.0318527
0.372828
0.0519078
0.364753
0.100591
0.35076
0.186045
-0.215496
0.249061
-0.310002
0.282798
-0.314574
0.321326
-0.345366
0.354612
-0.305396
0.387135
-0.296444
0.418796
-0.283137
0.447102
-0.252839
0.473057
-0.229825
0.496764
-0.205235
0.517853
-0.179475
0.536887
-0.157009
0.553946
-0.134822
0.56895
-0.113564
0.582228
-0.0933604
0.593755
-0.0730662
0.603449
-0.0530565
0.611221
-0.0323309
0.617053
-0.0117345
0.620898
0.00982703
0.622742
0.0310987
0.62253
0.053086
0.620336
0.0731858
0.616302
0.0913311
0.610671
0.104378
0.603631
0.111062
0.595359
0.116219
0.585932
0.122691
0.575479
0.12899
0.564037
0.135658
0.55168
0.142794
0.538407
0.150452
0.524205
0.158906
0.509038
0.168838
0.492696
0.18154
0.474936
0.199133
0.455197
0.228039
0.432797
0.273213
0.407721
0.383016
0.371598
0.516523
-0.182416
-0.312423
-0.148429
-0.32688
-0.105423
-0.405778
-0.0629822
-0.411836
-0.0197475
-0.426364
0.0246263
-0.441494
0.0670234
-0.429416
0.10414
-0.390078
0.136281
-0.349348
0.16414
-0.311557
0.187423
-0.270133
0.206978
-0.234705
0.223957
-0.207457
0.238935
-0.184202
0.252508
-0.166149
0.265206
-0.152214
0.277288
-0.141063
0.288988
-0.132314
0.300443
-0.125584
0.3117
-0.120114
0.322796
-0.115658
0.333704
-0.111439
0.344385
-0.106607
0.354607
-0.0984354
0.364035
-0.0869646
0.372482
-0.0753135
0.379897
-0.0638482
0.386275
-0.0527265
0.391557
-0.0418168
0.395784
-0.031272
0.398938
-0.0210513
0.401041
-0.011176
0.4021
-0.00142542
0.402053
0.00854144
0.400812
0.0196369
0.398046
0.0346189
0.393051
0.0569018
0.385121
0.10852
0.371774
0.199392
-0.217134
0.252397
-0.345264
0.287996
-0.350172
0.328681
-0.386051
0.363826
-0.340542
0.3981
-0.330718
0.431396
-0.316433
0.461121
-0.282564
0.488415
-0.257119
0.513181
-0.230001
0.535262
-0.201555
0.555135
-0.176882
0.57294
-0.152627
0.588782
-0.129407
0.60278
-0.107358
0.614938
-0.0852234
0.625242
-0.0633605
0.633702
-0.0407914
0.640241
-0.0182735
0.644759
0.00530938
0.647185
0.0286728
0.647614
0.0526574
0.646009
0.074791
0.642544
0.0947957
0.637465
0.109458
0.630918
0.117609
0.622937
0.1242
0.613705
0.131923
0.60329
0.139405
0.591785
0.147162
0.57927
0.155309
0.565747
0.163974
0.551193
0.17346
0.535558
0.184473
0.518682
0.198415
0.500304
0.217511
0.479877
0.248466
0.456525
0.296564
0.430807
0.408734
0.395609
0.551724
-0.182121
-0.347436
-0.146484
-0.362517
-0.101103
-0.451159
-0.0564744
-0.456465
-0.0109795
-0.471859
0.0356739
-0.488147
0.0800297
-0.473772
0.118858
-0.428907
0.152301
-0.382792
0.181168
-0.340424
0.205115
-0.29408
0.225059
-0.254648
0.242256
-0.224655
0.257267
-0.199213
0.270776
-0.179658
0.283361
-0.1648
0.295316
-0.153018
0.306907
-0.143905
0.318293
-0.136971
0.329565
-0.131385
0.340729
-0.126822
0.351795
-0.122504
0.362681
-0.117493
0.373198
-0.108952
0.382951
-0.0967175
0.391747
-0.0841099
0.399518
-0.0716198
0.406222
-0.0594299
0.411848
-0.0474428
0.416375
-0.0357993
0.419798
-0.0244744
0.422131
-0.0135091
0.42335
-0.00264448
0.423424
0.00846727
0.422219
0.0208418
0.419466
0.0373725
0.414427
0.0619407
0.406605
0.116342
0.393956
0.212041
-0.219046
0.256256
-0.382473
0.293821
-0.387738
0.336804
-0.429033
0.373836
-0.377574
0.409887
-0.366769
0.444937
-0.351483
0.476208
-0.313835
0.504809
-0.28572
0.53081
-0.256002
0.553886
-0.224631
0.574734
-0.19773
0.593328
-0.171221
0.60989
-0.145968
0.624573
-0.122041
0.637281
-0.0979316
0.648284
-0.0743635
0.657381
-0.0498879
0.66453
-0.0254226
0.669705
0.000134268
0.672812
0.0255655
0.673834
0.0516364
0.672849
0.0757758
0.669966
0.0976788
0.665396
0.114027
0.659269
0.123737
0.651611
0.131857
0.642606
0.140929
0.6323
0.14971
0.620768
0.158695
0.608106
0.16797
0.594325
0.177756
0.579433
0.188352
0.563336
0.20057
0.545947
0.215805
0.526951
0.236508
0.505867
0.269551
0.481677
0.320756
0.455283
0.43513
0.420669
0.586343
-0.182265
-0.384217
-0.144565
-0.400217
-0.096809
-0.498914
-0.0497943
-0.503479
-0.00198587
-0.519667
0.047006
-0.537139
0.0936403
-0.520406
0.134258
-0.469524
0.169184
-0.417718
0.199159
-0.370399
0.223893
-0.318814
0.244307
-0.275062
0.261769
-0.242117
0.276873
-0.214317
0.290344
-0.193128
0.302845
-0.1773
0.314687
-0.16486
0.326146
-0.155365
0.33745
-0.148274
0.348694
-0.142629
0.359897
-0.138026
0.37106
-0.133666
0.382146
-0.128579
0.392917
-0.119723
0.40297
-0.106771
0.412096
-0.0932359
0.420212
-0.0797361
0.427271
-0.066489
0.433227
-0.0533985
0.438059
-0.0406316
0.441749
-0.0281648
0.444299
-0.016059
0.445704
-0.0040494
0.4459
0.00827115
0.444758
0.0219831
0.442012
0.0401186
0.436961
0.0669908
0.429336
0.123966
0.417371
0.224005
-0.221312
0.260634
-0.421795
0.300217
-0.427321
0.345612
-0.474428
0.384592
-0.416554
0.422568
-0.404745
0.459574
-0.38849
0.49236
-0.346621
0.522404
-0.315764
0.549765
-0.283364
0.573942
-0.248808
0.595673
-0.219461
0.615121
-0.190669
0.632312
-0.163159
0.64768
-0.137409
0.661156
-0.111408
0.672734
-0.085941
0.682445
-0.059599
0.690179
-0.0331563
0.695847
-0.00553379
0.699536
0.0218766
0.701184
0.0499889
0.700728
0.0762314
0.698408
0.0999987
0.694368
0.118068
0.688713
0.129392
0.68146
0.13911
0.672658
0.149731
0.662479
0.15989
0.65099
0.170184
0.638216
0.180744
0.624221
0.191751
0.608983
0.20359
0.592489
0.217064
0.574559
0.233734
0.554919
0.256148
0.53317
0.2913
0.508294
0.345631
0.481237
0.462187
0.447157
0.620425
-0.182526
-0.423003
-0.14296
-0.439783
-0.0925302
-0.549344
-0.0430276
-0.552982
0.00728043
-0.569975
0.0588529
-0.588711
0.107783
-0.569337
0.150399
-0.51214
0.186852
-0.454171
0.218101
-0.401648
0.243691
-0.344404
0.264709
-0.29608
0.282524
-0.259932
0.297786
-0.229579
0.311295
-0.206637
0.323717
-0.189722
0.33544
-0.176583
0.346797
-0.166722
0.357993
-0.15947
0.369167
-0.153803
0.380367
-0.149226
0.391618
-0.144917
0.402858
-0.139819
0.413856
-0.130721
0.424205
-0.117121
0.433639
-0.102669
0.442084
-0.088181
0.449466
-0.0738715
0.45575
-0.0596822
0.460876
-0.0457578
0.464851
-0.03214
0.467655
-0.0188628
0.469231
-0.0056258
0.469574
0.0079283
0.468515
0.0230427
0.465795
0.0428386
0.460761
0.0720241
0.453304
0.131424
0.442079
0.235229
-0.223989
0.26547
-0.463276
0.307178
-0.469029
0.355079
-0.522329
0.39612
-0.457594
0.436215
-0.44484
0.475166
-0.42744
0.509652
-0.381107
0.541247
-0.347359
0.569894
-0.31201
0.595161
-0.274075
0.617883
-0.242183
0.638206
-0.210992
0.656278
-0.181231
0.672275
-0.153407
0.686344
-0.125476
0.698511
-0.0981085
0.70878
-0.0698676
0.717078
-0.0414544
0.723412
-0.0118676
0.727628
0.017661
0.729777
0.0478398
0.729918
0.0760907
0.728103
0.101813
0.724567
0.121605
0.719353
0.134605
0.712473
0.145991
0.703973
0.15823
0.693953
0.16991
0.682489
0.181648
0.669638
0.193595
0.655462
0.205927
0.639938
0.219114
0.623006
0.233997
0.604555
0.252184
0.584313
0.276391
0.561914
0.3137
0.53635
0.371197
0.508724
0.489814
0.475186
0.653967
-0.183032
-0.46396
-0.141314
-0.481501
-0.0881822
-0.602475
-0.0360412
-0.605123
0.016917
-0.622933
0.0711876
-0.642982
0.122632
-0.620781
0.167331
-0.556839
0.2055
-0.492339
0.238084
-0.434232
0.264675
-0.370995
0.286341
-0.317746
0.304562
-0.278153
0.320061
-0.245078
0.33363
-0.220206
0.346039
-0.202131
0.357661
-0.188204
0.368895
-0.177956
0.379977
-0.170551
0.391073
-0.164899
0.402242
-0.160395
0.413522
-0.156197
0.424892
-0.151188
0.436112
-0.141942
0.44671
-0.127719
0.456427
-0.112386
0.465181
-0.0969353
0.472886
-0.0815765
0.479492
-0.0662886
0.484937
-0.0512026
0.48919
-0.0363935
0.492218
-0.021891
0.494019
-0.00742631
0.494497
0.00744957
0.493534
0.0240058
0.490865
0.0455065
0.485868
0.0770208
0.478639
0.138652
0.468186
0.245682
-0.226906
0.270601
-0.506972
0.314641
-0.513069
0.365223
-0.572911
0.408491
-0.500863
0.450742
-0.487092
0.491714
-0.468412
0.52805
-0.417444
0.561249
-0.380558
0.591264
-0.342025
0.617756
-0.300567
0.641612
-0.266039
0.662784
-0.232163
0.681616
-0.200063
0.698345
-0.170135
0.713011
-0.140143
0.725784
-0.110881
0.736595
-0.0806794
0.745464
-0.0503232
0.752271
-0.0186741
0.757056
0.0128754
0.759716
0.0451799
0.760333
0.0754742
0.759059
0.103087
0.756006
0.124658
0.751279
0.139332
0.744769
0.152501
0.736555
0.166444
0.726724
0.179742
0.71532
0.193052
0.702444
0.20647
0.688104
0.220267
0.672309
0.234908
0.654997
0.251309
0.636048
0.271133
0.615227
0.297211
0.592132
0.336795
0.565945
0.397382
0.537811
0.517949
0.504794
0.686985
-0.183727
-0.507139
-0.139799
-0.525428
-0.0837949
-0.65848
-0.0288082
-0.66011
0.02693
-0.678671
0.0840172
-0.700069
0.13819
-0.674954
0.185085
-0.603734
0.225104
-0.532358
0.259138
-0.468267
0.286787
-0.398645
0.309193
-0.340151
0.327937
-0.296898
0.343712
-0.260853
0.357411
-0.233905
0.369836
-0.214556
0.3814
-0.199768
0.392524
-0.189081
0.403488
-0.181515
0.414476
-0.175887
0.425598
-0.171516
0.43689
-0.167488
0.448356
-0.162655
0.459744
-0.153329
0.470564
-0.138539
0.48056
-0.122383
0.489603
-0.105978
0.497626
-0.0896
0.504533
-0.0731951
0.510283
-0.0569532
0.514817
-0.0409273
0.518113
-0.0251872
0.52011
-0.00942305
0.520741
0.00681841
0.519895
0.0248517
0.517288
0.0481139
0.51239
0.0819185
0.505383
0.14566
0.49568
0.255384
-0.230188
0.276285
-0.553068
0.322766
-0.559549
0.376019
-0.626164
0.421756
-0.5466
0.466155
-0.531491
0.509395
-0.511651
0.547565
-0.455614
0.582467
-0.41546
0.614016
-0.373574
0.641809
-0.328361
0.66663
-0.290859
0.688835
-0.254368
0.708422
-0.219651
0.725864
-0.187576
0.741265
-0.155544
0.754573
-0.124189
0.765967
-0.0920733
0.775342
-0.0596979
0.782708
-0.0260402
0.787949
0.00763437
0.791089
0.0420406
0.792237
0.0743263
0.791386
0.103938
0.788803
0.12724
0.784495
0.14364
0.77837
0.158626
0.770479
0.174336
0.760863
0.189357
0.749603
0.204312
0.736702
0.219371
0.722233
0.234736
0.706184
0.250957
0.688508
0.268985
0.669103
0.290538
0.647673
0.318642
0.623968
0.3605
0.597153
0.424198
0.568498
0.546605
0.536032
0.719453
-0.184669
-0.552659
-0.138355
-0.571742
-0.0792605
-0.717574
-0.0213626
-0.718007
0.0373841
-0.737418
0.0974948
-0.760179
0.154417
-0.731876
0.203765
-0.653082
0.245704
-0.574297
0.281345
-0.503907
0.310167
-0.427466
0.33341
-0.363394
0.352714
-0.316201
0.368838
-0.276976
0.382717
-0.247784
0.395179
-0.227018
0.406723
-0.211313
0.417742
-0.200099
0.428587
-0.19236
0.439468
-0.186768
0.450516
-0.182564
0.461794
-0.178766
0.473336
-0.174197
0.484874
-0.164868
0.495903
-0.149568
0.506128
-0.132607
0.515435
-0.115285
0.523735
-0.0979004
0.530954
-0.0804137
0.53699
-0.0629902
0.541819
-0.0457564
0.545353
-0.0287207
0.547581
-0.0116512
0.548404
0.00599486
0.547657
0.0255983
0.545176
0.0505954
0.540369
0.0867247
0.53366
0.152368
0.524726
0.264318
-0.233734
0.282358
-0.601693
0.3313
-0.608491
0.387624
-0.682489
0.435653
-0.594628
0.482575
-0.578413
0.528062
-0.557138
0.568336
-0.495888
0.60495
-0.452074
0.638067
-0.406691
0.667178
-0.357471
0.693273
-0.316954
0.71639
-0.277485
0.736915
-0.240176
0.755102
-0.205764
0.771126
-0.171568
0.785053
-0.138115
0.796961
-0.103982
0.806818
-0.0695549
0.814621
-0.0338427
0.820343
0.00191184
0.823985
0.0383986
0.825511
0.0728008
0.825116
0.104334
0.822995
0.129361
0.819111
0.147525
0.813411
0.164326
0.805837
0.18191
0.796439
0.198755
0.785284
0.215467
0.772429
0.232226
0.757867
0.249298
0.741601
0.267224
0.723595
0.28699
0.703739
0.310395
0.681788
0.340592
0.657465
0.384823
0.63006
0.451602
0.600932
0.575733
0.568974
0.751412
-0.185746
-0.600646
-0.136926
-0.620561
-0.0746086
-0.779892
-0.0136396
-0.778977
0.0482594
-0.799317
0.111574
-0.823494
0.171522
-0.791824
0.223359
-0.704919
0.26739
-0.618328
0.304702
-0.541219
0.334804
-0.457569
0.35897
-0.38756
0.37891
-0.336141
0.395458
-0.293524
0.409571
-0.261897
0.422136
-0.239583
0.433663
-0.22284
0.444618
-0.211053
0.455352
-0.203095
0.466142
-0.197558
0.47709
-0.193512
0.488351
-0.190027
0.49993
-0.185776
0.511589
-0.176527
0.522799
-0.160778
0.533222
-0.14303
0.54279
-0.124853
0.551359
-0.106469
0.55884
-0.0878946
0.56519
-0.0693403
0.570285
-0.0508521
0.574087
-0.0325225
0.576517
-0.0140816
0.577521
0.00499116
0.576946
0.0261739
0.574567
0.0529744
0.569931
0.0913611
0.563494
0.158805
0.555347
0.272465
-0.237605
0.288842
-0.65293
0.340453
-0.660102
0.399819
-0.741854
0.450569
-0.645379
0.499917
-0.627761
0.547927
-0.605148
0.590194
-0.538155
0.628751
-0.490631
0.66355
-0.44149
0.694133
-0.388054
0.721385
-0.344207
0.745647
-0.301747
0.767038
-0.261566
0.78601
-0.224737
0.802666
-0.188223
0.817228
-0.152677
0.82964
-0.116393
0.839981
-0.0798958
0.848292
-0.0421541
0.854423
-0.00421915
0.858452
0.0343695
0.860412
0.0708411
0.860424
0.104322
0.85871
0.131076
0.855249
0.150986
0.849905
0.16967
0.84265
0.189165
0.833541