/*--------------------------------*- C++ -*----------------------------------*\
| =========                 |                                                 |
| \\      /  F ield         | OpenFOAM: The Open Source CFD Toolbox           |
|  \\    /   O peration     | Version:  3.0.0                                 |
|   \\  /    A nd           | Web:      www.OpenFOAM.org                      |
|    \\/     M anipulation  |                                                 |
\*---------------------------------------------------------------------------*/
FoamFile
{
    version     2.0;
    format      ascii;
    class       volVectorField;
    location    "150";
    object      U;
}
// * * * * * * * * * * * * * * * * * * * * * * * * * * * * * * * * * * * * * //

dimensions      [0 1 -1 0 0 0 0];

internalField   nonuniform List<vector> 
10720
(
(-0.0927451 31.048 4.75729e-18)
(1.89539 33.2968 -4.44272e-18)
(4.32957 35.436 0)
(7.08185 37.021 -3.10518e-16)
(10.0822 38.1616 3.42791e-16)
(13.2581 38.8219 2.50698e-16)
(16.4464 38.9002 3.80854e-16)
(19.5525 38.4468 0)
(22.4979 37.5332 0)
(25.206 36.1994 0)
(27.6533 34.55 1.23644e-16)
(29.8034 32.6251 0)
(31.6447 30.4635 2.03558e-15)
(33.1934 28.1289 0)
(34.4452 25.656 0)
(35.4135 23.1001 0)
(36.0865 20.4857 -3.3454e-15)
(36.4707 17.868 -5.01681e-15)
(36.5488 15.2704 4.41884e-15)
(36.3309 12.7497 0)
(35.7962 10.3384 3.49491e-15)
(34.9819 8.10451 -6.72539e-15)
(33.936 6.09402 3.26838e-15)
(32.7676 4.36439 -9.66381e-17)
(31.6767 2.95894 0)
(30.749 1.82034 1.14936e-15)
(29.8854 0.859296 1.7382e-17)
(28.9845 0.034436 -4.48313e-16)
(28.0087 -0.677991 -1.50025e-15)
(26.9551 -1.29111 -4.89327e-15)
(25.8264 -1.81079 1.85524e-15)
(24.6247 -2.24002 2.64436e-15)
(23.3467 -2.57862 1.44212e-15)
(21.9818 -2.82676 7.39454e-16)
(20.4778 -2.97882 2.28249e-15)
(18.7961 -3.03195 2.96764e-17)
(16.6151 -2.92915 -8.32735e-17)
(14.0943 -2.66665 -5.50171e-14)
(8.46282 -2.08918 8.48979e-14)
(-1.70933 28.6116 -5.49042e-18)
(-3.07107 25.8284 -2.30214e-17)
(-4.1089 22.6626 7.80765e-17)
(-4.67747 18.9336 -2.17097e-16)
(-4.61499 15.0498 -6.39935e-16)
(-3.86157 11.1277 1.03499e-15)
(-2.43982 7.42335 4.77274e-15)
(-0.525884 4.24346 2.76253e-15)
(1.57438 1.73556 0)
(3.73455 -0.404355 0)
(6.0141 -2.13202 4.05723e-15)
(8.20808 -3.33876 1.48652e-15)
(10.1825 -4.09124 -2.44732e-15)
(11.9192 -4.51566 2.0585e-15)
(13.4447 -4.72147 3.52225e-15)
(14.7925 -4.77958 2.33961e-15)
(15.9912 -4.74232 3.12713e-15)
(17.0715 -4.6416 2.18348e-15)
(18.0641 -4.50056 0)
(18.9919 -4.32552 0)
(19.8738 -4.11909 -3.7051e-15)
(20.7218 -3.87264 -2.02806e-16)
(21.5387 -3.57274 3.21073e-15)
(22.2961 -3.18907 -2.72031e-15)
(22.9298 -2.71668 2.28494e-17)
(23.4217 -2.19277 0)
(23.7963 -1.64265 1.0634e-15)
(24.0694 -1.08259 0)
(24.246 -0.524013 0)
(24.3309 0.0221742 9.15933e-16)
(24.3128 0.546173 0)
(24.186 1.04106 -3.48797e-15)
(23.9654 1.5015 -6.73894e-15)
(23.6685 1.92253 -3.36035e-14)
(23.2946 2.30051 1.35236e-14)
(22.8384 2.63618 -5.27317e-17)
(22.1811 2.92268 0)
(21.2712 3.12408 2.97993e-14)
(18.6008 3.29882 3.46103e-14)
(7.23392 27.0497 -1.63093e-17)
(9.3287 28.7689 1.07781e-17)
(11.8507 30.2929 0)
(14.7229 31.5163 0)
(17.7797 32.3855 -9.47981e-17)
(21.0254 32.841 -2.40375e-16)
(24.3358 32.8422 0)
(27.5696 32.4194 0)
(30.6702 31.5888 5.1149e-16)
(33.5495 30.41 0)
(36.1474 28.942 1.99669e-15)
(38.4617 27.2895 0)
(40.4844 25.5024 7.16454e-16)
(42.2139 23.6006 -7.06872e-16)
(43.6253 21.6123 1.40604e-15)
(44.7044 19.5615 -2.80927e-15)
(45.4558 17.4619 3.05654e-15)
(45.8731 15.3393 2.73094e-15)
(45.9604 13.2053 2.65554e-15)
(45.7044 11.0957 1.59375e-16)
(45.1101 9.03882 -2.74364e-15)
(44.1757 7.09221 2.552e-15)
(42.9323 5.30011 -1.41749e-16)
(41.4201 3.72219 0)
(39.7547 2.40859 0)
(38.0875 1.3051 0)
(36.4739 0.332348 8.86154e-17)
(34.8999 -0.522352 -1.79617e-17)
(33.3631 -1.2622 1.08557e-15)
(31.8555 -1.89576 3.66828e-17)
(30.3584 -2.42682 -2.89429e-17)
(28.8518 -2.85805 -5.60546e-17)
(27.3152 -3.19242 9.46376e-16)
(25.7316 -3.43208 -2.25935e-16)
(24.0557 -3.57603 1.89935e-17)
(22.2658 -3.62422 6.8485e-15)
(20.0805 -3.53088 0)
(17.7381 -3.30143 1.54379e-14)
(12.1324 -2.49606 4.45626e-14)
(5.43237 25.1985 2.23125e-17)
(3.83805 23.1199 -7.32846e-17)
(2.3829 20.6666 -7.8629e-16)
(1.21426 17.8501 9.17438e-16)
(0.513338 14.7618 0)
(0.374305 11.5271 -1.73621e-15)
(0.847025 8.33084 -1.19365e-15)
(1.88484 5.42972 -9.78858e-15)
(3.32373 2.95482 3.91308e-15)
(5.01568 0.849722 -3.30144e-15)
(6.86814 -0.795457 4.05012e-15)
(8.74064 -1.94593 -1.1505e-15)
(10.522 -2.69711 0)
(12.164 -3.16035 -8.34318e-16)
(13.6563 -3.42614 4.76375e-17)
(15.0077 -3.55121 -1.99857e-15)
(16.2307 -3.58273 0)
(17.3456 -3.54989 0)
(18.3749 -3.47407 -2.43353e-16)
(19.3409 -3.35571 2.32856e-16)
(20.259 -3.19511 -3.08763e-15)
(21.1415 -2.97793 -3.71325e-16)
(21.9907 -2.68549 1.73178e-16)
(22.7846 -2.28281 2.43507e-15)
(23.4707 -1.78247 -2.2587e-15)
(24.025 -1.24919 -1.98218e-15)
(24.4626 -0.711465 0)
(24.7955 -0.180588 0)
(25.0281 0.337118 0)
(25.1601 0.833033 8.41032e-18)
(25.2128 1.29944 0)
(25.2008 1.73128 0)
(25.1163 2.12764 1.15105e-14)
(24.9511 2.4879 1.12167e-14)
(24.6949 2.81391 -1.10575e-14)
(24.3561 3.11134 1.10445e-14)
(23.8342 3.37909 -2.20965e-14)
(23.3277 3.61505 -2.25828e-14)
(21.3426 3.68092 -2.40493e-14)
(8.21551 24.8823 -4.45283e-18)
(9.74095 26.3944 -4.51177e-17)
(11.5725 27.8442 3.29769e-17)
(13.6555 29.1572 4.27435e-18)
(15.9265 30.2126 -9.03897e-17)
(18.3855 30.9851 3.62248e-16)
(20.953 31.4377 -2.67311e-16)
(23.5488 31.5362 -3.3755e-16)
(26.1166 31.2822 1.01284e-18)
(28.5983 30.6919 -4.96921e-16)
(30.9425 29.7873 4.34746e-16)
(33.1193 28.5968 -1.25292e-15)
(35.1059 27.1565 -5.8078e-16)
(36.8853 25.5036 0)
(38.4649 23.6668 -1.45475e-15)
(39.8538 21.6746 2.90035e-15)
(41.0436 19.5559 0)
(42.0102 17.356 -5.38859e-15)
(42.7421 15.1047 -2.69053e-15)
(43.2096 12.8533 3.05576e-16)
(43.3994 10.6387 -3.03169e-16)
(43.2892 8.52772 -1.31911e-16)
(42.8798 6.56854 -1.83626e-15)
(42.18 4.82211 8.94581e-16)
(41.2464 3.33405 0)
(40.1619 2.04789 7.18898e-16)
(38.9515 0.894542 -8.14394e-17)
(37.6137 -0.126086 0)
(36.1706 -1.01255 9.2405e-16)
(34.652 -1.76979 1.54882e-15)
(33.0781 -2.40114 -2.3159e-15)
(31.4609 -2.91182 -1.56256e-15)
(29.8007 -3.30719 -5.08936e-17)
(28.0904 -3.59207 -1.15704e-16)
(26.2894 -3.76796 1.40517e-15)
(24.3764 -3.83309 -5.86089e-15)
(22.0912 -3.75023 0)
(19.6731 -3.48079 1.24371e-14)
(14.505 -2.76891 -6.6241e-14)
(6.94603 23.2717 -2.8021e-17)
(5.81246 21.4912 -8.39969e-17)
(4.82582 19.3747 3.28331e-16)
(3.99161 16.983 0)
(3.46704 14.3949 5.56162e-16)
(3.30573 11.6694 0)
(3.55117 8.92531 3.61547e-15)
(4.19859 6.35058 2.41737e-15)
(5.1891 4.06032 2.65891e-15)
(6.46065 2.07229 0)
(7.92369 0.448218 -3.99804e-15)
(9.45734 -0.798853 -8.80818e-16)
(10.9734 -1.72034 4.00993e-15)
(12.42 -2.37949 0)
(13.7737 -2.8312 -1.9828e-15)
(15.0298 -3.12097 -6.11161e-16)
(16.1909 -3.28904 2.70625e-15)
(17.2676 -3.36478 1.4784e-15)
(18.2749 -3.36942 4.42031e-16)
(19.2291 -3.31099 -2.24133e-16)
(20.1423 -3.1939 2.8184e-15)
(21.0234 -3.01143 0)
(21.8731 -2.75149 0)
(22.6728 -2.39338 2.20058e-17)
(23.3802 -1.94998 0)
(23.9721 -1.46844 3.96224e-15)
(24.4582 -0.968093 -5.86227e-17)
(24.8496 -0.457076 -4.33172e-16)
(25.1499 0.0565491 0)
(25.3609 0.562558 -7.86015e-16)
(25.4865 1.05212 1.53811e-15)
(25.5326 1.51949 0)
(25.5023 1.95946 -5.78116e-15)
(25.3974 2.36683 0)
(25.2073 2.73972 0)
(24.9327 3.07891 3.90251e-17)
(24.4648 3.38478 2.42328e-17)
(23.932 3.6188 2.25992e-14)
(22.1631 3.69173 4.66556e-14)
(10.8707 22.7922 -2.4555e-17)
(12.2845 24.0835 -3.35414e-17)
(13.9584 25.3229 4.35878e-17)
(15.8632 26.4353 3.90201e-17)
(17.9428 27.3301 0)
(20.2026 27.9873 0)
(22.581 28.3657 -3.82556e-16)
(25.0118 28.4339 5.41181e-16)
(27.4458 28.1873 0)
(29.8257 27.6327 -7.16927e-16)
(32.099 26.7879 -1.00583e-15)
(34.2267 25.6806 -9.21185e-16)
(36.1747 24.3472 1.16444e-15)
(37.9197 22.8228 1.06925e-15)
(39.4452 21.1404 0)
(40.7244 19.3419 1.69691e-15)
(41.7374 17.4646 5.93553e-16)
(42.4842 15.5353 4.77596e-15)
(42.9663 13.5796 2.85539e-16)
(43.1914 11.6274 -2.83596e-16)
(43.1691 9.71055 2.33222e-15)
(42.9144 7.87399 -3.78804e-16)
(42.4536 6.15861 2.01991e-15)
(41.8205 4.60913 7.94609e-16)
(41.0674 3.25683 -4.51677e-17)
(40.2481 2.06392 -6.48692e-16)
(39.3624 0.975594 4.38898e-18)
(38.3763 -0.012935 -4.40323e-18)
(37.2713 -0.89731 -8.8092e-16)
(36.0425 -1.67724 -1.92718e-17)
(34.6901 -2.34879 1.11396e-15)
(33.2212 -2.90749 -1.43639e-15)
(31.6434 -3.35124 -7.20091e-16)
(29.9621 -3.67899 4.53551e-17)
(28.1525 -3.88879 -1.27306e-15)
(26.2026 -3.97411 0)
(23.8769 -3.90236 -8.0331e-15)
(21.3755 -3.58799 -1.08017e-14)
(16.4788 -2.92816 2.73793e-14)
(9.66207 21.4285 -4.12879e-17)
(8.5591 19.9345 1.30439e-16)
(7.56054 18.1593 4.99071e-16)
(6.69035 16.1353 0)
(6.08406 13.9335 -5.02328e-16)
(5.78318 11.5929 0)
(5.82309 9.20669 -3.03327e-15)
(6.20637 6.92993 -1.03315e-16)
(6.89 4.84755 1.93214e-15)
(7.83425 2.98825 1.7442e-15)
(8.97243 1.4132 4.26966e-17)
(10.2175 0.145325 2.97564e-15)
(11.5011 -0.837993 -2.02495e-15)
(12.7725 -1.57573 6.4032e-16)
(13.9999 -2.10792 2.30369e-15)
(15.1678 -2.47435 2.64317e-15)
(16.2701 -2.71013 -2.45499e-15)
(17.3077 -2.84395 2.96676e-18)
(18.2884 -2.89739 0)
(19.2225 -2.88176 3.02662e-15)
(20.1189 -2.80197 1.68084e-16)
(20.9835 -2.65423 -2.69215e-15)
(21.8159 -2.42901 0)
(22.6001 -2.1107 2.05967e-17)
(23.3009 -1.70667 0)
(23.8953 -1.25451 -1.80285e-15)
(24.3887 -0.776764 0)
(24.7909 -0.285461 4.06084e-16)
(25.1056 0.209124 -1.79318e-17)
(25.3354 0.69638 1.17344e-17)
(25.4842 1.16741 -1.38703e-15)
(25.5578 1.61471 -4.42641e-17)
(25.5597 2.0334 0)
(25.4926 2.42068 5.35007e-15)
(25.3478 2.77678 8.3743e-17)
(25.1263 3.10209 -1.06971e-14)
(24.7258 3.39896 4.3398e-14)
(24.2425 3.60201 8.25919e-17)
(22.656 3.66781 0)
(12.3908 21.1975 -3.58982e-17)
(13.5889 22.3437 -2.69684e-17)
(15.0167 23.4678 8.62935e-17)
(16.6339 24.5059 -2.04707e-16)
(18.3927 25.3746 3.19589e-17)
(20.315 26.0663 -2.48103e-17)
(22.3496 26.5424 1.49827e-16)
(24.4451 26.7687 0)
(26.5698 26.7355 7.2764e-16)
(28.6755 26.4383 4.08516e-16)
(30.7201 25.8801 0)
(32.6695 25.0733 8.87827e-16)
(34.4907 24.0373 -4.71903e-16)
(36.1577 22.7925 1.27e-15)
(37.6492 21.361 0)
(38.9459 19.7655 -2.25322e-15)
(40.0421 18.0196 2.06649e-15)
(40.9216 16.1554 -1.72948e-16)
(41.5688 14.2089 0)
(41.9695 12.2259 2.21095e-15)
(42.1161 10.2526 -2.24035e-15)
(42.0105 8.34647 -1.10104e-16)
(41.673 6.55965 -1.64119e-15)
(41.1417 4.94243 -1.48358e-15)
(40.4774 3.52905 0)
(39.7462 2.29079 0)
(38.9716 1.17446 -1.37995e-16)
(38.1404 0.166139 -1.39984e-17)
(37.2397 -0.73625 8.17179e-16)
(36.2588 -1.53727 -1.80855e-17)
(35.181 -2.23648 1.8039e-17)
(33.9878 -2.8309 1.3417e-15)
(32.6605 -3.31636 0)
(31.1851 -3.68772 3.63327e-17)
(29.5298 -3.93842 4.61085e-18)
(27.6832 -4.05489 0)
(25.4317 -4.00556 -2.72586e-17)
(22.9458 -3.66653 0)
(18.2652 -3.02404 -2.37315e-14)
(11.3622 19.9937 5.48466e-17)
(10.4225 18.6882 -2.85686e-16)
(9.55084 17.137 3.07071e-16)
(8.76198 15.3723 4.25028e-16)
(8.17662 13.46 -1.72579e-15)
(7.82618 11.418 -2.12582e-15)
(7.74655 9.31885 2.585e-15)
(7.94968 7.28999 -3.07753e-15)
(8.41433 5.40144 -1.50325e-15)
(9.11555 3.68486 -1.36584e-15)
(10.0013 2.19248 2.62186e-15)
(11.0087 0.948463 -2.53335e-15)
(12.0854 -0.0579048 -1.16005e-15)
(13.1871 -0.850504 1.12459e-15)
(14.281 -1.45458 -2.57594e-15)
(15.3477 -1.90006 4.80268e-16)
(16.3754 -2.21372 0)
(17.3593 -2.41903 -2.04641e-15)
(18.3012 -2.53451 7.58918e-16)
(19.2061 -2.57195 -3.14308e-15)
(20.0794 -2.53672 0)
(20.924 -2.42738 2.33453e-15)
(21.7381 -2.23743 2.01869e-15)
(22.5072 -1.95684 -1.83356e-15)
(23.2011 -1.5916 0)
(23.7973 -1.17301 -1.70824e-15)
(24.2969 -0.724486 0)
(24.7074 -0.258146 0)
(25.0321 0.21609 0)
(25.273 0.687791 6.95256e-16)
(25.4341 1.14769 0)
(25.5205 1.58843 0)
(25.5359 2.0051 -5.17047e-15)
(25.4835 2.39342 -5.06501e-15)
(25.356 2.75187 0)
(25.1557 3.07835 -1.01594e-14)
(24.789 3.37453 6.39229e-17)
(24.3472 3.56121 0)
(22.9459 3.61548 -2.078e-14)
(13.8907 19.7978 5.17095e-17)
(14.9776 20.814 -3.81032e-17)
(16.2679 21.8171 0)
(17.7243 22.7475 6.63864e-18)
(19.3008 23.5318 1.26384e-16)
(21.0289 24.1682 2.34639e-17)
(22.8638 24.6194 4.8172e-17)
(24.7638 24.8548 -2.98403e-16)
(26.7065 24.862 -1.03954e-16)
(28.6515 24.632 6.87171e-16)
(30.562 24.1627 -2.58733e-16)
(32.4077 23.4593 6.16171e-16)
(34.1548 22.5343 3.07587e-16)
(35.7747 21.4035 1.70159e-16)
(37.2425 20.0865 0)
(38.5353 18.6068 -4.71242e-16)
(39.628 16.9979 -1.05895e-15)
(40.499 15.2951 -3.80199e-15)
(41.1345 13.5292 1.09824e-15)
(41.5278 11.731 -1.42855e-15)
(41.676 9.93563 -2.19703e-16)
(41.5844 8.18525 0)
(41.2706 6.52364 1.47398e-15)
(40.7676 4.99389 9.18182e-17)
(40.1278 3.62874 -3.80741e-17)
(39.4093 2.41448 -5.13427e-16)
(38.6415 1.31249 1.13635e-16)
(37.8242 0.311394 2.19958e-16)
(36.9568 -0.588399 -7.65781e-16)
(36.0422 -1.39009 -3.35213e-17)
(35.0767 -2.0955 9.59036e-16)
(34.0475 -2.70365 1.17443e-15)
(32.9309 -3.21191 0)
(31.6971 -3.61504 -6.29592e-17)
(30.2912 -3.90381 1.28857e-15)
(28.6784 -4.05799 0)
(26.6386 -4.04306 1.42825e-14)
(24.3159 -3.70226 0)
(19.903 -3.08424 2.14269e-14)
(12.9488 18.7352 -5.32545e-17)
(12.0848 17.5904 1.27209e-16)
(11.2697 16.2276 0)
(10.5188 14.6737 0)
(9.93917 12.9909 7.66002e-16)
(9.55232 11.1875 3.6672e-15)
(9.39197 9.3225 0)
(9.47047 7.50242 -2.4616e-15)
(9.77734 5.78809 -2.37149e-15)
(10.296 4.21038 2.34472e-15)
(10.9846 2.81079 -5.97761e-17)
(11.7971 1.61321 1.06475e-15)
(12.6948 0.613508 2.64266e-17)
(13.6415 -0.202059 2.94159e-15)
(14.6071 -0.847952 2.75187e-15)
(15.5715 -1.34519 -2.63484e-15)
(16.5207 -1.71366 3.98493e-16)
(17.4456 -1.97209 -7.58041e-16)
(18.3433 -2.13614 3.59644e-16)
(19.2143 -2.21691 2.27784e-15)
(20.0603 -2.22023 3.06665e-16)
(20.8818 -2.14641 -2.66608e-16)
(21.6753 -1.991 -1.7446e-15)
(22.4271 -1.74755 0)
(23.1111 -1.42112 1.0491e-16)
(23.7057 -1.03711 3.11212e-15)
(24.2085 -0.618012 -2.31061e-17)
(24.6244 -0.176388 2.28813e-17)
(24.9562 0.277415 0)
(25.2055 0.73231 -6.52226e-16)
(25.3755 1.17838 0)
(25.471 1.60771 0)
(25.4955 2.01439 4.77967e-15)
(25.4519 2.39364 4.86856e-15)
(25.3333 2.74371 0)
(25.1422 3.061 9.46223e-15)
(24.7908 3.34683 -3.84419e-14)
(24.3657 3.51072 1.44547e-16)
(23.11 3.54195 1.90482e-14)
(15.0941 18.6103 6.18748e-18)
(16.0717 19.5232 -3.70374e-17)
(17.2327 20.4324 8.76537e-17)
(18.538 21.2822 -8.56302e-17)
(19.9426 22.0069 -7.36119e-17)
(21.484 22.6107 0)
(23.1217 23.0607 -3.10156e-17)
(24.8202 23.3283 1.74533e-17)
(26.5661 23.4023 -2.00605e-16)
(28.325 23.272 -4.06018e-16)
(30.0674 22.931 0)
(31.7683 22.3796 -1.08878e-15)
(33.3968 21.6232 -9.9636e-16)
(34.9259 20.6709 -2.44789e-15)
(36.3309 19.5361 0)
(37.5862 18.237 -1.52873e-15)
(38.6705 16.7931 -1.60949e-15)
(39.5667 15.2234 1.76983e-15)
(40.2572 13.5565 -1.73777e-15)
(40.7273 11.8287 1.56515e-15)
(40.9674 10.0811 1.9081e-16)
(40.9754 8.36187 -1.61889e-15)
(40.762 6.71899 0)
(40.3531 5.19682 -1.31853e-15)
(39.7919 3.82694 7.6793e-17)
(39.1296 2.60205 5.38555e-16)
(38.3967 1.49081 0)
(37.5993 0.481428 -1.90618e-17)
(36.7421 -0.425767 3.1368e-17)
(35.8345 -1.23371 1.07394e-15)
(34.8832 -1.94469 -8.55716e-16)
(33.8894 -2.55897 -1.12944e-15)
(32.846 -3.0761 5.07934e-16)
(31.7383 -3.49362 -5.93805e-17)
(30.5185 -3.80452 -1.24604e-15)
(29.1476 -3.98779 -4.869e-15)
(27.3948 -4.00794 -7.00643e-15)
(25.3784 -3.68165 1.33069e-16)
(21.3556 -3.10682 -6.92825e-17)
(14.2412 17.6581 2.40745e-17)
(13.4561 16.6389 2.4851e-16)
(12.703 15.424 2.95729e-16)
(11.9961 14.0378 -5.82528e-16)
(11.4328 12.5395 -2.14082e-15)
(11.0283 10.9304 7.41178e-16)
(10.8148 9.2582 1.87833e-15)
(10.8065 7.61453 5.10964e-15)
(10.9986 6.05511 2.03337e-15)
(11.3786 4.60707 -1.93352e-15)
(11.9134 3.3031 -4.64328e-17)
(12.5682 2.16537 -9.53582e-16)
(13.3142 1.19227 0)
(14.1226 0.375858 -2.97109e-17)
(14.9679 -0.291497 -1.6814e-15)
(15.8317 -0.824041 7.77975e-16)
(16.6994 -1.23569 -7.61499e-16)
(17.5599 -1.54 0)
(18.4072 -1.749 1.30151e-15)
(19.2386 -1.87204 -2.41818e-15)
(20.0526 -1.91422 0)
(20.8472 -1.87661 2.06311e-15)
(21.6175 -1.75643 0)
(22.3506 -1.54978 -1.06765e-16)
(23.023 -1.26129 1.0548e-16)
(23.614 -0.911844 -1.47615e-15)
(24.1183 -0.522363 -2.42142e-17)
(24.5388 -0.106007 -2.18298e-17)
(24.8771 0.326413 1.00043e-17)
(25.1343 0.763632 -6.38124e-16)
(25.313 1.19534 -1.21907e-15)
(25.4174 1.61314 2.31411e-15)
(25.4503 2.01083 7.29403e-17)
(25.4148 2.38295 2.56983e-17)
(25.3039 2.72686 0)
(25.1196 3.03694 1.41762e-16)
(24.7794 3.31334 1.7633e-14)
(24.3639 3.45631 -9.41555e-18)
(23.218 3.46135 1.77409e-14)
(16.1539 17.5656 1.00884e-17)
(17.0501 18.3896 6.63454e-17)
(18.1129 19.2142 0)
(19.3037 19.987 -2.78624e-17)
(20.5779 20.6491 -1.23693e-16)
(21.9762 21.2082 0)
(23.4615 21.634 2.84886e-17)
(25.0032 21.9012 2.70881e-16)
(26.5936 21.9995 -5.06927e-16)
(28.2041 21.9173 1.50054e-16)
(29.8099 21.6466 3.08819e-16)
(31.3911 21.1841 1.27647e-15)
(32.9205 20.5308 9.46977e-16)
(34.3728 19.6908 1.24203e-15)
(35.7233 18.6731 3.31083e-16)
(36.9467 17.4909 1.13561e-15)
(38.0197 16.1615 1.55618e-15)
(38.9187 14.7108 1.43321e-15)
(39.6231 13.1687 -1.05309e-15)
(40.1182 11.5657 -3.26863e-15)
(40.3951 9.93657 0)
(40.4525 8.32148 8.64986e-17)
(40.2995 6.76271 1.20706e-15)
(39.9584 5.30028 1.25285e-15)
(39.4646 3.96443 -6.95047e-17)
(38.8603 2.75545 -4.70272e-16)
(38.1737 1.65181 3.1249e-18)
(37.4129 0.64462 -2.14351e-16)
(36.5825 -0.264419 2.15994e-17)
(35.6914 -1.07626 -1.99916e-15)
(34.7475 -1.79197 -8.07275e-18)
(33.7562 -2.41113 -2.00257e-17)
(32.7194 -2.93296 -4.93999e-16)
(31.6369 -3.35558 -5.94272e-17)
(30.4826 -3.67411 1.27821e-15)
(29.2448 -3.86971 9.46205e-15)
(27.7218 -3.91213 -6.78441e-15)
(26.0574 -3.60289 -8.22603e-15)
(22.5525 -3.08425 1.86215e-14)
(15.3672 16.708 -1.00729e-16)
(14.6416 15.7938 -3.46154e-16)
(13.9366 14.7026 -2.41896e-16)
(13.2663 13.4554 -5.6888e-16)
(12.7194 12.1094 1.25009e-15)
(12.3068 10.6615 -4.50254e-17)
(12.0575 9.15057 -4.90064e-15)
(11.9878 7.65759 -1.75912e-15)
(12.0955 6.23511 8.07532e-18)
(12.3697 4.905 0)
(12.7842 3.69412 -1.67575e-15)
(13.3115 2.62212 1.61878e-15)
(13.93 1.68787 -1.59004e-15)
(14.6173 0.886417 -8.07818e-16)
(15.3527 0.214256 7.33046e-16)
(16.1204 -0.338091 7.25244e-16)
(16.907 -0.779388 2.73611e-15)
(17.7008 -1.11868 -6.59743e-16)
(18.4941 -1.36457 -1.21338e-15)
(19.2818 -1.52429 0)
(20.06 -1.60189 -2.09691e-15)
(20.8247 -1.59858 -1.70054e-15)
(21.5697 -1.51251 -1.24084e-17)
(22.2822 -1.34162 -2.14535e-16)
(22.941 -1.09017 -9.48829e-17)
(23.526 -0.775112 1.56122e-15)
(24.0298 -0.415786 -4.21297e-17)
(24.4533 -0.0255178 3.69907e-16)
(24.797 0.384585 8.78967e-17)
(25.0611 0.803126 5.87676e-16)
(25.2479 1.21953 -9.81047e-18)
(25.3606 1.62491 -4.635e-15)
(25.4019 2.01246 -4.34299e-15)
(25.3742 2.37607 -4.33735e-15)
(25.2708 2.71231 -1.34018e-16)
(25.0934 3.01374 6.56003e-17)
(24.7643 3.27923 -1.6977e-14)
(24.3596 3.40219 -1.66411e-14)
(23.3064 3.38162 -1.63041e-14)
(17.069 16.6423 -3.59427e-17)
(17.8947 17.3907 -2.87247e-17)
(18.873 18.1426 -1.7349e-16)
(19.9653 18.8492 6.07731e-16)
(21.1275 19.4563 -2.40693e-16)
(22.4017 19.975 1.42519e-16)
(23.7538 20.3779 -8.82028e-17)
(25.1561 20.6423 0)
(26.6054 20.7598 1.44088e-16)
(28.0771 20.7192 7.692e-18)
(29.5511 20.5118 -2.33427e-16)
(31.012 20.1328 -1.14349e-15)
(32.4361 19.5801 -5.23953e-16)
(33.8007 18.8544 0)
(35.0833 17.9607 0)
(36.2591 16.908 0)
(37.304 15.7108 0)
(38.1964 14.3864 -1.39613e-15)
(38.9156 12.9572 1.38206e-15)
(39.4443 11.452 1.35005e-15)
(39.7705 9.90553 -1.05104e-15)
(39.889 8.35821 9.36936e-16)
(39.805 6.85246 -9.44845e-16)
(39.5362 5.42805 -6.74943e-17)
(39.1123 4.11433 -2.86755e-17)
(38.5693 2.91554 4.76202e-16)
(37.9343 1.81675 9.52118e-17)
(37.2179 0.810857 0)
(36.4255 -0.100078 0)
(35.5652 -0.915676 3.83191e-17)
(34.6438 -1.63631 0)
(33.6662 -2.26078 8.78373e-16)
(32.6349 -2.78754 -3.96049e-16)
(31.5529 -3.21389 1.71346e-16)
(30.4043 -3.53495 -2.43897e-15)
(29.2002 -3.73184 -4.56387e-15)
(27.7824 -3.78073 6.522e-15)
(26.379 -3.47645 1.60798e-14)
(23.4395 -3.01121 -1.79385e-14)
(16.3403 15.8644 0)
(15.6666 15.0383 1.02864e-16)
(15.0048 14.0504 4.52746e-16)
(14.3682 12.92 -1.96853e-15)
(13.8394 11.7017 1.66244e-15)
(13.4253 10.3897 -1.30818e-15)
(13.1527 9.01526 4.18553e-19)
(13.039 7.65218 1.3955e-15)
(13.0839 6.35058 1.44709e-15)
(13.277 5.12719 0)
(13.5969 4.00441 7.18373e-16)
(14.0214 2.99975 -2.18991e-15)
(14.5336 2.11143 3.57338e-15)
(15.1163 1.33576 6.83136e-16)
(15.753 0.671265 -1.38044e-15)
(16.4311 0.111772 -1.32779e-15)
(17.1387 -0.347866 -1.26708e-15)
(17.8651 -0.712977 0)
(18.6021 -0.988986 0)
(19.343 -1.1807 0)
(20.0822 -1.29086 1.96811e-15)
(20.8141 -1.32019 0)
(21.5315 -1.26733 -1.49206e-15)
(22.2217 -1.13129 -2.03494e-16)
(22.8649 -0.915844 -1.48907e-15)
(23.4419 -0.634868 -1.39018e-15)
(23.9434 -0.305887 0)
(24.3683 0.0577872 -3.11957e-16)
(24.7162 0.445004 -9.30088e-17)
(24.9867 0.844234 1.83659e-17)
(25.1808 1.24462 2.2429e-15)
(25.3015 1.63693 -1.68578e-17)
(25.351 2.01382 4.23342e-15)
(25.3313 2.36853 -4.13523e-15)
(25.2355 2.69681 0)
(25.0652 2.98947 -1.28573e-16)
(24.7479 3.24377 7.47505e-17)
(24.3558 3.34846 1.58244e-14)
(23.3884 3.30408 -1.14235e-16)
(17.8744 15.8154 3.74912e-17)
(18.6411 16.4978 0)
(19.5485 17.1854 3.53628e-16)
(20.5582 17.8322 -3.13059e-16)
(21.6271 18.3883 1.06187e-16)
(22.7975 18.8669 -1.34061e-16)
(24.0373 19.243 5.88355e-17)
(25.3214 19.4967 1.75661e-17)
(26.6497 19.6209 0)
(28.0007 19.6051 -1.72624e-16)
(29.3583 19.441 -1.98995e-16)
(30.7107 19.1226 1.95895e-16)
(32.0373 18.6462 9.30229e-16)
(33.319 18.0096 4.23545e-16)
(34.5351 17.2147 -1.27871e-15)
(35.6618 16.2672 -9.52834e-16)
(36.6763 15.1775 7.61273e-16)
(37.5562 13.9605 5.8213e-16)
(38.2793 12.6383 -2.87575e-16)
(38.8269 11.2371 2.87523e-16)
(39.1856 9.78799 7.45044e-16)
(39.3493 8.32683 1.35113e-16)
(39.3204 6.89216 -1.22472e-16)
(39.1131 5.52129 -7.92623e-16)
(38.7515 4.24234 0)
(38.2656 3.06297 -3.8709e-16)
(37.6802 1.97505 -1.7705e-16)
(37.0078 0.974533 -1.5076e-16)
(36.2551 0.0645302 -5.08503e-16)
(35.4299 -0.753055 1.69523e-15)
(34.5388 -1.47756 5.69058e-16)
(33.5862 -2.10705 -3.29146e-17)
(32.5729 -2.63902 3.83957e-17)
(31.501 -3.06968 0)
(30.3552 -3.39323 1.18482e-15)
(29.1523 -3.58887 0)
(27.7581 -3.63688 0)
(26.4669 -3.32407 -7.79956e-15)
(24.0235 -2.8935 1.18592e-16)
(17.1947 15.1064 -1.22247e-16)
(16.5651 14.3556 3.73224e-16)
(15.9407 13.4564 8.30385e-18)
(15.3347 12.4259 4.45202e-16)
(14.824 11.3163 -1.54068e-15)
(14.4126 10.1203 1.1617e-15)
(14.1253 8.86295 4.62164e-17)
(13.9802 7.61307 -1.19157e-15)
(13.978 6.41822 -1.18482e-15)
(14.1084 5.2908 -1.23371e-15)
(14.3536 4.25001 -2.49941e-15)
(14.695 3.31156 0)
(15.119 2.47253 -1.29627e-15)
(15.6121 1.72937 -2.68925e-17)
(16.1613 1.08173 0)
(16.7572 0.525221 -1.19639e-15)
(17.3899 0.0572298 -5.81523e-16)
(18.05 -0.324928 -5.62813e-16)
(18.7296 -0.62398 2.08811e-15)
(19.4216 -0.842417 1.96823e-15)
(20.1194 -0.981345 -2.25857e-16)
(20.8162 -1.04086 1.73362e-15)
(21.5039 -1.01959 3.97527e-16)
(22.1701 -0.916921 -1.93026e-16)
(22.7959 -0.736253 1.32308e-15)
(23.3627 -0.488899 8.57757e-17)
(23.8601 -0.190328 0)
(24.2849 0.146387 0)
(24.6358 0.51005 -1.77419e-17)
(24.9115 0.889241 5.20426e-17)
(25.1126 1.27287 -2.19784e-15)
(25.2409 1.6513 -1.63698e-17)
(25.2983 2.01678 4.26094e-15)
(25.2865 2.36191 3.97139e-15)
(25.1986 2.68153 1.24642e-16)
(25.0357 2.96486 2.87273e-18)
(24.7307 3.20755 3.06853e-14)
(24.3525 3.2953 -1.50432e-14)
(23.4672 3.22952 1.07318e-16)
(18.5859 15.0691 1.65463e-17)
(19.3013 15.6938 0)
(20.1471 16.3243 -1.73754e-16)
(21.0853 16.9177 0)
(22.0736 17.4279 1.93088e-16)
(23.1541 17.8692 -1.87558e-16)
(24.2963 18.2189 -1.039e-16)
(25.4772 18.4595 -1.65984e-17)
(26.6984 18.5851 0)
(27.9413 18.5866 -3.12919e-17)
(29.1927 18.4561 2.29665e-16)
(30.4439 18.1875 -4.7663e-16)
(31.6775 17.7759 -2.97792e-16)
(32.877 17.2178 -2.99564e-16)
(34.024 16.5126 8.14944e-16)
(35.0971 15.6633 9.12346e-16)
(36.0743 14.677 -1.00042e-15)
(36.9336 13.5659 -9.6909e-16)
(37.6539 12.3468 0)
(38.2152 11.0428 2.56076e-16)
(38.6028 9.68187 -4.95225e-16)
(38.8084 8.29802 1.23418e-16)
(38.8315 6.92797 4.974e-18)
(38.6824 5.60732 1.85872e-15)
(38.3804 4.36317 -9.83353e-17)
(37.95 3.20513 6.67655e-17)
(37.4138 2.1301 1.60668e-16)
(36.7851 1.13693 1.59683e-16)
(36.0718 0.229653 4.40587e-16)
(35.282 -0.588486 -7.70122e-16)
(34.4228 -1.31571 -5.2733e-16)
(33.4985 -1.9494 -1.46232e-15)
(32.51 -2.48627 5.91365e-16)
(31.4584 -2.92145 -2.67814e-18)
(30.3271 -3.24823 -1.22504e-15)
(29.1309 -3.44321 1.04698e-16)
(27.7447 -3.49 -7.68947e-17)
(26.4628 -3.16413 1.265e-16)
(24.376 -2.7432 -1.62357e-14)
(17.949 14.4203 7.02569e-17)
(17.3582 13.7345 -1.83048e-16)
(16.7673 12.912 3.55083e-16)
(16.1894 11.9678 0)
(15.6966 10.9525 9.26662e-16)
(15.2907 9.85637 0)
(14.995 8.70087 0)
(14.8275 7.5505 0)
(14.7896 6.45003 2.17231e-15)
(14.8714 5.40889 -1.09188e-15)
(15.0575 4.44381 1.18109e-15)
(15.3316 3.56885 0)
(15.6824 2.78006 0)
(16.0992 2.07348 -1.15995e-15)
(16.5718 1.44901 0)
(17.0932 0.903308 1.11271e-15)
(17.6559 0.435004 1.46382e-17)
(18.2521 0.0434279 0)
(18.8746 -0.271994 -1.47797e-15)
(19.5167 -0.511826 -2.31814e-15)
(20.1712 -0.675729 -1.73043e-15)
(20.8308 -0.7628 -1.62385e-15)
(21.4871 -0.77123 3.03509e-15)
(22.1278 -0.700405 0)
(22.7345 -0.553155 1.26846e-15)
(23.289 -0.338592 1.36211e-15)
(23.7802 -0.07029 6.08596e-16)
(24.2036 0.239282 0)
(24.5562 0.57896 -6.97122e-17)
(24.8363 0.937428 -5.38749e-16)
(25.0435 1.30361 2.08852e-15)
(25.1791 1.66752 -1.58541e-17)
(25.2442 2.02088 -3.91446e-15)
(25.2402 2.35584 3.68472e-15)
(25.1603 2.66629 -1.35242e-18)
(25.0054 2.93992 1.16066e-16)
(24.7134 3.17064 -2.94122e-14)
(24.3501 3.24305 1.41123e-14)
(23.5435 3.15853 2.67456e-14)
(19.2191 14.3903 1.26106e-17)
(19.8895 14.9639 -5.50714e-17)
(20.6815 15.5436 0)
(21.5575 16.0888 -2.82839e-16)
(22.4758 16.557 0)
(23.4783 16.9631 0)
(24.5356 17.2867 1.73511e-17)
(25.6263 17.512 -4.39571e-17)
(26.7534 17.6345 -1.80157e-17)
(27.9002 17.6462 2.34093e-16)
(29.0563 17.54 1.92029e-16)
(30.2151 17.3098 2.95356e-16)
(31.362 16.9506 0)
(32.4832 16.4575 7.82859e-16)
(33.5629 15.8285 -2.91445e-16)
(34.5815 15.0641 0)
(35.5185 14.1691 7.58515e-16)
(36.3531 13.1527 9.29423e-16)
(37.0645 12.0287 0)
(37.6323 10.8179 8.64146e-16)
(38.0406 9.5453 -8.46923e-16)
(38.2798 8.24136 0)
(38.3473 6.93983 -9.89281e-17)
(38.25 5.67403 -6.31235e-19)
(38.0028 4.4697 4.59935e-17)
(37.6254 3.33791 6.50169e-16)
(37.1374 2.27966 -4.02717e-18)
(36.5522 1.29676 -1.46462e-17)
(35.8783 0.394556 -9.477e-18)
(35.124 -0.422378 2.41613e-17)
(34.2966 -1.15101 4.89138e-16)
(33.4012 -1.78787 1.25211e-15)
(32.4389 -2.3289 -2.38008e-17)
(31.4111 -2.76826 3.53586e-16)
(30.3017 -3.09847 1.08626e-15)
(29.1228 -3.29364 4.06374e-15)
(27.7581 -3.34029 5.70204e-15)
(26.4561 -3.00608 -2.1131e-16)
(24.5921 -2.57571 1.53113e-14)
(18.6198 13.7946 -1.4332e-16)
(18.0633 13.1658 -4.873e-16)
(17.5026 12.4104 9.3746e-16)
(16.9507 11.5418 0)
(16.4755 10.6089 1.62618e-15)
(16.0768 9.59998 0)
(15.7771 8.53374 -9.01053e-16)
(15.5941 7.47159 3.61159e-15)
(15.5292 6.45497 -2.7776e-15)
(15.5731 5.49153 0)
(15.7119 4.59601 2.0232e-15)
(15.9314 3.78094 2.02268e-15)
(16.2216 3.04154 0)
(16.5737 2.37359 -2.05686e-15)
(16.9797 1.77664 5.10704e-16)
(17.4345 1.24737 -5.10641e-16)
(17.9326 0.785275 5.05317e-16)
(18.4681 0.390921 9.47502e-16)
(19.0349 0.06515 -1.4909e-17)
(19.6269 -0.190979 1.27722e-15)
(20.2371 -0.3757 4.05508e-16)
(20.8582 -0.487138 -3.90976e-16)
(21.4816 -0.522985 -1.43438e-15)
(22.095 -0.482184 1.354e-15)
(22.681 -0.366768 -1.12263e-15)
(23.2214 -0.184021 -1.37104e-15)
(23.7047 0.0543444 -5.78478e-16)
(24.1248 0.33663 -8.52066e-18)
(24.478 0.651952 7.50275e-17)
(24.7615 0.989165 5.14862e-16)
(24.9741 1.3372 8.35285e-18)
(25.1165 1.6859 -1.53023e-17)
(25.1892 2.02651 3.94144e-15)
(25.1928 2.35062 -3.78649e-15)
(25.121 2.6513 1.16294e-16)
(24.9744 2.91483 -7.35369e-15)
(24.6964 3.13338 1.41645e-14)
(24.3488 3.19187 0)
(23.6173 3.09088 -2.56349e-14)
(19.7853 13.7693 2.8799e-17)
(20.4159 14.2973 0)
(21.1601 14.8313 0)
(21.981 15.333 5.1123e-16)
(22.8378 15.7629 -1.93009e-17)
(23.7716 16.1364 0)
(24.754 16.4349 0)
(25.7649 16.6442 2.68361e-16)
(26.8084 16.761 -4.13573e-17)
(27.8696 16.7784 -4.86543e-17)
(28.9393 16.6901 -4.07971e-16)
(30.0135 16.4904 -1.81411e-16)
(31.0797 16.1743 3.08923e-16)
(32.1265 15.7366 -7.41359e-17)
(33.1403 15.1739 0)
(34.1037 14.4854 0)
(34.9982 13.6735 -2.0073e-15)
(35.8039 12.7449 -3.86731e-16)
(36.501 11.7107 3.87184e-16)
(37.0697 10.588 -8.38047e-16)
(37.4931 9.39922 1.56694e-15)
(37.7602 8.17207 7.25925e-16)
(37.8665 6.93756 -6.94924e-16)
(37.8159 5.72699 -7.9075e-16)
(37.6194 4.56471 1.20677e-16)
(37.2926 3.46226 -6.2364e-16)
(36.8517 2.42373 -6.75313e-17)
(36.3099 1.45368 1.3217e-17)
(35.6757 0.55871 -1.32136e-17)
(34.9574 -0.25522 3.35047e-17)
(34.1623 -0.983829 -4.04865e-17)
(33.296 -1.62278 -6.01626e-16)
(32.3602 -2.16711 -3.78605e-17)
(31.3569 -2.61007 5.6566e-17)
(30.2716 -2.94344 0)
(29.115 -3.13933 -3.80299e-15)
(27.784 -3.18588 -5.29794e-15)
(26.475 -2.85077 0)
(24.7489 -2.40236 0)
(19.2197 13.2207 0)
(18.6938 12.6423 4.50481e-16)
(18.1608 11.9462 -1.4388e-15)
(17.6329 11.1444 -6.56862e-16)
(17.1748 10.284 -1.50865e-15)
(16.7847 9.35215 0)
(16.4842 8.36491 0)
(16.2907 7.38126 -1.62166e-15)
(16.2053 6.43981 1.68152e-15)
(16.2196 5.5464 0)
(16.3207 4.71435 -8.91495e-16)
(16.4956 3.95536 -9.46566e-16)
(16.7355 3.26391 9.32361e-16)
(17.0329 2.63497 9.62829e-16)
(17.3812 2.06784 -1.86403e-15)
(17.777 1.55913 0)
(18.2163 1.10833 -4.47752e-16)
(18.6949 0.716737 1.15831e-17)
(19.2082 0.386085 2.10404e-15)
(19.7508 0.118528 -4.08129e-16)
(20.3164 -0.0829451 3.96866e-16)
(20.8981 -0.215503 -3.52699e-16)
(21.4873 -0.276198 5.12722e-16)
(22.0723 -0.263393 -2.7282e-15)
(22.6358 -0.178145 -1.07308e-15)
(23.1604 -0.0260203 1.08827e-15)
(23.634 0.182999 -7.11993e-17)
(24.0493 0.438106 0)
(24.4016 0.728827 -6.44963e-17)
(24.6875 1.04436 4.69548e-16)
(24.9048 1.37367 -9.37964e-16)
(25.0534 1.70647 1.90674e-15)
(25.1332 2.03366 -7.59859e-15)
(25.1447 2.34634 7.50391e-15)
(25.0812 2.63665 -1.1143e-16)
(24.9431 2.88973 6.96099e-15)
(24.6797 3.09588 2.1786e-16)
(24.3488 3.142 -4.07955e-16)