/*--------------------------------*- C++ -*----------------------------------*\
| =========                 |                                                 |
| \\      /  F ield         | OpenFOAM: The Open Source CFD Toolbox           |
|  \\    /   O peration     | Version:  3.0.0                                 |
|   \\  /    A nd           | Web:      www.OpenFOAM.org                      |
|    \\/     M anipulation  |                                                 |
\*---------------------------------------------------------------------------*/
FoamFile
{
    version     2.0;
    format      ascii;
    class       volScalarField;
    location    "0.5";
    object      k;
}
// * * * * * * * * * * * * * * * * * * * * * * * * * * * * * * * * * * * * * //

dimensions      [0 2 -2 0 0 0 0];

internalField   nonuniform List<scalar> 
400
(
1.14572e-05
3.30241e-05
5.532e-05
6.96155e-05
7.83898e-05
8.4129e-05
8.83097e-05
9.1675e-05
9.45332e-05
9.69337e-05
9.87205e-05
0.000100079
0.000100913
0.000100263
9.72807e-05
9.08169e-05
7.92475e-05
6.06434e-05
3.4163e-05
1.16357e-05
3.37386e-05
0.000403903
0.000679746
0.000829121
0.000913423
0.00096454
0.000999144
0.00102563
0.00104781
0.00106684
0.00108152
0.00108843
0.00108703
0.00107393
0.00104277
0.000982909
0.000877255
0.000697313
0.000390902
3.32299e-05
6.06263e-05
0.000711692
0.00120598
0.00147183
0.00162498
0.001718
0.00177736
0.00181703
0.00184418
0.00186181
0.00187008
0.00186871
0.00185386
0.00182008
0.00175785
0.00165126
0.00147292
0.0011713
0.00064041
5.46768e-05
8.18681e-05
0.000901813
0.0015114
0.0018313
0.00201475
0.00212649
0.00219708
0.00224232
0.00227056
0.0022852
0.00228853
0.00227931
0.00225404
0.00220662
0.0021265
0.0019954
0.00177998
0.00141311
0.000755407
6.75997e-05
9.83473e-05
0.00102537
0.00170181
0.0020489
0.0022452
0.00236415
0.00243883
0.0024858
0.00251356
0.00252591
0.00252577
0.00251137
0.00247953
0.00242392
0.00233326
0.00218739
0.001948
0.00153624
0.000795466
7.48734e-05
0.000111696
0.00110956
0.00182751
0.00218992
0.00239196
0.00251324
0.00258879
0.0026357
0.00266241
0.00267317
0.00267051
0.00265279
0.00261672
0.00255566
0.00245751
0.0023001
0.00204064
0.00159085
0.000794814
7.93544e-05
0.000123257
0.00117014
0.00191475
0.00228621
0.00249073
0.00261222
0.0026872
0.0027332
0.00275866
0.00276807
0.00276358
0.00274357
0.00270451
0.00263929
0.00253474
0.00236646
0.00208696
0.00160268
0.000766763
8.27765e-05
0.000134017
0.00121662
0.0019784
0.00235486
0.00255992
0.00268045
0.00275405
0.00279863
0.00282266
0.00283076
0.00282477
0.00280299
0.00276158
0.00269277
0.0025821
0.0024024
0.00210173
0.00158438
0.000715783
8.60543e-05
0.000144685
0.00125485
0.00202712
0.00240541
0.00260942
0.00272804
0.00279964
0.00284236
0.00286467
0.00287138
0.00286395
0.00284057
0.00279703
0.00272476
0.00260761
0.00241546
0.00209204
0.00153583
0.000640194
8.99546e-05
0.000155777
0.00128838
0.00206583
0.00244308
0.00264443
0.00276016
0.00282909
0.00286949
0.00288974
0.00289484
0.00288582
0.00286074
0.00281493
0.0027389
0.00261471
0.00240833
0.00205566
0.00145009
0.000533574
9.59293e-05
0.00016768
0.00131926
0.00209702
0.00247027
0.00266718
0.00277895
0.00284455
0.0028821
0.00289993
0.00290313
0.00289219
0.00286503
0.00281645
0.00273591
0.00260284
0.00237741
0.00198367
0.00129794
0.000397336
0.000110893
0.000180707
0.00134841
0.00212133
0.00248726
0.00267774
0.00278444
0.00284611
0.00288046
0.00289562
0.00289665
0.00288335
0.00285341
0.00280096
0.00271396
0.00256832
0.00231507
0.00185771
0.00104812
0.00029825
0.000171339
0.000195124
0.0013761
0.00213781
0.00249239
0.00267468
0.00277571
0.00283315
0.0028639
0.00287606
0.00287443
0.00285816
0.00282449
0.00276659
0.00267025
0.00250598
0.00221081
0.00165822
0.000726382
0.00031507
0.000399887
0.000211188
0.00140057
0.00214333
0.00248333
0.00265558
0.00274957
0.00280221
0.00282925
0.00283866
0.00283432
0.00281487
0.00277684
0.00271196
0.00260289
0.00241249
0.00205804
0.00136745
0.000613081
0.000537621
0.000963044
0.000229326
0.00142184
0.00213415
0.00245428
0.00261408
0.00270132
0.00275012
0.00277437
0.00278174
0.00277526
0.00275318
0.00271123
0.00263937
0.00251633
0.00229655
0.00188293
0.00113225
0.000712765
0.0010289
0.00177997
0.000249808
0.00143121
0.00210253
0.00239675
0.00254587
0.00262908
0.00267646
0.00270025
0.00270762
0.00270141
0.00267975
0.00263797
0.0025646
0.00243483
0.00219725
0.00175377
0.00109709
0.00090746
0.00166034
0.00257544
0.000270818
0.00142651
0.0020362
0.002311
0.00245968
0.00254826
0.00260249
0.00263428
0.0026495
0.00265239
0.00264188
0.00261431
0.00255887
0.0024495
0.00223107
0.00181827
0.00128477
0.00124112
0.00237389
0.00338873
0.000316048
0.00139276
0.0019883
0.0022945
0.00247992
0.00259973
0.00268526
0.00274991
0.00279972
0.00283816
0.00286603
0.00288233
0.00288014
0.00284012
0.00270793
0.00241859
0.00200339
0.00197436
0.00325458
0.0044611
0.000335149
0.00150303
0.00236494
0.00289258
0.00323907
0.00348806
0.00368733
0.00386032
0.00401678
0.00416081
0.00429229
0.00441243
0.00451111
0.00459395
0.00459312
0.00451182
0.00436058
0.00430694
0.00520735
0.00609658
0.00259889
0.00516993
0.00676394
0.00761792
0.00818031
0.00854674
0.00877779
0.008915
0.00899324
0.00904474
0.00908649
0.00913434
0.00917505
0.00921601
0.00924117
0.00925182
0.00928949
0.00935522
0.00964211
0.00807752
)
;

boundaryField
{
    movingWall
    {
        type            kqRWallFunction;
        value           nonuniform List<scalar> 
20
(
0.00259889
0.00516993
0.00676394
0.00761792
0.00818031
0.00854674
0.00877779
0.008915
0.00899324
0.00904474
0.00908649
0.00913434
0.00917505
0.00921601
0.00924117
0.00925182
0.00928949
0.00935522
0.00964211
0.00807752
)
;
    }
    fixedWalls
    {
        type            kqRWallFunction;
        value           nonuniform List<scalar> 
60
(
1.14572e-05
3.37386e-05
6.06263e-05
8.18681e-05
9.83473e-05
0.000111696
0.000123257
0.000134017
0.000144685
0.000155777
0.00016768
0.000180707
0.000195124
0.000211188
0.000229326
0.000249808
0.000270818
0.000316048
0.000335149
0.00259889
1.16357e-05
3.32299e-05
5.46768e-05
6.75997e-05
7.48734e-05
7.93544e-05
8.27765e-05
8.60543e-05
8.99546e-05
9.59293e-05
0.000110893
0.000171339
0.000399887
0.000963044
0.00177997
0.00257544
0.00338873
0.0044611
0.00609658
0.00807752
1.14572e-05
3.30241e-05
5.532e-05
6.96155e-05
7.83898e-05
8.4129e-05
8.83097e-05
9.1675e-05
9.45332e-05
9.69337e-05
9.87205e-05
0.000100079
0.000100913
0.000100263
9.72807e-05
9.08169e-05
7.92475e-05
6.06434e-05
3.4163e-05
1.16357e-05
)
;
    }
    frontAndBack
    {
        type            empty;
    }
}


// ************************************************************************* //
