/*--------------------------------*- C++ -*----------------------------------*\
| =========                 |                                                 |
| \\      /  F ield         | OpenFOAM: The Open Source CFD Toolbox           |
|  \\    /   O peration     | Version:  3.0.0                                 |
|   \\  /    A nd           | Web:      www.OpenFOAM.org                      |
|    \\/     M anipulation  |                                                 |
\*---------------------------------------------------------------------------*/
FoamFile
{
    version     2.0;
    format      ascii;
    class       volScalarField;
    location    "0.5";
    object      nut;
}
// * * * * * * * * * * * * * * * * * * * * * * * * * * * * * * * * * * * * * //

dimensions      [0 2 -1 0 0 0 0];

internalField   nonuniform List<scalar> 
400
(
8.94056e-08
2.57156e-07
4.2984e-07
5.4017e-07
6.07741e-07
6.51879e-07
6.84002e-07
7.09841e-07
7.31775e-07
7.50188e-07
7.63888e-07
7.74297e-07
7.80692e-07
7.75708e-07
7.52851e-07
7.0326e-07
6.14348e-07
4.70964e-07
2.65995e-07
9.07967e-08
2.62702e-07
1.08708e-05
2.22143e-05
2.79261e-05
3.10807e-05
3.30787e-05
3.4567e-05
3.58515e-05
3.70639e-05
3.82285e-05
3.92446e-05
3.98113e-05
3.985e-05
3.93634e-05
3.80719e-05
3.55335e-05
3.10541e-05
2.33953e-05
1.02812e-05
2.58754e-07
4.7083e-07
2.39968e-05
6.52558e-05
9.39498e-05
0.00011209
0.000123939
0.000132145
0.00013817
0.00014276
0.000146162
0.000148171
0.000148474
0.000146491
0.000141597
0.00013263
0.000117914
9.51607e-05
6.1665e-05
1.98127e-05
4.24868e-07
6.34501e-07
3.21482e-05
9.98924e-05
0.000159978
0.000204443
0.000236005
0.000258316
0.000274037
0.000284767
0.000291007
0.000292986
0.000290069
0.000281029
0.000264396
0.000238163
0.00020013
0.000148692
8.52936e-05
2.34023e-05
5.24629e-07
7.61025e-07
3.76005e-05
0.000125111
0.000215059
0.000290129
0.000347863
0.000390379
0.000420336
0.000439626
0.0004489
0.000449203
0.000439173
0.000417374
0.000382005
0.000331319
0.000264585
0.000183807
9.68183e-05
2.40824e-05
5.80672e-07
8.63225e-07
4.14743e-05
0.000143638
0.000258729
0.000363202
0.000448775
0.000514258
0.000560867
0.000589774
0.000601856
0.000598435
0.000577913
0.000539104
0.000480897
0.000403235
0.00030849
0.000203268
0.000100623
2.3293e-05
6.1516e-07
9.51536e-07
4.43683e-05
0.000157513
0.000292635
0.000422424
0.00053362
0.00062123
0.000684149
0.000722061
0.000735963
0.000727086
0.000694072
0.000636561
0.000555029
0.000452011
0.000333571
0.000210671
9.93157e-05
2.15682e-05
6.41478e-07
1.03356e-06
4.6652e-05
0.000168132
0.000318604
0.00046842
0.000600535
0.00070657
0.000782984
0.00082771
0.000841881
0.000826437
0.000780602
0.00070522
0.000602773
0.000478692
0.000342756
0.000208847
9.4205e-05
1.91114e-05
6.66674e-07
1.11472e-06
4.85621e-05
0.000176419
0.000338101
0.000502276
0.000649221
0.000768086
0.00085337
0.000901604
0.000914265
0.00089189
0.000834451
0.000744032
0.000625088
0.000485785
0.00033848
0.000199197
8.56236e-05
1.59628e-05
6.96635e-07
1.19893e-06
5.02466e-05
0.000182935
0.00035206
0.000524804
0.000679749
0.000804751
0.000893203
0.00094109
0.000950572
0.000921689
0.000855168
0.000754026
0.0006241
0.000475363
0.000322235
0.000182255
7.35488e-05
1.21212e-05
7.425e-07
1.28909e-06
5.17903e-05
0.000187937
0.000360825
0.000536154
0.000691804
0.000815679
0.000901196
0.00094485
0.000949948
0.000915858
0.000843798
0.000737041
0.000601941
0.000449373
0.000295125
0.000158262
5.74277e-05
7.923e-06
8.57196e-07
1.38755e-06
5.32234e-05
0.000191398
0.000364091
0.000535859
0.00068492
0.000800501
0.00087728
0.000913328
0.000913151
0.000875606
0.000802119
0.000695426
0.00056121
0.000410079
0.000258644
0.000127989
3.82746e-05
4.97854e-06
1.31759e-06
1.49623e-06
5.4547e-05
0.000193015
0.000361333
0.000522738
0.000657149
0.000756893
0.000819239
0.00084522
0.000839651
0.000801574
0.000731886
0.000631842
0.000505134
0.000360793
0.000215824
9.45787e-05
2.08025e-05
4.27101e-06
3.0155e-06
1.61698e-06
5.56493e-05
0.000192285
0.000350613
0.000493462
0.000605051
0.000682465
0.000726604
0.000741641
0.00073172
0.000696518
0.000636003
0.000549509
0.00043772
0.00030655
0.000172466
6.35975e-05
1.40079e-05
6.39923e-06
6.93049e-06
1.75288e-06
5.65301e-05
0.000188012
0.000328932
0.000444469
0.000526401
0.000577214
0.00060183
0.000606433
0.000593928
0.000564734
0.000518087
0.000451699
0.000363099
0.000253753
0.000137522
4.597e-05
1.51279e-05
1.19866e-05
1.20276e-05
1.90579e-06
5.66544e-05
0.000177923
0.000291682
0.000371727
0.000419765
0.00044394
0.000451617
0.000447977
0.000435382
0.000414373
0.000384072
0.000341849
0.000283548
0.000206039
0.000115675
4.32178e-05
2.02032e-05
2.0305e-05
1.64621e-05
2.06202e-06
5.58814e-05
0.000157609
0.000233016
0.000273574
0.000291013
0.000295687
0.000292917
0.000285893
0.000276096
0.000263778
0.000248467
0.00022857
0.00020073
0.000160105
0.0001046
5.17448e-05
3.02422e-05
3.05148e-05
2.05918e-05
2.39633e-06
5.13717e-05
0.000120209
0.000153304
0.000164209
0.000165179
0.000162477
0.000158361
0.000153703
0.000148813
0.000143762
0.000138483
0.000132635
0.000124995
0.000113018
9.29943e-05
6.62238e-05
4.63194e-05
4.20439e-05
2.55378e-05
2.53679e-06
3.92012e-05
6.68079e-05
7.58952e-05
7.84236e-05
7.89576e-05
7.88523e-05
7.86281e-05
7.83877e-05
7.80933e-05
7.77199e-05
7.72838e-05
7.68396e-05
7.63142e-05
7.50481e-05
7.24498e-05
6.56664e-05
5.39767e-05
4.50752e-05
3.22473e-05
1.65579e-05
2.85479e-05
3.47659e-05
3.78226e-05
3.97501e-05
4.09744e-05
4.17351e-05
4.21823e-05
4.24331e-05
4.25932e-05
4.27184e-05
4.28624e-05
4.29848e-05
4.31092e-05
4.31879e-05
4.32208e-05
4.33394e-05
4.35483e-05
4.44511e-05
3.93883e-05
)
;

boundaryField
{
    movingWall
    {
        type            nutkWallFunction;
        Cmu             0.09;
        kappa           0.41;
        E               9.8;
        value           nonuniform List<scalar> 
20
(
0
0
0
2.87293e-07
5.81146e-07
7.66382e-07
8.80834e-07
9.47981e-07
9.86008e-07
1.01093e-06
1.03108e-06
1.0541e-06
1.07363e-06
1.09324e-06
1.10525e-06
1.11033e-06
1.12827e-06
1.15949e-06
1.29425e-06
5.2833e-07
)
;
    }
    fixedWalls
    {
        type            nutkWallFunction;
        Cmu             0.09;
        kappa           0.41;
        E               9.8;
        value           nonuniform List<scalar> 
60
(
0
0
0
0
0
0
0
0
0
0
0
0
0
0
0
0
0
0
0
0
0
0
0
0
0
0
0
0
0
0
0
0
0
0
0
0
0
0
0
5.2833e-07
0
0
0
0
0
0
0
0
0
0
0
0
0
0
0
0
0
0
0
0
)
;
    }
    frontAndBack
    {
        type            empty;
    }
}


// ************************************************************************* //
