/*--------------------------------*- C++ -*----------------------------------*\
| =========                 |                                                 |
| \\      /  F ield         | OpenFOAM: The Open Source CFD Toolbox           |
|  \\    /   O peration     | Version:  3.0.0                                 |
|   \\  /    A nd           | Web:      www.OpenFOAM.org                      |
|    \\/     M anipulation  |                                                 |
\*---------------------------------------------------------------------------*/
FoamFile
{
    version     2.0;
    format      ascii;
    class       volScalarField;
    location    "0.5";
    object      omega;
}
// * * * * * * * * * * * * * * * * * * * * * * * * * * * * * * * * * * * * * //

dimensions      [0 0 -1 0 0 0 0];

internalField   nonuniform List<scalar> 
400
(
128.149
128.42
128.699
128.877
128.986
129.056
129.107
129.149
129.183
129.213
129.234
129.251
129.261
129.253
129.216
129.137
128.994
128.764
128.434
128.151
128.429
37.1549
30.5995
29.6898
29.3888
29.1589
28.9046
28.6076
28.2705
27.907
27.5584
27.3399
27.2781
27.2824
27.3894
27.6615
28.2492
29.8057
38.0212
128.423
128.765
29.6578
18.4808
15.6661
14.4971
13.8617
13.4501
13.1507
12.918
12.738
12.6211
12.5861
12.6551
12.8539
13.2538
14.0039
15.4783
18.9946
32.3232
128.691
129.027
28.0517
15.1303
11.4472
9.85479
9.01037
8.5054
8.18254
7.9734
7.85272
7.81105
7.85784
8.02067
8.34589
8.92878
9.9705
11.9709
16.5675
32.2791
128.852
129.23
27.2702
13.6024
9.52715
7.73862
6.79621
6.24732
5.91384
5.71749
5.62689
5.62278
5.71841
5.9408
6.34524
7.04235
8.26727
10.598
15.8672
33.031
128.943
129.393
26.7529
12.7231
8.46416
6.58575
5.60022
5.03402
4.69933
4.5143
4.44154
4.46249
4.59029
4.85384
5.31436
6.09447
7.45598
10.0392
15.81
34.1224
128.998
129.534
26.3732
12.1561
7.8125
5.89629
4.89528
4.32561
3.99503
3.82054
3.76115
3.8009
3.95285
4.24863
4.75523
5.60769
7.09434
9.90624
16.1372
35.5506
129.04
129.665
26.0786
11.7669
7.39118
5.46501
4.46343
3.89778
3.57432
3.4102
3.36243
3.41801
3.59081
3.91591
4.46731
5.39407
7.00908
10.0635
16.8184
37.4531
129.08
129.795
25.8401
11.4903
7.11449
5.1952
4.20202
3.64495
3.33075
3.1773
3.14064
3.2111
3.40412
3.75928
4.359
5.36783
7.1362
10.5024
17.937
40.1055
129.127
129.93
25.6411
11.2927
6.93938
5.03889
4.06056
3.51549
3.21258
3.07063
3.04537
3.13101
3.34523
3.7332
4.38855
5.50044
7.47382
11.2791
19.716
44.0198
129.198
130.075
25.4731
11.1581
6.84615
4.97465
4.01696
3.48734
3.19809
3.0692
3.0561
3.15791
3.39539
3.82129
4.54514
5.79216
8.05562
12.5341
22.6013
50.1497
129.367
130.234
25.3349
11.0834
6.83142
4.9971
4.06534
3.55542
3.2834
3.17041
3.17215
3.29298
3.55734
4.0277
4.83592
6.26299
8.95081
14.5146
27.3842
59.907
130.04
130.41
25.2277
11.0758
6.89776
5.11668
4.22387
3.74314
3.4958
3.40274
3.42336
3.56568
3.8592
4.37861
5.28623
6.94574
10.2436
17.5327
34.9181
73.7695
132.611
130.607
25.1678
11.1466
7.08283
5.38153
4.54436
4.10601
3.8938
3.82754
3.8735
4.04135
4.36607
4.93524
5.94647
7.86979
11.933
21.5017
43.7669
84.0134
138.958
130.828
25.152
11.3511
7.46136
5.88135
5.13168
4.76446
4.60989
4.58706
4.67272
4.87518
5.23315
5.84321
6.93013
9.05033
13.6918
24.6303
47.1161
85.8368
147.991
131.079
25.262
11.8171
8.21699
6.84875
6.26322
6.02888
5.97908
6.0441
6.2047
6.46699
6.86842
7.50215
8.58703
10.6642
15.1612
25.385
44.9166
81.7701
156.446
131.336
25.5275
12.9192
9.91779
8.99089
8.75653
8.80149
8.99328
9.26745
9.60678
10.0155
10.5217
11.1951
12.203
13.9351
17.3832
24.829
41.0393
77.7947
164.567
131.889
27.1113
16.5404
14.967
15.1022
15.7389
16.527
17.3648
18.2151
19.0719
19.9358
20.8136
21.7148
22.7219
23.9602
26.008
30.2518
42.625
77.409
174.686
132.115
38.3414
35.3991
38.1128
41.3022
44.1763
46.7625
49.0959
51.2424
53.2801
55.2277
57.0938
58.7082
60.1979
61.2023
62.2751
66.4051
79.7925
115.526
189.057
156.958
181.097
194.557
201.412
205.793
208.587
210.321
211.344
211.939
212.352
212.707
213.108
213.449
213.783
213.976
214.059
214.343
214.824
216.915
205.074
)
;

boundaryField
{
    movingWall
    {
        Cmu             0.09;
        kappa           0.41;
        E               9.8;
        beta1           0.075;
        type            omegaWallFunction;
        value           nonuniform List<scalar> 
20
(
156.958
181.097
194.557
201.412
205.793
208.587
210.321
211.344
211.939
212.352
212.707
213.108
213.449
213.783
213.976
214.059
214.343
214.824
216.915
205.074
)
;
    }
    fixedWalls
    {
        Cmu             0.09;
        kappa           0.41;
        E               9.8;
        beta1           0.075;
        type            omegaWallFunction;
        value           nonuniform List<scalar> 
60
(
128.149
128.429
128.765
129.027
129.23
129.393
129.534
129.665
129.795
129.93
130.075
130.234
130.41
130.607
130.828
131.079
131.336
131.889
132.115
156.958
128.151
128.423
128.691
128.852
128.943
128.998
129.04
129.08
129.127
129.198
129.367
130.04
132.611
138.958
147.991
156.446
164.567
174.686
189.057
205.074
128.149
128.42
128.699
128.877
128.986
129.056
129.107
129.149
129.183
129.213
129.234
129.251
129.261
129.253
129.216
129.137
128.994
128.764
128.434
128.151
)
;
    }
    frontAndBack
    {
        type            empty;
    }
}


// ************************************************************************* //
