/*--------------------------------*- C++ -*----------------------------------*\
| =========                 |                                                 |
| \\      /  F ield         | OpenFOAM: The Open Source CFD Toolbox           |
|  \\    /   O peration     | Version:  3.0.0                                 |
|   \\  /    A nd           | Web:      www.OpenFOAM.org                      |
|    \\/     M anipulation  |                                                 |
\*---------------------------------------------------------------------------*/
FoamFile
{
    version     2.0;
    format      ascii;
    class       volScalarField;
    location    "0.5";
    object      p;
}
// * * * * * * * * * * * * * * * * * * * * * * * * * * * * * * * * * * * * * //

dimensions      [0 2 -2 0 0 0 0];

internalField   nonuniform List<scalar> 
400
(
5.58137e-07
-4.79107e-06
-1.55592e-05
-2.40279e-05
-2.83837e-05
-2.61103e-05
-1.56705e-05
3.81121e-06
3.25736e-05
7.01182e-05
0.00011549
0.000167029
0.000222227
0.000278083
0.000331243
0.000378198
0.000415908
0.000442576
0.000458196
0.000465397
5.91258e-06
2.3856e-07
-9.73814e-06
-1.83592e-05
-2.29404e-05
-2.13362e-05
-1.19888e-05
6.0431e-06
3.30684e-05
6.87669e-05
0.000112304
0.000162142
0.00021592
0.000270979
0.000324182
0.000372315
0.000412436
0.000442212
0.000461164
0.00047078
1.63306e-05
8.69453e-06
-2.69117e-06
-1.1553e-05
-1.53736e-05
-1.36045e-05
-5.36707e-06
1.03278e-05
3.41019e-05
6.60692e-05
0.00010581
0.000152207
0.000203706
0.000258308
0.000313742
0.000367371
0.000415534
0.000453084
0.000477799
0.000490626
2.51665e-05
1.46587e-05
-1.30395e-06
-1.28265e-05
-1.62339e-05
-1.32851e-05
-4.89975e-06
9.36709e-06
3.03828e-05
5.88996e-05
9.52665e-05
0.000139366
0.000190825
0.000248866
0.000312193
0.000377995
0.000439915
0.000488084
0.000519239
0.000535438
2.83179e-05
1.37668e-05
-1.03762e-05
-2.91659e-05
-3.53308e-05
-3.1981e-05
-2.23614e-05
-7.35797e-06
1.36866e-05
4.20021e-05
7.88377e-05
0.000125373
0.000182642
0.00025108
0.00032972
0.000414149
0.000493731
0.000554075
0.000592943
0.000613582
2.11043e-05
1.78608e-06
-3.2869e-05
-6.29043e-05
-7.57637e-05
-7.41693e-05
-6.31916e-05
-4.53853e-05
-2.08102e-05
1.18272e-05
5.45092e-05
0.000109678
0.000179652
0.000265734
0.000366607
0.000475455
0.000577235
0.000654155
0.000705419
0.000732824
-8.86718e-07
-2.54704e-05
-7.19033e-05
-0.00011568
-0.000138295
-0.000140674
-0.000128755
-0.000106585
-7.52541e-05
-3.38578e-05
1.99471e-05
8.95713e-05
0.00017837
0.000288267
0.000417514
0.000557133
0.000688396
0.000790615
0.000863372
0.000900528
-4.16267e-05
-7.1912e-05
-0.000130851
-0.000189589
-0.000223552
-0.000231161
-0.000218477
-0.000190699
-0.000150084
-9.65009e-05
-2.76349e-05
6.056e-05
0.000172333
0.000310474
0.000473476
0.000651394
0.000822801
0.000963601
0.00107356
0.00112383
-0.000104657
-0.000141067
-0.000212954
-0.000286826
-0.000332127
-0.000344756
-0.000330698
-0.000296159
-0.000244658
-0.000177117
-9.15231e-05
1.66159e-05
0.000152569
0.000320734
0.000521416
0.000745897
0.000971768
0.00117077
0.00133916
0.00140925
-0.000193124
-0.000236083
-0.000321097
-0.000409247
-0.000464204
-0.000479982
-0.000462962
-0.000420561
-0.000357729
-0.000276575
-0.000175493
-4.95474e-05
0.000107918
0.000303752
0.000542834
0.00082048
0.0011166
0.00140022
0.00165731
0.00175868
-0.000309895
-0.000359781
-0.000457694
-0.000558017
-0.000619102
-0.000634459
-0.000611991
-0.000560888
-0.000487732
-0.000395735
-0.000283617
-0.000145996
2.53874e-05
0.000240702
0.000512917
0.000843831
0.00122127
0.00161724
0.00200728
0.00216159
-0.000457397
-0.000514615
-0.000624479
-0.000733193
-0.00079484
-0.000804671
-0.000773786
-0.000713838
-0.000633091
-0.000535503
-0.000419907
-0.000280573
-0.000107422
0.000114748
0.000401935
0.000772362
0.00122459
0.00173813
0.00231262
0.00257203
-0.000638729
-0.000702968
-0.000822451
-0.000933323
-0.000987632
-0.000985671
-0.000943675
-0.000876154
-0.00079256
-0.000696945
-0.000588053
-0.000460242
-0.000302943
-9.86587e-05
0.000177312
0.000550605
0.00102736
0.00159056
0.00232745
0.00283924
-0.000854895
-0.000925668
-0.00105039
-0.00115422
-0.00119109
-0.00117092
-0.00111662
-0.00104493
-0.00096524
-0.000880835
-0.000790269
-0.000688654
-0.00056679
-0.000408128
-0.000187941
0.00011028
0.000459204
0.000873447
0.00152453
0.00265371
-0.00111243
-0.00118578
-0.00130711
-0.00138914
-0.00139609
-0.00135258
-0.0012874
-0.00121719
-0.00114938
-0.00108579
-0.00102486
-0.000963106
-0.000894594
-0.00080821
-0.000690813
-0.000554918
-0.00046371
-0.000382783
-0.000296601
0.00171765
-0.00141229
-0.00147161
-0.00157693
-0.00161772
-0.00158398
-0.00151728
-0.00144694
-0.00138545
-0.00133704
-0.00130216
-0.00127965
-0.00126785
-0.0012651
-0.00126767
-0.00127881
-0.00134673
-0.00154071
-0.00160507
-0.00239229
0.000268915
-0.00176064
-0.00178179
-0.00183101
-0.00179605
-0.00172079
-0.00164337
-0.001579
-0.00153329
-0.00150892
-0.00150681
-0.00152714
-0.00157006
-0.00163849
-0.00173514
-0.00186897
-0.00208478
-0.00254581
-0.00231988
-0.00402709
-0.000270687
-0.00213713
-0.00202593
-0.00196323
-0.00185708
-0.00178067
-0.00172039
-0.00167287
-0.00164455
-0.00164295
-0.00167249
-0.00173534
-0.00183062
-0.0019657
-0.00214673
-0.00238989
-0.00267293
-0.00319072
-0.00254899
-0.00448434
0.00350496
-0.00324353
-0.00289006
-0.00260219
-0.00230184
-0.00209567
-0.00195326
-0.00185237
-0.00179173
-0.00177977
-0.00182041
-0.00191313
-0.00204558
-0.00222647
-0.00245674
-0.00276705
-0.00312254
-0.00332678
-0.00253501
-0.00105492
0.0128046
-0.000798708
0.00104571
0.000205387
-0.00052457
-0.000926691
-0.00111738
-0.00122096
-0.00130012
-0.0013875
-0.00150088
-0.001653
-0.0018429
-0.00208218
-0.00236144
-0.0026503
-0.00277382
-0.00227424
3.97252e-05
0.00641235
0.0223966
)
;

boundaryField
{
    movingWall
    {
        type            zeroGradient;
    }
    fixedWalls
    {
        type            zeroGradient;
    }
    frontAndBack
    {
        type            empty;
    }
}


// ************************************************************************* //
