/*--------------------------------*- C++ -*----------------------------------*\
| =========                 |                                                 |
| \\      /  F ield         | OpenFOAM: The Open Source CFD Toolbox           |
|  \\    /   O peration     | Version:  3.0.0                                 |
|   \\  /    A nd           | Web:      www.OpenFOAM.org                      |
|    \\/     M anipulation  |                                                 |
\*---------------------------------------------------------------------------*/
FoamFile
{
    version     2.0;
    format      ascii;
    class       surfaceScalarField;
    location    "0.5";
    object      phi;
}
// * * * * * * * * * * * * * * * * * * * * * * * * * * * * * * * * * * * * * //

dimensions      [0 3 -1 0 0 0 0];

internalField   nonuniform List<scalar> 
760
(
2.96715e-09
-3.02233e-09
-1.06409e-09
4.02952e-09
-1.58901e-08
1.48238e-08
-4.03816e-08
2.44894e-08
-7.07712e-08
3.03878e-08
-1.03311e-07
3.2538e-08
-1.34843e-07
3.15301e-08
-1.62829e-07
2.79848e-08
-1.85244e-07
2.24131e-08
-2.00414e-07
1.51678e-08
-2.07292e-07
6.87661e-09
-2.05059e-07
-2.23481e-09
-1.93382e-07
-1.16794e-08
-1.72631e-07
-2.07533e-08
-1.44032e-07
-2.86013e-08
-1.0998e-07
-3.40537e-08
-7.43792e-08
-3.56033e-08
-4.23932e-08
-3.1988e-08
-1.7991e-08
-2.44054e-08
-1.7992e-08
-5.98318e-09
2.95996e-09
-2.09062e-08
1.8951e-08
-4.74321e-08
4.13478e-08
-8.26628e-08
5.97181e-08
-1.22617e-07
7.03401e-08
-1.6344e-07
7.33593e-08
-2.01909e-07
6.99976e-08
-2.35432e-07
6.15065e-08
-2.61963e-07
4.89419e-08
-2.79966e-07
3.31698e-08
-2.88153e-07
1.50618e-08
-2.85702e-07
-4.68798e-09
-2.72245e-07
-2.51381e-08
-2.47872e-07
-4.51294e-08
-2.13486e-07
-6.29889e-08
-1.71134e-07
-7.64083e-08
-1.24334e-07
-8.24054e-08
-7.78598e-08
-7.84648e-08
-3.58282e-08
-6.64389e-08
-5.38221e-08
-2.20305e-08
2.49909e-08
-5.2487e-08
4.94067e-08
-8.95761e-08
7.84356e-08
-1.30928e-07
1.01069e-07
-1.7417e-07
1.13581e-07
-2.16753e-07
1.15941e-07
-2.56279e-07
1.09522e-07
-2.90675e-07
9.5901e-08
-3.18229e-07
7.64942e-08
-3.37569e-07
5.25084e-08
-3.47567e-07
2.50581e-08
-3.47405e-07
-4.85227e-09
-3.36464e-07
-3.6081e-08
-3.14447e-07
-6.7148e-08
-2.81494e-07
-9.59443e-08
-2.38352e-07
-1.19552e-07
-1.86399e-07
-1.34361e-07
-1.27231e-07
-1.37635e-07
-6.25601e-08
-1.31113e-07
-1.16383e-07
-3.97179e-08
6.47081e-08
-8.56315e-08
9.53195e-08
-1.32513e-07
1.25316e-07
-1.7926e-07
1.47814e-07
-2.24948e-07
1.59267e-07
-2.68314e-07
1.59305e-07
-3.0793e-07
1.49137e-07
-3.42421e-07
1.3039e-07
-3.70551e-07
1.04623e-07
-3.91247e-07
7.32036e-08
-4.03556e-07
3.73655e-08
-4.06624e-07
-1.78641e-09
-3.996e-07
-4.31062e-08
-3.81637e-07
-8.51135e-08
-3.51849e-07
-1.25735e-07
-3.09279e-07
-1.62124e-07
-2.52716e-07
-1.90925e-07
-1.80431e-07
-2.09923e-07
-9.13493e-08
-2.20196e-07
-2.07734e-07
-5.65345e-08
1.21243e-07
-1.16874e-07
1.55659e-07
-1.73431e-07
1.81871e-07
-2.25996e-07
2.00378e-07
-2.74667e-07
2.07938e-07
-3.19243e-07
2.0388e-07
-3.59241e-07
1.89134e-07
-3.9404e-07
1.65189e-07
-4.22974e-07
1.33555e-07
-4.45353e-07
9.55811e-08
-4.60432e-07
5.24441e-08
-4.67354e-07
5.13396e-09
-4.65002e-07
-4.54604e-08
-4.51864e-07
-9.82526e-08
-4.25834e-07
-1.51767e-07
-3.83973e-07
-2.03987e-07
-3.22261e-07
-2.52639e-07
-2.35683e-07
-2.96503e-07
-1.20912e-07
-3.34971e-07
-3.28647e-07
-7.18311e-08
1.93073e-07
-1.45502e-07
2.29329e-07
-2.11617e-07
2.47986e-07
-2.70491e-07
2.59252e-07
-3.22899e-07
2.60344e-07
-3.69457e-07
2.50437e-07
-4.10516e-07
2.30192e-07
-4.46197e-07
2.00869e-07
-4.76428e-07
1.63785e-07
-5.00957e-07
1.20109e-07
-5.19304e-07
7.07898e-08
-5.30649e-07
1.64783e-08
-5.33639e-07
-4.24722e-08
-5.26077e-07
-1.05816e-07
-5.04544e-07
-1.73301e-07
-4.63942e-07
-2.44591e-07
-3.97155e-07
-3.19428e-07
-2.95432e-07
-3.98229e-07
-1.52621e-07
-4.77783e-07
-4.8127e-07
-8.58101e-08
2.78883e-07
-1.71907e-07
3.15425e-07
-2.4737e-07
3.23448e-07
-3.12831e-07
3.24713e-07
-3.69546e-07
3.17058e-07
-4.18772e-07
2.99662e-07
-4.61577e-07
2.72996e-07
-4.98766e-07
2.38057e-07
-5.30855e-07
1.95874e-07
-5.58061e-07
1.47314e-07
-5.80229e-07
9.29562e-08
-5.96669e-07
3.29178e-08
-6.05886e-07
-3.32565e-08
-6.05107e-07
-1.06596e-07
-5.89641e-07
-1.88769e-07
-5.52067e-07
-2.82167e-07
-4.816e-07
-3.89896e-07
-3.6452e-07
-5.1531e-07
-1.8908e-07
-6.53227e-07
-6.70351e-07
-9.88704e-08
3.77752e-07
-1.96718e-07
4.13271e-07
-2.81259e-07
4.07988e-07
-3.53354e-07
3.96808e-07
-4.14661e-07
3.78364e-07
-4.6699e-07
3.51991e-07
-5.12041e-07
3.18046e-07
-5.51248e-07
2.77264e-07
-5.857e-07
2.30325e-07
-6.16103e-07
1.77717e-07
-6.42696e-07
1.19548e-07
-6.65054e-07
5.52753e-08
-6.81744e-07
-1.65675e-08
-6.89661e-07
-9.868e-08
-6.83045e-07
-1.95386e-07
-6.5204e-07
-3.13173e-07
-5.81109e-07
-4.6083e-07
-4.48568e-07
-6.47854e-07
-2.3469e-07
-8.67106e-07
-9.05043e-07
-1.11434e-07
4.89186e-07
-2.20542e-07
5.22378e-07
-3.13812e-07
5.01258e-07
-3.9234e-07
4.75335e-07
-4.58196e-07
4.44219e-07
-5.13734e-07
4.07528e-07
-5.61253e-07
3.65565e-07
-6.02779e-07
3.1879e-07
-6.39954e-07
2.675e-07
-6.73997e-07
2.11759e-07
-7.0562e-07
1.51172e-07
-7.34839e-07
8.44931e-08
-7.60601e-07
9.19419e-09
-7.79898e-07
-7.93838e-08
-7.86419e-07
-1.88865e-07
-7.68074e-07
-3.31519e-07
-7.03446e-07
-5.25459e-07
-5.58368e-07
-7.92933e-07
-2.95987e-07
-1.12949e-06
-1.20103e-06
-1.23861e-07
6.13046e-07
-2.43868e-07
6.42386e-07
-3.45384e-07
6.02773e-07
-4.2984e-07
5.59791e-07
-4.99828e-07
5.14207e-07
-5.58304e-07
4.66003e-07
-6.08178e-07
4.15439e-07
-6.52053e-07
3.62665e-07
-6.92108e-07
3.07554e-07
-7.30084e-07
2.49734e-07
-7.67248e-07
1.88336e-07
-8.0427e-07
1.21514e-07
-8.40828e-07
4.57526e-08
-8.74826e-07
-4.53861e-08
-9.00304e-07
-1.63388e-07
-9.03918e-07
-3.27905e-07
-8.57894e-07
-5.71483e-07
-7.09295e-07
-9.41535e-07
-3.86014e-07
-1.45277e-06
-1.58705e-06
-1.36495e-07
7.49542e-07
-2.67066e-07
7.72956e-07
-3.76089e-07
7.11795e-07
-4.65578e-07
6.4928e-07
-5.38836e-07
5.87465e-07
-5.99552e-07
5.26719e-07
-6.51299e-07
4.67185e-07
-6.97247e-07
4.08612e-07
-7.40083e-07
3.50391e-07
-7.82052e-07
2.91703e-07
-8.25025e-07
2.3131e-07
-8.70512e-07
1.67002e-07
-9.19441e-07
9.46817e-08
-9.71546e-07
6.71973e-09
-1.02287e-06
-1.12067e-07
-1.06128e-06
-2.89496e-07
-1.05434e-06
-5.78424e-07
-9.24262e-07
-1.07161e-06
-5.34236e-07
-1.8428e-06
-2.12128e-06
-1.49477e-07
8.99018e-07
-2.90304e-07
9.13783e-07
-4.05747e-07
8.27239e-07
-4.9883e-07
7.42363e-07
-5.7393e-07
6.62565e-07
-6.35688e-07
5.88477e-07
-6.88416e-07
5.19913e-07
-7.35829e-07
4.56026e-07
-7.81058e-07
3.9562e-07
-8.26773e-07
3.37418e-07
-8.75424e-07
2.79962e-07
-9.29474e-07
2.21052e-07
-9.91544e-07
1.56752e-07
-1.064e-06
7.91786e-08
-1.14782e-06
-2.82423e-08
-1.23669e-06
-2.00629e-07
-1.30036e-06
-5.14753e-07
-1.24036e-06
-1.1316e-06
-7.99766e-07
-2.28339e-06
-2.92104e-06
-1.64036e-07
1.06305e-06
-3.14073e-07
1.06382e-06
-4.33842e-07
9.47008e-07
-5.2816e-07
8.36681e-07
-6.02923e-07
7.37328e-07
-6.63966e-07
6.49521e-07
-7.1637e-07
5.72318e-07
-7.64312e-07
5.03968e-07
-8.11214e-07
4.42523e-07
-8.60009e-07
3.86214e-07
-9.13564e-07
3.33517e-07
-9.7518e-07
2.8267e-07
-1.04921e-06
2.30787e-07
-1.14169e-06
1.71656e-07
-1.26068e-06
9.07467e-08
-1.41385e-06
-4.74563e-08
-1.59085e-06
-3.37743e-07
-1.669e-06
-1.05345e-06
-1.21779e-06
-2.7346e-06
-4.13884e-06
-1.77996e-07
1.24105e-06
-3.37254e-07
1.22308e-06
-4.58713e-07
1.06847e-06
-5.50856e-07
9.28824e-07
-6.22199e-07
8.08672e-07
-6.80106e-07
7.07428e-07
-7.30378e-07
6.22591e-07
-7.77462e-07
5.51053e-07
-8.24822e-07
4.89884e-07
-8.75381e-07
4.36773e-07
-9.32074e-07
3.90212e-07
-9.98587e-07
3.49184e-07
-1.08039e-06
3.12588e-07
-1.18632e-06
2.77596e-07
-1.33133e-06
2.35754e-07
-1.53742e-06
1.58643e-07
-1.8059e-06
-6.9262e-08
-1.98152e-06
-8.77823e-07
-1.55868e-06
-3.15743e-06
-5.69752e-06
-2.02314e-07
1.44337e-06
-3.62263e-07
1.38303e-06
-4.7809e-07
1.18429e-06
-5.61945e-07
1.01268e-06
-6.2509e-07
8.71818e-07
-6.76307e-07
7.58645e-07
-7.21767e-07
6.68052e-07
-7.65781e-07
5.95068e-07
-8.11465e-07
5.3557e-07
-8.61311e-07
4.8662e-07
-9.17789e-07
4.46692e-07
-9.84134e-07
4.15532e-07
-1.06545e-06
3.93906e-07
-1.17018e-06
3.82326e-07
-1.313e-06
3.78582e-07
-1.51619e-06
3.61838e-07
-1.76027e-06
1.74826e-07
-1.78507e-06
-8.53023e-07
-1.41773e-06
-3.52476e-06
-7.11524e-06
-2.19489e-07
1.66285e-06
-3.80802e-07
1.54434e-06
-4.8312e-07
1.28661e-06
-5.48924e-07
1.07848e-06
-5.96179e-07
9.19074e-07
-6.35011e-07
7.97478e-07
-6.7108e-07
7.04122e-07
-7.07829e-07
6.31818e-07
-7.47519e-07
5.75261e-07
-7.91659e-07
5.30762e-07
-8.41538e-07
4.96573e-07
-8.98914e-07
4.72911e-07
-9.66895e-07
4.6189e-07
-1.04975e-06
4.6518e-07
-1.15103e-06
4.79874e-07
-1.2657e-06
4.76507e-07
-1.3924e-06
3.01539e-07
-1.24835e-06
-9.97071e-07
-9.7153e-07
-3.80158e-06
-8.08677e-06
-2.95381e-07
1.95824e-06
-4.11542e-07
1.6605e-06
-4.54053e-07
1.32912e-06
-4.76643e-07
1.10107e-06
-4.93801e-07
9.36232e-07
-5.09379e-07
8.13057e-07
-5.2571e-07
7.20454e-07
-5.44777e-07
6.50887e-07
-5.67745e-07
5.98231e-07
-5.94634e-07
5.57654e-07
-6.24724e-07
5.26664e-07
-6.57078e-07
5.05269e-07
-6.92009e-07
4.96824e-07
-7.27842e-07
5.01017e-07
-7.63752e-07
5.15787e-07
-7.4559e-07
4.58348e-07
-6.82772e-07
2.38725e-07
-6.03279e-07
-1.07656e-06
-6.04688e-07
-3.80016e-06
-8.69145e-06
-3.25317e-07
2.28355e-06
-3.08781e-07
1.64397e-06
-2.62323e-07
1.28267e-06
-2.17067e-07
1.05582e-06
-1.75209e-07
8.94374e-07
-1.35515e-07
7.73364e-07
-9.87829e-08
6.83723e-07
-6.67978e-08
6.18903e-07
-4.0468e-08
5.71903e-07
-1.8393e-08
5.35581e-07
2.64929e-09
5.05624e-07
2.82323e-08
4.79688e-07
6.17375e-08
4.63321e-07
1.07164e-07
4.55593e-07
1.69491e-07
4.53464e-07
2.30918e-07
3.96924e-07
4.50825e-07
1.88218e-08
2.22288e-07
-8.4802e-07
1.72874e-07
-3.75074e-06
-8.51858e-06
-1.11673e-07
2.39523e-06
1.07137e-07
1.42516e-06
4.10295e-07
9.7951e-07
6.99556e-07
7.66559e-07
9.50566e-07
6.43365e-07
1.17285e-06
5.51082e-07
1.37509e-06
4.81479e-07
1.5603e-06
4.33704e-07
1.72893e-06
4.03267e-07
1.88386e-06
3.80661e-07
2.02853e-06
3.60951e-07
2.17361e-06
3.34616e-07
2.32193e-06
3.14998e-07
2.49358e-06
2.8395e-07
2.6878e-06
2.59248e-07
2.90454e-06
1.80187e-07
3.01905e-06
-9.56859e-08
2.98979e-06
-8.18759e-07
1.85912e-06
-2.62008e-06
-6.65945e-06
2.39523e-06
3.82038e-06
4.7999e-06
5.56645e-06
6.20982e-06
6.7609e-06
7.24238e-06
7.67609e-06
8.07936e-06
8.46002e-06
8.82097e-06
9.15559e-06
9.47059e-06
9.75454e-06
1.00138e-05
1.0194e-05
1.00983e-05
9.27953e-06
6.65945e-06
)
;

boundaryField
{
    movingWall
    {
        type            calculated;
        value           uniform 0;
    }
    fixedWalls
    {
        type            calculated;
        value           uniform 0;
    }
    frontAndBack
    {
        type            empty;
        value           nonuniform 0();
    }
}


// ************************************************************************* //
