/*--------------------------------*- C++ -*----------------------------------*\
| =========                 |                                                 |
| \\      /  F ield         | OpenFOAM: The Open Source CFD Toolbox           |
|  \\    /   O peration     | Version:  3.0.0                                 |
|   \\  /    A nd           | Web:      www.OpenFOAM.org                      |
|    \\/     M anipulation  |                                                 |
\*---------------------------------------------------------------------------*/
FoamFile
{
    version     2.0;
    format      ascii;
    class       volVectorField;
    location    "0.5";
    object      U;
}
// * * * * * * * * * * * * * * * * * * * * * * * * * * * * * * * * * * * * * //

dimensions      [0 1 -1 0 0 0 0];

internalField   nonuniform List<vector> 
400
(
(5.26255e-05 -4.89607e-05 0)
(6.25468e-05 2.75204e-06 0)
(-0.000120518 9.28346e-05 0)
(-0.000540615 0.000178655 0)
(-0.00110467 0.000231116 0)
(-0.0017446 0.00025154 0)
(-0.0023921 0.000246616 0)
(-0.00299212 0.000222118 0)
(-0.0034998 0.000181664 0)
(-0.00388207 0.000126382 0)
(-0.0040983 6.5043e-05 0)
(-0.00414842 -7.24513e-06 0)
(-0.00400679 -8.43458e-05 0)
(-0.00367945 -0.000159713 0)
(-0.00318089 -0.000226741 0)
(-0.00254676 -0.000274914 0)
(-0.00183945 -0.000289687 0)
(-0.00115018 -0.000257952 0)
(-0.000579967 -0.000189236 0)
(-0.000158345 -0.00013665 0)
(-2.44483e-05 -6.74747e-05 0)
(-0.000229053 0.00017195 0)
(-0.000645332 0.000531524 0)
(-0.00127798 0.000836905 0)
(-0.00204752 0.00101478 0)
(-0.00286988 0.00106969 0)
(-0.00367387 0.00102432 0)
(-0.00440218 0.000900381 0)
(-0.00500916 0.000714837 0)
(-0.00545919 0.000480389 0)
(-0.00572353 0.000210874 0)
(-0.00578266 -8.26023e-05 0)
(-0.00562321 -0.00038777 0)
(-0.00524245 -0.000684576 0)
(-0.00464904 -0.000945982 0)
(-0.00387016 -0.00113368 0)
(-0.00296022 -0.00119629 0)
(-0.00201503 -0.00108877 0)
(-0.00112443 -0.000847342 0)
(-0.000319462 -0.000632141 0)
(-0.000177823 0.000207768 0)
(-0.000735108 0.000624775 0)
(-0.00140742 0.00116807 0)
(-0.00219006 0.00160395 0)
(-0.00304923 0.00185293 0)
(-0.00392094 0.00191485 0)
(-0.00475269 0.00181781 0)
(-0.00550033 0.00159248 0)
(-0.00612657 0.00126536 0)
(-0.00660059 0.00085851 0)
(-0.00689782 0.000392325 0)
(-0.00699919 -0.000114515 0)
(-0.00689002 -0.000641426 0)
(-0.00656064 -0.0011595 0)
(-0.00600798 -0.00162813 0)
(-0.00523811 -0.00199048 0)
(-0.0042741 -0.0021752 0)
(-0.00317075 -0.00212831 0)
(-0.00193297 -0.00189364 0)
(-0.00057408 -0.00160398 0)
(-0.000348509 0.000836031 0)
(-0.00128401 0.00139107 0)
(-0.00219743 0.0019964 0)
(-0.00311679 0.00246566 0)
(-0.00404744 0.00272069 0)
(-0.00494769 0.00275451 0)
(-0.00578559 0.00259276 0)
(-0.00653324 0.00226851 0)
(-0.00716492 0.00181284 0)
(-0.00765765 0.0012527 0)
(-0.0079919 0.000612624 0)
(-0.00814957 -8.49918e-05 0)
(-0.0081139 -0.000815955 0)
(-0.00786756 -0.0015484 0)
(-0.00739189 -0.00223758 0)
(-0.00666639 -0.00282234 0)
(-0.00567483 -0.00323076 0)
(-0.0044197 -0.00341632 0)
(-0.00281724 -0.00342008 0)
(-0.000841698 -0.0031476 0)
(-0.000507724 0.00181322 0)
(-0.00180085 0.00245959 0)
(-0.0029486 0.00302959 0)
(-0.00401009 0.00345262 0)
(-0.00502132 0.00365513 0)
(-0.00595878 0.00362406 0)
(-0.0068092 0.00337986 0)
(-0.00756117 0.00295389 0)
(-0.00820199 0.00237769 0)
(-0.00871853 0.00167931 0)
(-0.00909707 0.000883936 0)
(-0.00932165 1.3767e-05 0)
(-0.00937324 -0.000909076 0)
(-0.00922567 -0.00185688 0)
(-0.00884207 -0.0027913 0)
(-0.00817118 -0.00366067 0)
(-0.00715197 -0.00440688 0)
(-0.00572907 -0.00499789 0)
(-0.00372598 -0.00545273 0)
(-0.00110496 -0.00527129 0)
(-0.00064826 0.00310668 0)
(-0.00226851 0.0038038 0)
(-0.0036433 0.00425745 0)
(-0.00485373 0.00456553 0)
(-0.00595883 0.00466221 0)
(-0.0069487 0.00453044 0)
(-0.00782591 0.00418522 0)
(-0.00859439 0.00365393 0)
(-0.0092547 0.00296529 0)
(-0.00980433 0.00214511 0)
(-0.0102364 0.00121557 0)
(-0.0105382 0.000194141 0)
(-0.0106894 -0.000905046 0)
(-0.0106551 -0.0020667 0)
(-0.0103795 -0.00327053 0)
(-0.00977809 -0.00448926 0)
(-0.00873986 -0.00569406 0)
(-0.00714237 -0.00687657 0)
(-0.00469867 -0.00801623 0)
(-0.00138319 -0.00799664 0)
(-0.000773882 0.00468916 0)
(-0.0026952 0.00540374 0)
(-0.00428812 0.00567405 0)
(-0.00565028 0.00580829 0)
(-0.00685885 0.00575145 0)
(-0.00791409 0.00548531 0)
(-0.00883186 0.00502042 0)
(-0.00962984 0.0043792 0)
(-0.0103214 0.0035853 0)
(-0.0109147 0.00265954 0)
(-0.0114106 0.00161782 0)
(-0.0118016 0.00046868 0)
(-0.0120674 -0.000787577 0)
(-0.012167 -0.00215676 0)
(-0.0120275 -0.00364961 0)
(-0.0115307 -0.00528149 0)
(-0.0105083 -0.00707426 0)
(-0.0087542 -0.00906091 0)
(-0.00581567 -0.0111721 0)
(-0.00172333 -0.0113921 0)
(-0.000890752 0.00653958 0)
(-0.00309437 0.00724443 0)
(-0.00489619 0.00727485 0)
(-0.00640865 0.00718397 0)
(-0.00772471 0.00693095 0)
(-0.00885294 0.00649941 0)
(-0.00982082 0.00589701 0)
(-0.0106585 0.00514093 0)
(-0.0113913 0.00424837 0)
(-0.0120382 0.00323313 0)
(-0.0126088 0.00210242 0)
(-0.0131024 0.000852455 0)
(-0.0135026 -0.000535131 0)
(-0.0137667 -0.0020957 0)
(-0.0138099 -0.00388559 0)
(-0.0134821 -0.00598632 0)
(-0.01255 -0.00850442 0)
(-0.0106954 -0.0115541 0)
(-0.00713198 -0.0150211 0)
(-0.00228754 -0.0155781 0)
(-0.00100545 0.00864442 0)
(-0.0034794 0.00931471 0)
(-0.00548023 0.00905416 0)
(-0.00713717 0.0086914 0)
(-0.00855847 0.00820337 0)
(-0.00976062 0.00757828 0)
(-0.0107821 0.00682231 0)
(-0.0116647 0.00594737 0)
(-0.0124455 0.00496332 0)
(-0.0131539 0.00387574 0)
(-0.0138091 0.0026818 0)
(-0.0144197 0.0013636 0)
(-0.014978 -0.000119048 0)
(-0.0154474 -0.00183742 0)
(-0.015741 -0.0039086 0)
(-0.0156856 -0.00651002 0)
(-0.0149795 -0.0098894 0)
(-0.0131511 -0.0143299 0)
(-0.00889791 -0.0197126 0)
(-0.00306009 -0.0207793 0)
(-0.00112375 0.0109995 0)
(-0.00386178 0.0116066 0)
(-0.00605001 0.011004 0)
(-0.00784014 0.0103239 0)
(-0.00935723 0.00956435 0)
(-0.0106265 0.0087204 0)
(-0.011698 0.00779751 0)
(-0.0126248 0.00680191 0)
(-0.0134555 0.00573547 0)
(-0.0142297 0.00459504 0)
(-0.0149769 0.00336768 0)
(-0.015718 0.00202184 0)
(-0.0164588 0.000495809 0)
(-0.0171802 -0.00132055 0)
(-0.0178107 -0.00361692 0)
(-0.0181751 -0.00670132 0)
(-0.0179166 -0.0110471 0)
(-0.0163633 -0.0172768 0)
(-0.0114479 -0.0254469 0)
(-0.00423079 -0.0273847 0)
(-0.00125197 0.0136018 0)
(-0.00425188 0.014113 0)
(-0.00661142 0.0131127 0)
(-0.00851602 0.0120679 0)
(-0.0101107 0.0110016 0)
(-0.0114316 0.00991653 0)
(-0.0125413 0.008817 0)
(-0.0135052 0.00770243 0)
(-0.0143822 0.00656574 0)
(-0.0152218 0.00539503 0)
(-0.0160639 0.00416861 0)
(-0.0169433 0.00284462 0)
(-0.0178862 0.00134464 0)
(-0.018904 -0.000476328 0)
(-0.0199654 -0.00288103 0)
(-0.0209351 -0.0063405 0)
(-0.0214545 -0.0116605 0)
(-0.020644 -0.0200914 0)
(-0.0152984 -0.0323826 0)
(-0.0064574 -0.0360717 0)
(-0.00139374 0.0164776 0)
(-0.00465596 0.0168295 0)
(-0.00716558 0.0153628 0)
(-0.00915554 0.0139011 0)
(-0.0107982 0.0124928 0)
(-0.0121444 0.0111479 0)
(-0.0132718 0.00986697 0)
(-0.0142581 0.00863996 0)
(-0.0151721 0.00744933 0)
(-0.0160709 0.00627421 0)
(-0.017004 0.00508691 0)
(-0.0180206 0.00384144 0)
(-0.0191715 0.00245386 0)
(-0.0205095 0.000761141 0)
(-0.022076 -0.00155704 0)
(-0.0238449 -0.00513453 0)
(-0.0255823 -0.0112043 0)
(-0.0263903 -0.0220753 0)
(-0.0214674 -0.0402384 0)
(-0.0108744 -0.0482637 0)
(-0.00157265 0.0195634 0)
(-0.00509686 0.0197372 0)
(-0.00771096 0.0177243 0)
(-0.00973755 0.0157868 0)
(-0.0113819 0.0140026 0)
(-0.0127147 0.0123853 0)
(-0.01383 0.0109257 0)
(-0.0148171 0.00959925 0)
(-0.0157523 0.00837536 0)
(-0.0166971 0.00722391 0)
(-0.0177075 0.0061145 0)
(-0.0188437 0.00500558 0)
(-0.0201799 0.00382466 0)
(-0.0218175 0.0024221 0)
(-0.0238923 0.000471309 0)
(-0.0265644 -0.00274738 0)
(-0.0299716 -0.00888424 0)
(-0.0339204 -0.0218427 0)
(-0.0305043 -0.0482945 0)
(-0.017109 -0.0668919 0)
(-0.00173478 0.0231593 0)
(-0.00555052 0.0228478 0)
(-0.00822402 0.0201537 0)
(-0.0102161 0.0176693 0)
(-0.0117968 0.0154797 0)
(-0.0130626 0.0135879 0)
(-0.0141247 0.0119626 0)
(-0.0150822 0.0105575 0)
(-0.0160137 0.00932504 0)
(-0.0169806 0.00822503 0)
(-0.018039 0.0072271 0)
(-0.0192525 0.00630236 0)
(-0.0207084 0.00540801 0)
(-0.0225399 0.00444704 0)
(-0.0249521 0.00317403 0)
(-0.0282798 0.000928669 0)
(-0.0332517 -0.00434739 0)
(-0.0397209 -0.0193363 0)
(-0.038916 -0.0579176 0)
(-0.0181735 -0.0955213 0)
(-0.00217802 0.0265242 0)
(-0.00613775 0.0260002 0)
(-0.0086859 0.0225387 0)
(-0.0105093 0.0194474 0)
(-0.0119229 0.0168424 0)
(-0.0130423 0.0146942 0)
(-0.0139914 0.0129318 0)
(-0.0148721 0.0114779 0)
(-0.015758 0.0102641 0)
(-0.0167028 0.00923889 0)
(-0.0177537 0.00837271 0)
(-0.0189646 0.00765329 0)
(-0.0204147 0.00707764 0)
(-0.0222258 0.00662451 0)
(-0.02458 0.00618759 0)
(-0.0278124 0.00526113 0)
(-0.0328071 0.00118549 0)
(-0.0380413 -0.0175906 0)
(-0.039701 -0.0693884 0)
(-0.00752128 -0.130845 0)
(-0.00224215 0.031466 0)
(-0.00671585 0.029331 0)
(-0.00894007 0.0247406 0)
(-0.0103971 0.0209717 0)
(-0.0114779 0.0179766 0)
(-0.0123232 0.0156211 0)
(-0.0130604 0.0137689 0)
(-0.0137787 0.0123046 0)
(-0.0145358 0.0111363 0)
(-0.0153683 0.0101999 0)
(-0.0163014 0.00946386 0)
(-0.0173628 0.00892905 0)
(-0.0185995 0.00862627 0)
(-0.0200722 0.00858693 0)
(-0.0218363 0.00878939 0)
(-0.0239728 0.0087347 0)
(-0.0273366 0.00524469 0)
(-0.0249163 -0.0190536 0)
(-0.0345426 -0.0763557 0)
(0.00596482 -0.1613 0)
(-0.00376501 0.0345871 0)
(-0.00816232 0.0317984 0)
(-0.008743 0.0263634 0)
(-0.00927978 0.0220083 0)
(-0.00969295 0.0187317 0)
(-0.0100266 0.0162546 0)
(-0.0103398 0.014373 0)
(-0.0106884 0.0129374 0)
(-0.0111075 0.0118352 0)
(-0.0116079 0.0109843 0)
(-0.0121798 0.0103442 0)
(-0.012803 0.00991629 0)
(-0.0134725 0.00975114 0)
(-0.0141709 0.009867 0)
(-0.0148522 0.0102016 0)
(-0.015115 0.00981251 0)
(-0.0173837 0.00603169 0)
(-0.00427719 -0.0219769 0)
(-0.0291091 -0.0806497 0)
(0.0151703 -0.179606 0)
(-0.00510601 0.0476833 0)
(-0.00725165 0.0376525 0)
(-0.0054542 0.0287348 0)
(-0.00479386 0.0233301 0)
(-0.00392466 0.0195284 0)
(-0.00308963 0.0167666 0)
(-0.00231774 0.0147569 0)
(-0.00163071 0.0132956 0)
(-0.00105363 0.0122217 0)
(-0.000580037 0.0114034 0)
(-0.000161228 0.0107646 0)
(0.000297385 0.0102809 0)
(0.000855385 0.0100317 0)
(0.00166625 0.0100033 0)
(0.00250832 0.0100594 0)
(0.00476424 0.00886458 0)
(0.00250791 0.00268907 0)
(0.0206419 -0.018396 0)
(-0.0184771 -0.083262 0)
(0.0340454 -0.179659 0)
(-0.0020459 0.0320391 0)
(-0.00159233 0.0168806 0)
(0.00561826 0.0146935 0)
(0.0112606 0.0134246 0)
(0.0165981 0.0123205 0)
(0.0213091 0.0112111 0)
(0.0255413 0.0102711 0)
(0.0294043 0.00956946 0)
(0.0329322 0.00903927 0)
(0.0361675 0.00857174 0)
(0.039161 0.00812095 0)
(0.0420923 0.00768349 0)
(0.0449642 0.00740094 0)
(0.0482204 0.00721713 0)
(0.0512624 0.0070241 0)
(0.0556191 0.00528549 0)
(0.0570893 -0.00237377 0)
(0.0662957 -0.020888 0)
(0.0310618 -0.0680633 0)
(0.072388 -0.136796 0)
(0.0510493 0.0778973 0)
(0.0566519 0.0540878 0)
(0.0851476 0.034399 0)
(0.104881 0.0241516 0)
(0.119209 0.0184909 0)
(0.130601 0.0147678 0)
(0.140457 0.012169 0)
(0.149373 0.010444 0)
(0.157662 0.0094066 0)
(0.165539 0.00872225 0)
(0.172948 0.00818665 0)
(0.180097 0.00736184 0)
(0.186284 0.00666608 0)
(0.192554 0.00543784 0)
(0.196739 0.0047516 0)
(0.201467 0.00364538 0)
(0.201656 0.000475697 0)
(0.195828 -0.00444291 0)
(0.159667 -0.0172778 0)
(0.153032 -0.100487 0)
)
;

boundaryField
{
    movingWall
    {
        type            fixedValue;
        value           uniform (1 0 0);
    }
    fixedWalls
    {
        type            fixedValue;
        value           uniform (0 0 0);
    }
    frontAndBack
    {
        type            empty;
    }
}


// ************************************************************************* //
