/*--------------------------------*- C++ -*----------------------------------*\
| =========                 |                                                 |
| \\      /  F ield         | OpenFOAM: The Open Source CFD Toolbox           |
|  \\    /   O peration     | Version:  3.0.0                                 |
|   \\  /    A nd           | Web:      www.OpenFOAM.org                      |
|    \\/     M anipulation  |                                                 |
\*---------------------------------------------------------------------------*/
FoamFile
{
    version     2.0;
    format      ascii;
    class       volScalarField;
    location    "349";
    object      nut;
}
// * * * * * * * * * * * * * * * * * * * * * * * * * * * * * * * * * * * * * //

dimensions      [0 2 -1 0 0 0 0];

internalField   nonuniform List<scalar> 
10720
(
0.09703
0.101714
0.107054
0.112917
0.119606
0.127134
0.135636
0.144913
0.154921
0.165213
0.1753
0.184236
0.191459
0.196797
0.200248
0.20202
0.202327
0.201457
0.199528
0.19673
0.193039
0.188534
0.183253
0.177439
0.171522
0.16578
0.160185
0.154586
0.148876
0.143051
0.137104
0.131003
0.124707
0.118166
0.111187
0.103647
0.0943971
0.0841026
0.0607002
0.092575
0.0878587
0.0827885
0.0767312
0.0697518
0.0613098
0.050639
0.0381659
0.0346923
0.0324881
0.039209
0.0457648
0.0510396
0.0555773
0.0598426
0.0640501
0.0682521
0.0724203
0.0765013
0.0804627
0.0842948
0.088004
0.0916045
0.0950875
0.0982697
0.100934
0.103052
0.104672
0.105846
0.106605
0.106998
0.10711
0.107003
0.106646
0.105947
0.104882
0.103008
0.100824
0.0916831
0.100382
0.0999998
0.099345
0.0984465
0.0974903
0.0964182
0.0953187
0.0943265
0.094405
0.0955109
0.0973139
0.100229
0.104231
0.109152
0.115006
0.121504
0.128527
0.135809
0.143199
0.150337
0.15709
0.163048
0.167876
0.17115
0.172436
0.171819
0.169695
0.1664
0.162285
0.157634
0.152665
0.147531
0.142346
0.137207
0.13222
0.127486
0.123223
0.119412
0.114066
0.100771
0.100851
0.101063
0.100806
0.100295
0.0994765
0.0981878
0.0962537
0.0933322
0.0899509
0.0858499
0.0815765
0.0773838
0.0733135
0.0694733
0.0659154
0.062715
0.0598978
0.0574855
0.055468
0.0538396
0.0525808
0.0516683
0.0510596
0.0507279
0.0506413
0.050739
0.050956
0.0512364
0.0515848
0.0526433
0.0550193
0.058247
0.0616373
0.0647483
0.0675432
0.0699145
0.0740255
0.0777013
0.121955
0.121783
0.121404
0.120815
0.120134
0.119253
0.11817
0.11695
0.115524
0.114153
0.11299
0.112107
0.111475
0.111069
0.110755
0.110584
0.110644
0.110989
0.111332
0.110927
0.111058
0.111931
0.113363
0.118306
0.125442
0.132877
0.13969
0.14546
0.150011
0.153287
0.155357
0.15638
0.156563
0.156112
0.155226
0.153949
0.152677
0.149996
0.150085
0.122125
0.122072
0.122079
0.121818
0.121369
0.120694
0.119714
0.118391
0.116751
0.114742
0.112366
0.109689
0.106764
0.103605
0.100299
0.0968897
0.0934416
0.0900014
0.0866228
0.0833203
0.0801225
0.0770271
0.0740366
0.0710622
0.0680547
0.0650772
0.0621701
0.0593755
0.0567245
0.0542515
0.0519567
0.05032
0.0501804
0.0511684
0.052841
0.0549954
0.0575597
0.0604683
0.0654909
0.129093
0.128985
0.128777
0.128464
0.128085
0.1276
0.127
0.126309
0.125493
0.124562
0.123517
0.12236
0.12116
0.120016
0.118831
0.117279
0.115473
0.11352
0.11144
0.109216
0.106964
0.104837
0.102881
0.101607
0.101423
0.102413
0.104527
0.110385
0.117865
0.125824
0.133714
0.141145
0.147874
0.153805
0.159
0.163491
0.167701
0.170111
0.173435
0.129174
0.129171
0.129157
0.129023
0.128789
0.12843
0.127907
0.127197
0.126289
0.125163
0.12381
0.122245
0.120476
0.118495
0.116333
0.114001
0.111527
0.108938
0.106271
0.10354
0.100775
0.0979823
0.0951602
0.0922258
0.0891144
0.0858724
0.0825293
0.0791215
0.0756816
0.0722416
0.0688302
0.0654816
0.0623027
0.0594472
0.0568878
0.0555617
0.0558762
0.0566299
0.0593123
0.1327
0.132627
0.132486
0.132284
0.132042
0.131729
0.131348
0.130905
0.130384
0.129786
0.129109
0.128343
0.12748
0.126519
0.12545
0.124256
0.122895
0.121337
0.119544
0.11751
0.11521
0.112686
0.109932
0.107307
0.105256
0.103663
0.102324
0.100979
0.100869
0.102213
0.107696
0.115421
0.124525
0.134442
0.144751
0.155182
0.16584
0.176131
0.185661
0.132756
0.13275
0.132742
0.132652
0.132502
0.132268
0.131933
0.131486
0.13092
0.130225
0.129396
0.128437
0.127346
0.12611
0.124742
0.123234
0.121598
0.119838
0.11797
0.115997
0.113934
0.11178
0.10953
0.107116
0.10448
0.101646
0.0986288
0.0954485
0.0921266
0.0886863
0.0851515
0.0815492
0.0779013
0.0742457
0.0706
0.0670284
0.0638358
0.0605536
0.0590793
0.134759
0.134706
0.134611
0.134474
0.134306
0.134092
0.133831
0.133527
0.133171
0.132761
0.132296
0.131768
0.131173
0.130502
0.129745
0.128892
0.127924
0.12682
0.125545
0.124077
0.12237
0.1204
0.118126
0.115608
0.113011
0.110448
0.107877
0.105693
0.103885
0.102182
0.100845
0.100913
0.104942
0.112272
0.122429
0.135185
0.1503
0.168388
0.186996
0.134794
0.134792
0.134785
0.134723
0.134623
0.13446
0.134227
0.13392
0.133537
0.133073
0.132523
0.131891
0.131173
0.13036
0.129459
0.128461
0.127367
0.126175
0.124892
0.123515
0.122046
0.12048
0.118806
0.116972
0.114927
0.112674
0.110213
0.10755
0.10469
0.101644
0.0984231
0.095045
0.0915251
0.087879
0.0841203
0.0802079
0.0761546
0.0716456
0.0647817
0.136073
0.136035
0.135965
0.135865
0.135744
0.135589
0.135401
0.135183
0.134927
0.134634
0.134301
0.133922
0.133495
0.133013
0.132467
0.131851
0.131151
0.130352
0.129432
0.128373
0.127142
0.125714
0.124056
0.12215
0.120027
0.117725
0.115235
0.112653
0.110067
0.107443
0.105233
0.103261
0.101514
0.101296
0.105548
0.114466
0.128473
0.150224
0.178021
0.136098
0.136095
0.136089
0.136043
0.135971
0.135853
0.135681
0.135457
0.135181
0.134851
0.134463
0.134021
0.133522
0.132961
0.132338
0.131648
0.130889
0.13006
0.12916
0.128187
0.127138
0.126007
0.124782
0.123422
0.121885
0.120165
0.118253
0.116144
0.113831
0.11131
0.108581
0.105648
0.102516
0.0991882
0.0956673
0.0919169
0.0878313
0.0834103
0.0745874
0.136974
0.136945
0.136894
0.136819
0.136727
0.136611
0.13647
0.136306
0.136114
0.135894
0.135645
0.135361
0.135041
0.134679
0.134269
0.133805
0.133276
0.132673
0.131982
0.131188
0.130273
0.129218
0.127999
0.1266
0.125021
0.123255
0.121275
0.119063
0.116642
0.114014
0.111314
0.108548
0.106023
0.103765
0.102013
0.102786
0.110116
0.128248
0.161046
0.136993
0.136989
0.136983
0.136947
0.136894
0.136804
0.136672
0.136501
0.136293
0.136047
0.135761
0.135437
0.135075
0.13467
0.134222
0.133727
0.133183
0.132587
0.131938
0.131232
0.130467
0.129636
0.128729
0.127716
0.126564
0.125263
0.123801
0.122169
0.120352
0.118341
0.116124
0.113695
0.111047
0.108172
0.10506
0.101678
0.0978621
0.0938157
0.0849463
0.137627
0.137605
0.137565
0.137507
0.137437
0.137347
0.137237
0.137111
0.136963
0.136794
0.136604
0.136387
0.136142
0.135866
0.135553
0.135199
0.134797
0.134338
0.133811
0.133204
0.132502
0.131693
0.13076
0.129694
0.128498
0.127158
0.125642
0.12392
0.121969
0.119762
0.117298
0.114584
0.111735
0.108749
0.106035
0.103561
0.102525
0.11076
0.140822
0.137641
0.137636
0.137629
0.1376
0.13756
0.137489
0.137385
0.13725
0.137088
0.136898
0.136678
0.136433
0.13616
0.135858
0.135525
0.135158
0.134756
0.134315
0.133834
0.13331
0.132739
0.132117
0.131434
0.130667
0.129792
0.128799
0.127678
0.126417
0.125002
0.12342
0.121654
0.119693
0.117522
0.115125
0.11248
0.109553
0.106158
0.102568
0.0943899
0.13812
0.138102
0.138071
0.138025
0.137969
0.137897
0.13781
0.137709
0.137592
0.137458
0.137306
0.137135
0.136942
0.136724
0.136477
0.136199
0.135881
0.13552
0.135108
0.134635
0.13409
0.133462
0.132738
0.131911
0.130983
0.129945
0.128772
0.127438
0.125914
0.124166
0.122159
0.119861
0.117263
0.114345
0.111224
0.107959
0.104876
0.102715
0.123153
0.138129
0.138124
0.138116
0.138092
0.13806
0.138004
0.137919
0.13781
0.13768
0.137529
0.137356
0.137165
0.136953
0.136721
0.136466
0.136187
0.135882
0.135548
0.135183
0.134785
0.134351
0.133875
0.13335
0.132759
0.132084
0.131317
0.130448
0.129466
0.128359
0.127114
0.125715
0.124147
0.122392
0.120432
0.118237
0.115776
0.112853
0.109754
0.102534
0.138503
0.138489
0.138464
0.138427
0.138381
0.138322
0.138251
0.138168
0.138073
0.137964
0.137842
0.137704
0.137549
0.137375
0.137178
0.136956
0.136704
0.136417
0.136088
0.135712
0.135278
0.134779
0.134206
0.133552
0.132818
0.131997
0.13107
0.130018
0.128817
0.127439
0.125846
0.123997
0.121844
0.119331
0.116429
0.113039
0.109565
0.103858
0.112546
0.13851
0.138504
0.138495
0.138473
0.138448
0.138402
0.138332
0.138242
0.138136
0.138013
0.137874
0.137721
0.137553
0.13737
0.137171
0.136955
0.136718
0.136459
0.136177
0.135868
0.135531
0.135161
0.134751
0.134289
0.13376
0.133158
0.132475
0.131702
0.130828
0.129841
0.128728
0.127474
0.126061
0.12447
0.122672
0.120634
0.118172
0.115555
0.109363
0.138808
0.138798
0.138776
0.138746
0.138707
0.138658
0.138598
0.138529
0.138449
0.13836
0.138259
0.138145
0.138018
0.137875
0.137715
0.137534
0.137329
0.137096
0.13683
0.136526
0.136177
0.135776
0.135316
0.134792
0.134205
0.133547
0.132804
0.131959
0.130997
0.129894
0.128622
0.127143
0.12541
0.123352
0.120903
0.117852
0.114461
0.108722
0.108561
0.138814
0.138807
0.138797
0.138778
0.138757
0.138719
0.138661
0.138585
0.138497
0.138395
0.138281
0.138156
0.13802
0.137874
0.137715
0.137543
0.137356
0.137152
0.13693
0.136687
0.136421
0.136128
0.135803
0.135436
0.135016
0.134537
0.133993
0.133377
0.13268
0.131891
0.130998
0.12999
0.128849
0.127558
0.126089
0.124413
0.122364
0.120184
0.114987
0.139057
0.139049
0.13903
0.139004
0.138971
0.138928
0.138877
0.138818
0.138751
0.138675
0.13859
0.138496
0.13839
0.138272
0.138139
0.13799
0.137821
0.137629
0.137411
0.137162
0.136876
0.136549
0.136175
0.13575
0.135274
0.134741
0.134138
0.133452
0.132671
0.131776
0.130745
0.129549
0.128149
0.126484
0.124485
0.121936
0.118893
0.113979
0.109242
0.139061
0.139053
0.139043
0.139025
0.139007
0.138976
0.138926
0.138862
0.138788
0.138702
0.138607
0.138504
0.138392
0.138272
0.138144
0.138005
0.137855
0.137692
0.137514
0.13732
0.137107
0.136873
0.136612
0.136317
0.135978
0.135593
0.135155
0.134659
0.134096
0.133459
0.132737
0.13192
0.130993
0.129941
0.128739
0.127362
0.125665
0.12386
0.119562
0.139263
0.139256
0.139239
0.139216
0.139187
0.139149
0.139104
0.139054
0.138996
0.138931
0.138859
0.138779
0.13869
0.138591
0.138479
0.138354
0.138213
0.138054
0.137872
0.137666
0.13743
0.13716
0.136852
0.136503
0.136113
0.135676
0.135182
0.134621
0.13398
0.133246
0.132401
0.131421
0.130276
0.128919
0.12729
0.125217
0.12262
0.118631
0.112442
0.139266
0.139258
0.139247
0.139229
0.139215
0.139188
0.139146
0.139091
0.139027
0.138954
0.138874
0.138787
0.138694
0.138595
0.138489
0.138375
0.138253
0.138121
0.137977
0.13782
0.137648
0.137458
0.137246
0.137006
0.13673
0.136417
0.13606
0.135657
0.135198
0.134679
0.13409
0.133422
0.132664
0.131802
0.130814
0.129679
0.128274
0.126779
0.123258
0.139436
0.13943
0.139414
0.139393
0.139366
0.139332
0.139293
0.139249
0.139198
0.139142
0.139081
0.139012
0.138936
0.138852
0.138758
0.138652
0.138533
0.138399
0.138247
0.138074
0.137876
0.137651
0.137394
0.137105
0.136782
0.13642
0.136012
0.135548
0.135019
0.134412
0.133713
0.132903
0.131957
0.130837
0.129495
0.12781
0.125638
0.122525
0.1163
0.139438
0.13943
0.139418
0.139401
0.139388
0.139366
0.139329
0.139281
0.139226
0.139164
0.139095
0.139021
0.138943
0.138859
0.138771
0.138677
0.138576
0.138468
0.13835
0.138221
0.138081
0.137925
0.137751
0.137554
0.137328
0.13707
0.136778
0.136446
0.13607
0.135643
0.135159
0.134609
0.133984
0.133273
0.132456
0.131517
0.13035
0.129107
0.126235
0.139583
0.139576
0.139561
0.139541
0.139517
0.139486
0.139451
0.139412
0.139367
0.139319
0.139266
0.139207
0.139141
0.139069
0.138989
0.138899
0.138798
0.138684
0.138555
0.138408
0.138241
0.138052
0.137836
0.137594
0.137324
0.137022
0.136682
0.136295
0.135854
0.135349
0.134767
0.134092
0.133304
0.132372
0.131255
0.129869
0.128053
0.125651
0.120062
0.139584
0.139576
0.139563
0.139546
0.139535
0.139516
0.139484
0.139443
0.139395
0.139341
0.139281
0.139217
0.13915
0.13908
0.139005
0.138927
0.138843
0.138753
0.138655
0.138549
0.138433
0.138304
0.13816
0.137997
0.13781
0.137596
0.137354
0.13708
0.136768
0.136415
0.136013
0.135558
0.13504
0.134449
0.13377
0.132989
0.132017
0.130978
0.128636
0.139708
0.139701
0.139686
0.139667
0.139645
0.139616
0.139585
0.13955
0.139511
0.139469
0.139422
0.139371
0.139315
0.139253
0.139184
0.139107
0.13902
0.138923
0.138812
0.138688
0.138545
0.138384
0.138202
0.137997
0.13777
0.137516
0.13723
0.136905
0.136534
0.13611
0.135622
0.135057
0.134397
0.133616
0.13268
0.131527
0.129999
0.128117
0.123392
0.139709
0.139701
0.139688
0.139671
0.139662
0.139645
0.139617
0.139581
0.139539
0.139491
0.139439
0.139384
0.139326
0.139266
0.139202
0.139136
0.139065
0.13899
0.138908
0.13882
0.138723
0.138616
0.138496
0.13836
0.138203
0.138026
0.137824
0.137595
0.137335
0.13704
0.136706
0.136326
0.135893
0.1354
0.134833
0.134179
0.133366
0.132494
0.130581
0.139815
0.139808
0.139793
0.139775
0.139754
0.139728
0.1397
0.139669
0.139634
0.139597
0.139557
0.139513
0.139464
0.13941
0.139351
0.139284
0.13921
0.139126
0.139031
0.138924
0.138802
0.138664
0.138509
0.138335
0.138141
0.137926
0.137683
0.137408
0.137095
0.136737
0.136325
0.135848
0.135292
0.134635
0.133845
0.132879
0.131587
0.130071
0.126193
0.139817
0.13981
0.139796
0.139779
0.139771
0.139756
0.139732
0.1397
0.139662
0.13962
0.139574
0.139526
0.139476
0.139424
0.139369
0.139313
0.139253
0.139189
0.13912
0.139046
0.138965
0.138875
0.138775
0.13866
0.138529
0.13838
0.13821
0.138018
0.137801
0.137553
0.137273
0.136954
0.136591
0.136177
0.1357
0.135151
0.134469
0.133732
0.132166
0.139909
0.139901
0.139886
0.139868
0.139848
0.139825
0.139799
0.139772
0.139741
0.139709
0.139674
0.139636
0.139594
0.139547
0.139496
0.139438
0.139374
0.139301
0.139219
0.139127
0.139022
0.138903
0.138769
0.13862
0.138455
0.138271
0.138064
0.13783
0.137563
0.137258
0.136909
0.136504
0.136032
0.135476
0.134808
0.133993
0.132899
0.131643
0.128495
0.139911
0.139905
0.139891
0.139873
0.139866
0.139853
0.139832
0.139803
0.13977
0.139732
0.139691
0.139649
0.139605
0.139559
0.139512
0.139464
0.139412
0.139358
0.1393
0.139237
0.139169
0.139093
0.139008
0.138912
0.138801
0.138675
0.138532
0.13837
0.138187
0.137978
0.137742
0.137473
0.137167
0.136818
0.136415
0.135951
0.135376
0.134751
0.133464
0.13999
0.139981
0.139966
0.139949
0.13993
0.139909
0.139886
0.139862
0.139836
0.139808
0.139777
0.139744
0.139708
0.139668
0.139623
0.139574
0.139518
0.139455
0.139383
0.139303
0.139212
0.139109
0.138993
0.138864
0.138722
0.138564
0.138387
0.138186
0.137958
0.137697
0.137398
0.137053
0.13665
0.136177
0.135609
0.134919
0.133992
0.132928
0.130405
0.139993
0.139988
0.139974
0.139956
0.139949
0.139938
0.139919
0.139894
0.139864
0.13983
0.139793
0.139755
0.139716
0.139677
0.139636
0.139594
0.13955
0.139503
0.139454
0.139401
0.139342
0.139278
0.139206
0.139124
0.13903
0.138924
0.138803
0.138665
0.13851
0.138334
0.138133
0.137906
0.137646
0.13735
0.137009
0.136615
0.136129
0.135597
0.134536
0.140061
0.140051
0.140036
0.14002
0.140002
0.139983
0.139963
0.139942
0.13992
0.139896
0.13987
0.139842
0.13981
0.139776
0.139737
0.139693
0.139645
0.13959
0.139527
0.139457
0.139378
0.139288
0.139188
0.139076
0.138953
0.138817
0.138663
0.13849
0.138294
0.138069
0.137813
0.137516
0.137172
0.136766
0.136281
0.135693
0.134909
0.133992
0.131996
0.140066
0.140061
0.140047
0.140029
0.140023
0.140013
0.139997
0.139973
0.139946
0.139915
0.139882
0.139848
0.139814
0.139779
0.139743
0.139707
0.139669
0.139629
0.139587
0.139541
0.139492
0.139437
0.139376
0.139306
0.139226
0.139135
0.139032
0.138915
0.138783
0.138633
0.138463
0.138269
0.138049
0.137797
0.137506
0.137171
0.136758
0.136303
0.135426
0.140124
0.140113
0.140097
0.140082
0.140066
0.140049
0.140032
0.140014
0.139995
0.139975
0.139953
0.139929
0.139902
0.139872
0.139838
0.1398
0.139757
0.139709
0.139654
0.139593
0.139523
0.139445
0.139357
0.13926
0.139154
0.139035
0.138902
0.138752
0.138582
0.138389
0.138167
0.137911
0.137615
0.137266
0.13685
0.136345
0.135682
0.134885
0.133305
0.140129
0.140126
0.140112
0.140094
0.140088
0.14008
0.140065
0.140044
0.140019
0.139991
0.139961
0.13993
0.139899
0.139869
0.139837
0.139806
0.139773
0.139738
0.139702
0.139663
0.139621
0.139574
0.139522
0.139462
0.139394
0.139316
0.139228
0.139128
0.139016
0.138888
0.138742
0.138577
0.138389
0.138174
0.137926
0.137639
0.137288
0.136898
0.13617
0.140179
0.140167
0.140152
0.140137
0.140123
0.140108
0.140094
0.14008
0.140065
0.140048
0.140029
0.140008
0.139985
0.139958
0.139928
0.139895
0.139857
0.139815
0.139767
0.139713
0.139651
0.139583
0.139506
0.139421
0.139329
0.139226
0.13911
0.13898
0.138832
0.138664
0.138472
0.138251
0.137994
0.137693
0.137335
0.1369
0.136338
0.135643
0.13438
0.140186
0.140183
0.14017
0.140151
0.140146
0.140139
0.140126
0.140106
0.140083
0.140057
0.14003
0.140002
0.139975
0.139948
0.13992
0.139893
0.139864
0.139835
0.139803
0.13977
0.139734
0.139694
0.139649
0.139598
0.139539
0.139472
0.139397
0.139312
0.139215
0.139105
0.138981
0.13884
0.138678
0.138494
0.138282
0.138037
0.137737
0.137402
0.136795
0.140227
0.140215
0.1402
0.140187
0.140174
0.140163
0.140152
0.14014
0.140128
0.140114
0.140098
0.14008
0.140059
0.140036
0.140009
0.13998
0.139947
0.139909
0.139867
0.139819
0.139765
0.139705
0.139638
0.139563
0.139482
0.139392
0.139292
0.139178
0.139049
0.138903
0.138736
0.138544
0.138322
0.138061
0.137751
0.137374
0.136903
0.136295
0.13527
0.140235
0.140235
0.140222
0.140203
0.140198
0.140192
0.14018
0.140162
0.14014
0.140116
0.140091
0.140067
0.140042
0.140018
0.139994
0.13997
0.139945
0.13992
0.139893
0.139864
0.139833
0.139799
0.13976
0.139716
0.139666
0.139608
0.139543
0.13947
0.139387
0.139293
0.139186
0.139065
0.138927
0.138769
0.138586
0.138376
0.138119
0.137831
0.137323
0.14027
0.140257
0.140244
0.140232
0.140221
0.140213
0.140205
0.140196
0.140186
0.140174
0.14016
0.140144
0.140126
0.140106
0.140083
0.140057
0.140027
0.139994
0.139957
0.139915
0.139867
0.139814
0.139755
0.139689
0.139618
0.139539
0.139451
0.139352
0.139239
0.139112
0.138966
0.138799
0.138605
0.138379
0.138111
0.137781
0.137399
0.136867
0.136021
0.14028
0.140281
0.140269
0.140249
0.140245
0.14024
0.140229
0.140212
0.140191
0.140169
0.140146
0.140124
0.140103
0.140081
0.14006
0.140039
0.140018
0.139996
0.139972
0.139948
0.139921
0.139891
0.139858
0.13982
0.139777
0.139727
0.139671
0.139608
0.139537
0.139456
0.139364
0.13926
0.139141
0.139005
0.138849
0.138667
0.138447
0.138199
0.137773
0.140308
0.140296
0.140283
0.140272
0.140265
0.140259
0.140254
0.140248
0.140239
0.140229
0.140217
0.140203
0.140187
0.14017
0.14015
0.140127
0.140101
0.140072
0.140039
0.140002
0.139959
0.139912
0.13986
0.139802
0.139739
0.13967
0.139592
0.139505
0.139407
0.139295
0.139167
0.139021
0.138853
0.138656
0.138427
0.13814
0.137832
0.137371
0.136664
0.140319
0.140322
0.14031
0.14029
0.140287
0.140283
0.140273
0.140256
0.140236
0.140216
0.140196
0.140176
0.140157
0.140138
0.14012
0.140102
0.140083
0.140064
0.140044
0.140022
0.139999
0.139974
0.139945
0.139912
0.139875
0.139832
0.139784
0.13973
0.139669
0.1396
0.139521
0.139432
0.13933
0.139213
0.139078
0.138921
0.138731
0.138517
0.138157
0.140342
0.14033
0.140318
0.14031
0.140306
0.140303
0.1403
0.140294
0.140287
0.140279
0.140269
0.140257
0.140244
0.140229
0.140211
0.140192
0.140169
0.140143
0.140114
0.140081
0.140043
0.140001
0.139955
0.139904
0.139848
0.139787
0.139719
0.139642
0.139555
0.139457
0.139345
0.139217
0.139071
0.138902
0.138711
0.13847
0.138215
0.137819
0.137223
0.140353
0.140359
0.140348
0.140328
0.140325
0.140322
0.140312
0.140295
0.140277
0.140258
0.14024
0.140223
0.140206
0.14019
0.140174
0.140158
0.140142
0.140125
0.140108
0.140089
0.140069
0.140048
0.140023
0.139995
0.139963
0.139927
0.139886
0.139841
0.139789
0.13973
0.139663
0.139586
0.139499
0.139398
0.139282
0.139146
0.138982
0.138796
0.13849
0.140373
0.140361
0.14035
0.140345
0.140344
0.140343
0.140341
0.140337
0.140332
0.140325
0.140317
0.140308
0.140297
0.140284
0.140269
0.140251
0.140231
0.140209
0.140183
0.140153
0.14012
0.140083
0.140042
0.139996
0.139947
0.139893
0.139833
0.139765
0.139688
0.139602
0.139503
0.139393
0.13927
0.139129
0.138972
0.138774
0.138558
0.138222
0.137716
0.140384
0.140392
0.140382
0.140361
0.140359
0.140357
0.140347
0.140331
0.140313
0.140297
0.140281
0.140265
0.140251
0.140237
0.140223
0.140209
0.140195
0.140181
0.140166
0.14015
0.140134
0.140115
0.140095
0.140072
0.140045
0.140015
0.139982
0.139945
0.139902
0.139853
0.139796
0.139732
0.139657
0.13957
0.139469
0.139352
0.139209
0.139047
0.138784
0.1404
0.14039
0.140379
0.140378
0.14038
0.140381
0.140379
0.140377
0.140373
0.140369
0.140363
0.140355
0.140346
0.140335
0.140322
0.140307
0.14029
0.14027
0.140247
0.140221
0.140191
0.140158
0.140121
0.140081
0.140037
0.139989
0.139936
0.139876
0.139808
0.139732
0.139648
0.139556
0.139455
0.13934
0.13921
0.139047
0.138863
0.138584
0.138155
0.140412
0.140422
0.140413
0.140392
0.140391
0.140389
0.140378
0.140363
0.140346
0.140332
0.140318
0.140305
0.140292
0.14028
0.140268
0.140256
0.140244
0.140232
0.14022
0.140207
0.140193
0.140179
0.140163
0.140145
0.140125
0.140103
0.140078
0.140048
0.140014
0.139974
0.139927
0.139873
0.139809
0.139734
0.139647
0.139545
0.139421
0.139278
0.139049
0.140425
0.140415
0.140407
0.14041
0.140414
0.140414
0.140414
0.140414
0.140412
0.140409
0.140405
0.140399
0.140392
0.140383
0.140372
0.140359
0.140344
0.140327
0.140307
0.140284
0.140257
0.140228
0.140195
0.140159
0.14012
0.140078
0.14003
0.139977
0.139918
0.139854
0.139786
0.13971
0.139627
0.139532
0.139423
0.139288
0.139132
0.138902
0.138542
0.140436
0.140448
0.14044
0.140419
0.140419
0.140417
0.140406
0.140391
0.140376
0.140364
0.140352
0.140341
0.14033
0.140319
0.140309
0.1403
0.14029
0.140281
0.140271
0.140261
0.140251
0.140241
0.140231
0.140221
0.140209
0.140195
0.140177
0.140155
0.140128
0.140096
0.140057
0.140012
0.139957
0.139894
0.139818
0.139729
0.13962
0.139495
0.139294
0.140448
0.140438
0.140432
0.140441
0.140444
0.140444
0.140446
0.140448
0.140447
0.140446
0.140444
0.14044
0.140434
0.140427
0.140418
0.140408
0.140396
0.140382
0.140365
0.140345
0.140323
0.140297
0.140268
0.140235
0.140201
0.140162
0.140121
0.140075
0.140026
0.139974
0.139917
0.139855
0.139785
0.139705
0.139614
0.1395
0.139368
0.139179
0.138881
0.140457
0.140469
0.140463
0.140444
0.140444
0.140443
0.140431
0.140417
0.140404
0.140393
0.140383
0.140374
0.140365
0.140357
0.140349
0.140341
0.140334
0.140328
0.140321
0.140316
0.14031
0.140306
0.140304
0.140301
0.140296
0.140287
0.140275
0.140259
0.140239
0.140215
0.140185
0.140148
0.140103
0.140048
0.139983
0.139906
0.13981
0.139699
0.139528
0.140468
0.140459
0.140456
0.140467
0.140469
0.14047
0.140474
0.140475
0.140476
0.140477
0.140476
0.140473
0.14047
0.140466
0.14046
0.140454
0.140445
0.140435
0.140423
0.140409
0.140392
0.140373
0.14035
0.140324
0.140296
0.140264
0.140228
0.140189
0.140147
0.1401
0.14005
0.139994
0.139933
0.139863
0.139784
0.139688
0.139575
0.139418
0.139173
0.140475
0.140482
0.140479
0.140465
0.140465
0.140463
0.140453
0.140439
0.140429
0.140421
0.140412
0.140405
0.140398
0.140392
0.140387
0.140382
0.140378
0.140375
0.140372
0.14037
0.14037
0.14037
0.140372
0.140372
0.14037
0.140364
0.140357
0.140347
0.140335
0.140319
0.1403
0.140274
0.140241
0.140199
0.140145
0.140078
0.139995
0.139893
0.13976
0.140484
0.140477
0.140477
0.140485
0.140486
0.140488
0.140491
0.140493
0.140494
0.140495
0.140495
0.140495
0.140494
0.140493
0.14049
0.140487
0.140483
0.140478
0.140471
0.140464
0.140454
0.140443
0.140429
0.140413
0.140393
0.14037
0.140343
0.140311
0.140275
0.140234
0.140188
0.140136
0.140079
0.140014
0.139942
0.139857
0.139758
0.139625
0.139425
0.140487
0.140491
0.140488
0.140479
0.140478
0.140476
0.140469
0.140459
0.140451
0.140445
0.140438
0.140433
0.140428
0.140425
0.140422
0.14042
0.140418
0.140417
0.140417
0.140417
0.140417
0.140417
0.140418
0.140418
0.140416
0.140413
0.140408
0.140402
0.140395
0.140386
0.140375
0.140361
0.140343
0.140318
0.140284
0.140235
0.14017
0.140079
0.139977
0.140493
0.14049
0.14049
0.140495
0.140497
0.140498
0.140501
0.140503
0.140505
0.140507
0.140508
0.140509
0.140509
0.140509
0.140508
0.140507
0.140505
0.140503
0.1405
0.140496
0.140491
0.140484
0.140477
0.140468
0.140458
0.140445
0.140428
0.140408
0.140383
0.140353
0.140316
0.140273
0.140222
0.140163
0.140095
0.140016
0.139927
0.139809
0.139643
0.140494
0.140496
0.140494
0.140487
0.140485
0.140483
0.140478
0.140471
0.140466
0.140462
0.140458
0.140454
0.140452
0.14045
0.140449
0.140447
0.140446
0.140446
0.140445
0.140445
0.140445
0.140445
0.140445
0.140445
0.140444
0.140442
0.140439
0.140436
0.140432
0.140427
0.140421
0.140413
0.140403
0.140389
0.140371
0.140344
0.14031
0.140239
0.140164
0.140498
0.140496
0.140497
0.140501
0.140503
0.140505
0.140508
0.14051
0.140513
0.140515
0.140517
0.140518
0.140519
0.14052
0.14052
0.14052
0.14052
0.140519
0.140518
0.140516
0.140514
0.14051
0.140506
0.140501
0.140495
0.140488
0.14048
0.140469
0.140455
0.140437
0.140414
0.140384
0.140346
0.140298
0.14024
0.140169
0.140087
0.139979
0.139836
0.140498
0.140499
0.140497
0.140492
0.140489
0.140487
0.140483
0.140478
0.140474
0.140471
0.140469
0.140466
0.140465
0.140464
0.140463
0.140462
0.140462
0.140461
0.140461
0.140461
0.140461
0.140461
0.140461
0.140461
0.140461
0.14046
0.140459
0.140458
0.140456
0.140453
0.14045
0.140446
0.14044
0.140433
0.140423
0.140408
0.140391
0.140352
0.140306
0.1405
0.1405
0.140501
0.140505
0.140507
0.14051
0.140513
0.140515
0.140518
0.140521
0.140523
0.140525
0.140527
0.140528
0.140529
0.14053
0.140531
0.140531
0.140531
0.140531
0.14053
0.140528
0.140526
0.140523
0.14052
0.140516
0.140511
0.140505
0.140497
0.140488
0.140475
0.140458
0.140435
0.140404
0.140362
0.140306
0.140236
0.14014
0.140014
0.1405
0.140501
0.140499
0.140494
0.140492
0.140489
0.140485
0.140481
0.140478
0.140476
0.140475
0.140473
0.140472
0.140472
0.140471
0.140471
0.140471
0.140471
0.140471
0.140471
0.140471
0.140472
0.140472
0.140473
0.140473
0.140473
0.140473
0.140473
0.140472
0.140471
0.14047
0.140468
0.140465
0.140461
0.140456
0.140448
0.140439
0.140419
0.140396
0.140502
0.140502
0.140503
0.140507
0.14051
0.140512
0.140516
0.140519
0.140522
0.140525
0.140527
0.14053
0.140532
0.140534
0.140536
0.140538
0.140539
0.14054
0.140541
0.140541
0.140541
0.140541
0.14054
0.140539
0.140538
0.140535
0.140533
0.140529
0.140525
0.140519
0.140512
0.140504
0.140492
0.140475
0.14045
0.140413
0.140363
0.140284
0.140178
0.140501
0.140501
0.140499
0.140495
0.140493
0.14049
0.140486
0.140483
0.14048
0.140479
0.140478
0.140477
0.140477
0.140476
0.140476
0.140476
0.140477
0.140477
0.140477
0.140478
0.140478
0.140479
0.140479
0.14048
0.140481
0.140482
0.140482
0.140483
0.140483
0.140483
0.140483
0.140483
0.140482
0.140481
0.140479
0.140475
0.14047
0.140459
0.140449
0.140502
0.140503
0.140505
0.140508
0.140511
0.140514
0.140518
0.140521
0.140525
0.140528
0.140531
0.140534
0.140536
0.140539
0.140541
0.140543
0.140545
0.140547
0.140548
0.14055
0.140551
0.140551
0.140552
0.140552
0.140551
0.14055
0.140549
0.140547
0.140545
0.140541
0.140538
0.140533
0.140527
0.140518
0.140506
0.140486
0.140456
0.140402
0.140321
0.140501
0.140501
0.140499
0.140495
0.140492
0.140489
0.140486
0.140483
0.140481
0.14048
0.140479
0.140479
0.140479
0.140479
0.140479
0.14048
0.14048
0.14048
0.140481
0.140482
0.140482
0.140483
0.140484
0.140485
0.140487
0.140488
0.140489
0.14049
0.140491
0.140492
0.140493
0.140494
0.140494
0.140495
0.140494
0.140493
0.140492
0.140486
0.140482
0.140502
0.140503
0.140505
0.140508
0.140512
0.140515
0.140519
0.140523
0.140526
0.14053
0.140533
0.140536
0.140539
0.140542
0.140545
0.140548
0.14055
0.140552
0.140555
0.140556
0.140558
0.14056
0.140561
0.140562
0.140562
0.140562
0.140562
0.140561
0.14056
0.140559
0.140557
0.140554
0.140551
0.140546
0.140541
0.140531
0.140517
0.140485
0.140436
0.140501
0.1405
0.140498
0.140494
0.140491
0.140488
0.140485
0.140482
0.140481
0.14048
0.140479
0.140479
0.14048
0.14048
0.140481
0.140481
0.140482
0.140482
0.140483
0.140484
0.140485
0.140486
0.140487
0.140489
0.14049
0.140491
0.140493
0.140494
0.140496
0.140498
0.140499
0.140501
0.140503
0.140504
0.140505
0.140506
0.140507
0.140504
0.140504
0.140501
0.140502
0.140504
0.140508
0.140512
0.140515
0.140519
0.140523
0.140527
0.140531
0.140535
0.140538
0.140542
0.140545
0.140548
0.140551
0.140554
0.140557
0.140559
0.140562
0.140564
0.140566
0.140568
0.14057
0.140571
0.140572
0.140573
0.140573
0.140573
0.140573
0.140572
0.140571
0.14057
0.140567
0.140565
0.14056
0.140555
0.140538
0.140517
0.140499
0.140498
0.140496
0.140493
0.14049
0.140486
0.140483
0.140481
0.140479
0.140479
0.140478
0.140479
0.140479
0.14048
0.140481
0.140481
0.140482
0.140483
0.140484
0.140485
0.140486
0.140487
0.140489
0.14049
0.140492
0.140494
0.140495
0.140497
0.140499
0.140501
0.140503
0.140506
0.140508
0.14051
0.140513
0.140515
0.140517
0.140517
0.14052
0.140499
0.140501
0.140503
0.140507
0.140511
0.140515
0.140519
0.140523
0.140528
0.140532
0.140536
0.14054
0.140543
0.140547
0.14055
0.140554
0.140557
0.14056
0.140563
0.140566
0.140569
0.140572
0.140574
0.140576
0.140578
0.14058
0.140581
0.140582
0.140584
0.140584
0.140585
0.140585
0.140585
0.140585
0.140584
0.140581
0.14058
0.140571
0.140568
0.140498
0.140496
0.140494
0.140491
0.140487
0.140484
0.140481
0.140478
0.140477
0.140477
0.140477
0.140477
0.140478
0.140479
0.14048
0.140481
0.140482
0.140483
0.140484
0.140485
0.140486
0.140487
0.140489
0.14049
0.140492
0.140494
0.140496
0.140498
0.140501
0.140503
0.140506
0.140508
0.140511
0.140514
0.140517
0.14052
0.140524
0.140526
0.140531
0.140497
0.140499
0.140502
0.140506
0.14051
0.140514
0.140519
0.140523
0.140528
0.140532
0.140536
0.14054
0.140544
0.140548
0.140552
0.140556
0.140559
0.140563
0.140566
0.14057
0.140573
0.140576
0.140579
0.140582
0.140584
0.140586
0.140588
0.14059
0.140592
0.140594
0.140595
0.140597
0.140598
0.140599
0.140599
0.140599
0.1406
0.140594
0.1406
0.140495
0.140494
0.140492
0.140488
0.140484
0.140481
0.140477
0.140475
0.140474
0.140474
0.140474
0.140475
0.140476
0.140477
0.140478
0.140479
0.14048
0.140481
0.140482
0.140483
0.140485
0.140486
0.140488
0.140489
0.140491
0.140493
0.140496