/*--------------------------------*- C++ -*----------------------------------*\
| =========                 |                                                 |
| \\      /  F ield         | OpenFOAM: The Open Source CFD Toolbox           |
|  \\    /   O peration     | Version:  3.0.0                                 |
|   \\  /    A nd           | Web:      www.OpenFOAM.org                      |
|    \\/     M anipulation  |                                                 |
\*---------------------------------------------------------------------------*/
FoamFile
{
    version     2.0;
    format      ascii;
    class       volScalarField;
    location    "349";
    object      p;
}
// * * * * * * * * * * * * * * * * * * * * * * * * * * * * * * * * * * * * * //

dimensions      [0 2 -2 0 0 0 0];

internalField   nonuniform List<scalar> 
10720
(
3.77088e-05
-80.7966
-175.485
-266.022
-346.661
-427.874
-497.501
-553.467
-600.526
-635.046
-659.165
-675.154
-684.26
-687.043
-683.926
-674.441
-659.798
-638.691
-612.359
-579.424
-540.99
-496.251
-447.52
-395.744
-344.469
-298.818
-257.699
-217.409
-177.635
-138.581
-100.04
-61.847
-23.8797
14.1156
52.403
92.1268
133.465
182.387
228.986
83.73
160.372
245.794
328.311
402.015
462.599
506.129
530.103
537.597
534.487
521.836
502.713
481.459
460.05
439.239
419.089
399.891
381.42
363.49
345.667
327.913
309.935
291.811
273.904
257.991
245.115
234.335
225.308
218.047
212.615
208.937
206.9
206.42
207.496
210.13
214.706
221.723
234.746
257.499
148.744
86.5514
18.0306
-53.386
-125.553
-198.359
-267.793
-331.727
-389.697
-439.945
-482.572
-517.654
-545.022
-564.856
-577.083
-581.859
-579.846
-570.564
-554.627
-531.441
-501.656
-465.042
-423.398
-377.941
-331.85
-289.531
-250.468
-211.757
-173.197
-135.089
-97.3138
-59.7418
-22.2756
15.3212
53.3002
92.7885
133.948
182.796
228.657
205.389
260.132
315.865
371.394
422.449
466.297
499.715
520.228
528.479
526.554
516.155
500.272
481.742
462.175
442.42
422.865
403.841
385.342
367.267
349.352
331.529
313.614
295.686
278.123
262.314
249.157
238.017
228.61
220.968
215.156
211.111
208.744
207.971
208.787
211.202
215.605
222.485
235.429
257.189
172.275
116.501
54.7774
-12.5044
-81.1511
-150.345
-218.499
-282.721
-341.401
-393.668
-438.366
-475.064
-503.848
-525.182
-539.214
-546.233
-546.415
-539.648
-526.2
-505.894
-479.104
-445.929
-407.708
-365.776
-322.753
-282.256
-244.358
-206.803
-169.249
-131.965
-94.8721
-57.8526
-20.827
16.4208
54.1289
93.4031
134.389
183.063
228.504
223.331
274.043
325.611
375.845
421.004
459.399
488.762
507.423
516.031
515.835
508.096
495.021
478.677
460.613
441.849
422.962
404.326
386.069
368.16
350.429
332.79
315.128
297.507
280.279
264.55
251.193
239.863
230.291
222.49
216.515
212.314
209.8
208.893
209.586
211.899
216.222
223.043
235.874
256.7
209.724
162.791
109.928
52.52
-6.98173
-68.3942
-129.928
-189.659
-246.178
-298.366
-345.116
-385.784
-420.058
-447.828
-468.956
-483.269
-490.524
-490.611
-483.578
-469.384
-448.284
-420.563
-387.322
-349.962
-310.754
-272.787
-236.627
-200.613
-164.345
-128.101
-91.8654
-55.5461
-19.0835
17.716
55.0741
94.0648
134.813
183.187
228.24
252.225
293.743
336.162
378.239
416.506
449.692
475.762
493.109
502.06
503.364
497.927
487.44
473.495
457.434
440.241
422.527
404.706
387.003
369.466
352.022
334.619
317.207
299.863
282.921
267.295
253.81
242.31
232.549
224.539
218.337
213.907
211.171
210.058
210.567
212.727
216.927
223.646
236.293
256.195
224.625
182.808
135.473
83.6484
29.7429
-26.5934
-83.8595
-140.275
-194.736
-246.069
-293.109
-335.076
-371.361
-401.529
-425.268
-442.253
-452.33
-455.412
-451.484
-440.596
-422.92
-398.805
-369.159
-335.31
-299.219
-263.461
-228.844
-194.2
-159.124
-123.881
-88.505
-52.9176
-17.0679
19.2245
56.1689
94.8093
135.246
183.214
227.733
262.619
299.539
337.31
374.675
408.582
438.232
461.916
478.299
487.509
490.014
486.567
478.419
466.781
452.756
437.235
420.828
403.978
386.977
369.951
352.912
335.852
318.772
301.766
285.152
269.696
256.152
244.516
234.596
226.408
220.012
215.386
212.461
211.174
211.527
213.553
217.642
224.257
236.693
255.66
236.127
199.066
156.835
110.608
62.4453
11.6625
-40.3199
-92.0875
-142.819
-191.415
-236.869
-278.408
-315.322
-347.031
-373.093
-393.122
-406.844
-413.994
-414.347
-407.85
-394.574
-374.832
-349.383
-319.453
-286.761
-253.489
-220.619
-187.447
-153.63
-119.43
-84.9361
-50.1
-14.8849
20.8723
57.3673
95.6083
135.671
183.116
226.987
269.771
302.296
335.766
369.082
399.418
426.229
448.001
463.577
472.931
476.367
474.545
468.404
458.871
446.833
433.058
418.109
402.423
386.32
369.983
353.49
336.885
320.212
303.587
287.318
272.062
258.509
246.768
236.714
228.362
221.78
216.957
213.837
212.365
212.547
214.425
218.386
224.876
237.059
255.077
241.993
208.529
170.275
128.346
84.7228
38.4447
-9.21418
-57.0102
-104.38
-150.327
-193.965
-234.583
-271.424
-303.831
-331.262
-353.225
-369.237
-378.99
-382.174
-378.722
-368.685
-352.349
-330.356
-303.8
-274.164
-243.267
-212.144
-180.45
-147.916
-114.787
-81.1974
-47.131
-12.5698
22.6297
58.6461
96.4473
136.073
182.878
226.009
272.394
301.67
331.915
362.103
389.647
414.185
434.409
449.272
458.656
462.803
462.284
457.825
450.151
439.964
427.904
414.458
400.031
384.948
369.425
353.591
337.535
321.343
305.151
289.261
274.25
260.749
248.95
238.792
230.3
223.547
218.537
215.228
213.574
213.586
215.314
219.141
225.493
237.382
254.451
245.249
214.866
180.035
141.879
102.263
60.0711
16.484
-27.4144
-71.2483
-114.162
-155.376
-194.287
-230.184
-262.4
-290.342
-313.458
-331.212
-343.247
-349.18
-348.812
-342.097
-329.236
-310.744
-287.566
-260.988
-232.541
-203.27
-173.124
-141.93
-109.924
-77.2804
-44.0178
-10.1379
24.4813
59.9936
97.3199
136.45
182.507
224.805
272.882
299.415
326.954
354.542
379.78
402.421
421.346
435.556
444.876
449.552
450.056
446.984
440.912
432.397
421.96
410.002
396.884
382.911
368.309
353.24
337.827
322.19
306.487
291.013
276.289
262.895
251.082
240.851
232.242
225.333
220.146
216.653
214.818
214.658
216.23
219.912
226.109
237.662
253.788
246.44
218.618
186.67
151.689
115.466
76.8055
36.7766
-3.64074
-44.2274
-84.2301
-122.991
-160.012
-194.639
-226.232
-254.201
-277.956
-296.92
-310.639
-318.68
-320.747
-316.75
-306.833
-291.409
-271.283
-247.55
-221.484
-194.081
-165.503
-135.679
-104.835
-73.1757
-40.7544
-7.58969
26.4183
61.3999
98.2202
136.81
182.019
223.395
271.773
296.044
321.338
346.756
370.056
391.095
408.901
422.506
431.697
436.745
438.048
436.103
431.389
424.351
415.406
404.878
393.07
380.253
366.644
352.42
337.73
322.718
307.558
292.54
278.147
264.917
253.138
242.869
234.168
227.124
221.773
218.102
216.089
215.756
217.168
220.696
226.719
237.898
253.087
246.344
220.724
191.27
159.052
125.784
90.2341
53.3982
16.1588
-21.378
-58.5453
-94.8005
-129.74
-162.774
-193.337
-220.856
-244.731
-264.38
-279.305
-289.058
-293.255
-291.731
-284.549
-272.008
-254.777
-233.777
-210.062
-184.558
-157.581
-129.158
-99.5134
-68.8765
-37.3324
-4.91867
28.4438
62.8615
99.1416
137.153
181.431
221.812
269.705
292.046
315.425
338.989
360.631
380.287
397.109
410.14
419.159
424.457
426.374
425.337
421.761
416.004
408.405
399.216
388.681
377.031
364.46
351.144
337.243
322.917
308.352
293.834
279.816
266.802
255.106
244.836
236.072
228.913
223.412
219.573
217.386
216.879
218.127
221.489
227.323
238.09
252.351
245.354
221.639
194.351
164.538
133.85
101.035
67.0288
32.6335
-2.10979
-36.6221
-70.4587
-103.303
-134.631
-163.945
-190.717
-214.375
-234.336
-250.077
-261.126
-267.05
-267.604
-262.792
-252.823
-238.233
-219.785
-198.34
-174.733
-149.374
-122.375
-93.9621
-64.3815
-33.7487
-2.12074
30.5612
64.3795
100.081
137.477
180.751
220.086
267.011
287.693
309.416
331.376
351.574
370.025
385.962
398.446
407.27
412.721
415.101
414.794
412.162
407.505
401.1
393.14
383.816
373.312
361.795
349.425
336.365
322.779
308.856
294.879
281.279
268.534
256.971
246.738
237.942
230.692
225.057
221.06
218.704
218.025
219.104
222.291
227.917
238.237
251.583
243.777
221.733
196.352
168.658
140.242
109.852
78.3754
46.5492
14.3581
-17.6824
-49.2069
-79.9749
-109.532
-137.451
-163.254
-186.404
-206.346
-222.554
-234.542
-241.864
-244.19
-241.467
-233.819
-221.658
-205.603
-186.348
-164.623
-140.892
-115.334
-88.1813
-59.69
-30.0023
0.805893
32.772
65.9549
101.036
137.781
179.985
218.242
263.943
283.176
303.45
323.998
342.927
360.313
375.443
387.407
396.014
401.544
404.272
404.546
402.691
398.97
393.612
386.763
378.567
369.166
358.695
347.291
335.105
322.302
309.064
295.667
282.528
270.1
258.718
248.563
239.767
232.451
226.702
222.559
220.04
219.19
220.097
223.099
228.498
238.341
250.785
241.817
221.248
197.561
171.748
145.346
117.117
87.903
58.3936
28.5262
-1.24004
-30.593
-59.3617
-87.1523
-113.606
-138.301
-160.749
-180.428
-196.824
-209.442
-217.847
-221.639
-220.708
-215.109
-205.145
-191.304
-174.135
-154.258
-132.152
-108.045
-82.1746
-54.8019
-26.0914
3.86262
35.0774
67.5874
102.006
138.06
179.137
216.289
260.66
278.621
297.608
316.904
334.703
351.136
365.528
376.994
385.37
390.922
393.904
394.635
393.42
390.489
386.039
380.181
373.022
364.666
355.212
344.773
333.481
321.488
308.97
296.19
283.551
271.487
260.333
250.298
241.536
234.181
228.338
224.063
221.389
220.371
221.103
223.91
229.066
238.402
249.96
239.618
220.364
198.192
174.063
149.462
123.168
95.9869
68.5704
40.8159
13.1421
-14.1857
-41.0496
-67.115
-92.0793
-115.585
-137.191
-156.41
-172.76
-185.745
-194.953
-199.937
-200.531
-196.73
-188.742
-176.941
-161.744
-143.667
-123.172
-100.518
-75.9469
-49.7188
-22.0156
7.05093
37.4785
69.2774
102.991
138.311
178.213
214.237
257.28
274.106
291.948
310.117
326.903
342.471
356.181
367.176
375.311
380.842
384.003
385.094
384.399
382.133
378.463
373.482
367.263
359.881
351.401
341.909
331.513
320.349
308.576
296.445
284.342
272.685
261.805
251.93
243.236
235.872
229.957
225.565
222.747
221.565
222.119
224.721
229.617
238.423
249.113
237.281
219.21
198.403
175.79
152.806
128.255
102.911
77.3863
51.5578
25.8087
0.359971
-24.7103
-49.1178
-72.6144
-94.8898
-115.559
-134.178
-150.297
-163.436
-173.202
-179.127
-180.995
-178.75
-172.519
-162.576
-149.228
-132.886
-113.974
-92.768
-69.5054
-44.4435
-17.7759
10.3714
39.9757
71.0251
103.991
138.532
177.215
212.096
253.881
269.688
286.497
303.649
319.516
334.294
347.371
357.919
365.806
371.281
374.564
375.932
375.662
373.952
370.952
366.739
361.365
354.878
347.317
338.739
329.229
318.898
307.889
296.432
284.895
273.683
263.121
253.448
244.857
237.514
231.551
227.06
224.107
222.766
223.14
225.529
230.149
238.405
248.246
234.879
217.881
198.311
177.073
155.549
132.577
108.899
85.0913
61.0194
37.0359
13.3242
-10.0678
-32.8965
-54.9612
-76.0021
-95.6798
-113.597
-129.341
-142.457
-152.566
-159.213
-162.125
-161.208
-156.524
-148.262
-136.633
-121.948
-104.584
-84.8108
-62.86
-38.9812
-13.3739
13.8233
42.5697
72.8308
105.005
138.723
176.15
209.876
250.518
265.403
281.274
297.498
312.53
326.58
339.065
349.189
356.827
362.22
365.578
367.16
367.233
365.985
363.557
360.012
355.391
349.719
343.014
335.307
326.659
317.156
306.918
296.152
285.209
274.477
264.271
254.839
246.388
239.096
233.11
228.539
225.464
223.969
224.164
226.331
230.66
238.35
247.364
232.465
216.443
198
178.016
157.818
136.283
114.12
91.8781
69.4117
47.0449
24.9381
3.11441
-18.2235
-38.911
-58.7335
-77.3959
-94.5448
-109.807
-122.757
-133.03
-140.199
-143.95
-144.15
-140.813
-134.057
-124.01
-110.896
-95.0309
-76.6662
-56.0233
-33.3389
-8.81334
17.4055
45.26
74.6944
106.035
138.885
175.026
207.586
247.227
261.275
276.288
291.661
305.93
319.303
331.233
340.954
348.342
353.636
357.031
358.772
359.122
358.259
356.317
353.352
349.396
344.46
338.544
331.658
323.838
315.146
305.677
295.614
285.284
275.06
265.247
256.093
247.816
240.607
234.624
229.993
226.81
225.17
225.185
227.124
231.148
238.261
246.471
230.077
214.948
197.541
178.702
159.717
139.493
118.714
97.9019
76.9059
56.0255
35.4012
15.0327
-4.9039
-24.2808
-42.9172
-60.5599
-76.9008
-91.6006
-104.271
-114.558
-122.079
-126.482
-127.608
-125.431
-120.011
-111.409
-99.7704
-85.3444
-68.3564
-49.0102
-27.5256
-4.0992
21.1154
48.0455
76.6152
107.08
139.021
173.851
205.237
244.035
257.317
271.541
286.131
299.694
312.439
323.847
333.182
340.324
345.504
348.907
350.767
351.339
350.795
349.263
346.8
343.428
339.151
333.956
327.834
320.801
312.895
304.185
294.826
285.123
275.431
266.042
257.2
249.132
242.037
236.085
231.415
228.139
226.362
226.199
227.903
231.611
238.141
245.571
227.741
213.435
196.979
179.196
161.321
142.301
122.791
103.291
83.642
64.129
44.8724
25.856
7.22992
-10.903
-28.3974
-45.0341
-60.5465
-74.631
-86.9353
-97.1191
-104.841
-109.732
-111.611
-110.419
-106.171
-98.8781
-88.6113
-75.5577
-59.9063
-41.8376
-21.5524
0.761906
24.9496
50.9247
78.5934
108.142
139.132
172.633
202.843
240.959
253.534
267.031
280.896
293.804
305.963
316.878
325.846
332.745
337.801
341.189
343.133
343.881
343.602
342.418
340.386
337.526
333.835
329.293
323.877
317.584
310.429
302.459
293.8
284.733
275.591
266.651
258.154
250.327
243.376
237.481
232.795
229.442
227.538
227.2
228.666
232.047
237.993
244.669
225.476
211.93
196.354
179.545
162.693
144.78
126.439
108.143
89.7345
71.4807
53.4889
35.7271
18.3272
1.36738
-15.0353
-30.6929
-45.3737
-58.8101
-70.682
-80.6689
-88.465
-93.7016
-96.1781
-95.8107
-92.5822
-86.4619
-77.4613
-65.7053
-51.3422
-34.5253
-15.4324
5.76164
28.9031
53.8951
80.6278
109.222
139.222
171.384
200.415
238.008
249.932
262.754
275.945
288.242
299.852
310.302
318.918
325.578
330.504
333.862
335.862
336.749
336.688
335.798
334.136
331.722
328.551
324.596
319.826
314.221
307.78
300.524
292.554
284.123
275.542
267.073
258.947
251.391
244.613
238.804
234.125
230.712
228.692
228.183
229.408
232.455
237.819
243.769
223.295
210.454
195.695
179.789
163.881
146.992
129.728
112.543
95.2778
78.1861
61.3612
44.7639
28.5059
12.6487
-2.71474
-17.4267
-31.2843
-44.0527
-55.4444
-65.1634
-72.9277
-78.388
-81.324
-81.6352
-79.2831
-74.2044
-66.3619
-55.8231
-42.6928
-27.0947
-9.18114
10.8899
32.9698
56.9538
82.7177
110.322
139.297
170.112
197.968
235.191
246.509
258.703
271.266
282.992
294.085
304.096
312.376
318.803
323.593
326.905
328.941
329.937
330.055
329.413
328.068
326.042
323.329
319.899
315.716
310.747
304.977
298.404
291.105
283.304
275.29
267.307
259.576
252.316
245.741
240.044
235.395
231.94
229.817
229.142
230.126
232.833
237.623
242.877
221.206
209.021
195.022
179.957
164.925
148.983
132.718
116.559
100.352
84.3334
68.5888
53.07
37.8765
23.0528
8.67107
-5.13152
-18.1844
-30.2792
-41.1594
-50.5547
-58.2015
-63.7812
-67.0568
-67.9152
-66.3068
-62.1451
-55.3525
-45.9466
-33.988
-19.5697
-2.81576
16.1351
37.1425
60.0965
84.8621
111.443
139.36
168.831
195.515
232.509
243.264
254.87
266.845
278.035
288.642
298.237
306.194
312.395
317.048
320.305
322.358
323.437
323.702
323.269
322.196
320.507
318.196
315.234
311.58
307.195
302.048
296.124
289.471
282.289
274.842
267.356
260.036
253.098
246.751
241.191
236.595
233.118
230.904
230.071
230.814
233.181
237.407
241.995
219.215
207.642
194.354
180.072
165.853
150.794
135.453
120.246
105.018
89.9949
75.2509
60.7344
46.5318
32.6751
19.2199
6.28323
-5.98865
-17.4144
-27.765
-36.7954
-44.2574
-49.8673
-53.3785
-54.6701
-53.6833
-50.3197
-44.4711
-36.111
-25.259
-11.975
3.64478
21.4834
41.4123
63.3191
87.0594
112.588
139.418
167.549
193.071
229.963
240.192
251.247
262.67
273.358
283.505
292.705
300.352
306.332
310.848
314.042
316.098
317.241
317.628
317.369
316.529
315.131
313.173
310.626
307.447
303.594
299.024
293.708
287.674
281.094
274.208
267.223
260.329
253.732
247.636
242.237
237.717
234.238
231.946
230.964
231.47
233.496
237.175
241.129
217.325
206.324
193.701
180.153
166.692
152.454
137.975
123.65
109.332
95.2303
81.4148
67.829
54.5499
41.5983
29.0156
16.9011
5.38009
-5.38722
-15.1995
-23.8354
-31.062
-36.629
-40.2864
-41.9097
-41.4349
-38.7599
-33.7537
-26.3518
-16.5378
-4.33739
10.1797
26.9207
45.7692
66.6151
89.3083
113.759
139.477
166.281
190.65
227.552
237.288
247.827
258.731
268.944
278.655
287.479
294.831
300.598
304.976
308.102
310.151
311.34
311.825
311.714
311.073
309.927
308.277
306.096
303.343
299.97
295.931
291.183
285.736
279.735
273.4
266.914
260.455
254.214
248.39
243.175
238.753
235.289
232.936
231.815
232.089
233.778
236.929
240.283
215.535
205.073
193.074
180.212
167.462
153.99
140.314
126.812
113.338
100.094
87.1406
74.4206
62.0008
49.8935
38.1309
26.795
15.9937
5.8669
-3.40739
-11.629
-18.5828
-24.0473
-27.7753
-29.6415
-29.5825
-27.4945
-23.2327
-16.7022
-7.85447
3.31577
16.768
32.4292
50.2021
69.9793
91.6064
114.959
139.545
165.036
188.268
225.274
234.547
244.599
255.014
264.778
274.076
282.544
289.613
295.173
299.415
302.469
304.501
305.724
306.288
306.302
305.83
304.903
303.521
301.662
299.288
296.349
292.793
288.571
283.676
278.231
272.429
266.438
260.417
254.544
249.008
243.997
239.694
236.265
233.866
232.617
232.667
234.025
236.671
239.46
213.847
203.891
192.478
180.262
168.176
155.421
142.496
129.762
117.075
104.628
92.4768
80.5626
68.9442
57.6258
46.632
36.0319
25.9169
16.4087
7.66642
-0.131415
-6.78426
-12.0998
-15.836
-17.8705
-18.1411
-16.5476
-12.9377
-7.19358
0.760691
10.9583
23.3849
37.9927
54.699
73.4031
93.9527
116.19
139.631
163.827
185.94
223.125
231.963
241.555
251.507
260.848
269.754
277.881
284.679
290.04
294.148
297.127
299.136
300.382
301.011
301.128
300.801
300.062
298.914
297.339
295.3
292.75
289.634
285.895
281.516
276.598
271.311
265.804
260.22
254.722
249.488
244.699
240.533
237.158
234.728
233.364
233.2
234.238
236.404
238.664
212.258
202.779
191.919
180.31
168.848
156.766
144.544
132.527
120.575
108.872
97.4668
86.3027
75.4303
64.8495
54.576
44.6692
35.2065
26.2937
18.0725
10.7011
4.36705
-0.761744
-4.45571
-6.59374
-7.11898
-5.93807
-2.89573
2.14354
9.27732
18.5624
30.0087
43.5912
59.2465
76.8805
96.3427
117.456
139.742
162.665
183.679
221.102
229.529
238.687
248.202
257.139
265.673
273.475
280.014
285.183
289.16
292.063
294.044
295.304
295.984
296.189
295.986
295.408
294.464
293.138
291.396
289.192
286.473
283.177
279.278
274.855
270.06
265.023
259.87
254.75
249.827
245.274
241.264
237.96
235.515
234.051
233.684
234.414
236.127
237.895
210.766
201.737
191.399
180.363
169.487
158.038
146.475
135.128
123.863
112.854
102.146
91.6804
81.5047
71.612
62.0139
52.7599
43.9151
35.5722
27.8569
20.9108
14.9047
9.99122
6.37927
4.1908
3.4756
4.31763
6.87163
11.2827
17.667
26.1001
36.6151
49.2071
63.8298
80.4016
98.7752
118.758
139.885
161.563
181.499
219.2
227.239
235.987
245.086
253.641
261.822
269.313
275.604
280.587
284.436
287.263
289.212
290.478
291.199
291.477
291.38
290.943
290.176
289.067
287.586
285.691
283.329
280.436
276.979
273.02
268.692
264.107
259.376
254.632
250.027
245.721
241.88
238.664
236.221
234.67
234.116
234.553
235.843
237.157
209.369
200.766
190.921
180.426
170.102
159.248
148.304
137.586
126.964
116.604
106.546
96.7328
87.2062
77.9574
68.9913
60.3499
52.0891
44.2898
37.063
30.5362
24.863
20.1839
16.6868
14.49
13.6397
14.2083
16.344
20.2003
25.9034
33.5458
43.1799
54.8193
68.4358
83.9571
101.246
120.099
140.07
160.528
179.412
217.414
225.086
233.444
242.149
250.342
258.185
265.381
271.433
276.238
279.963
282.714
284.628
285.895
286.648
286.987
286.98
286.663
286.05
285.131
283.88
282.259
280.216
277.689
274.637
271.11
267.221
263.068
258.746
254.374
250.088
246.038
242.379
239.265
236.84
235.217
234.491
234.655
235.552
236.45
208.064
199.863
190.486
180.501
170.699
160.405
150.044
139.916
129.897
120.144
110.694
101.49
92.5702
83.9224
75.5479
67.4821
59.7722
52.4896
45.7317
39.6134
34.2729
29.8409
26.4825
24.314
23.3743
23.7248
25.5064
28.8745
33.9627
40.8755
49.6806
60.4087
73.0478
87.5384
103.751
121.483
140.304
159.574
177.43
215.74
223.064
231.053
239.383
247.231
254.753
261.666
267.489
272.123
275.727
278.402
280.28
281.542
282.321
282.711
282.78
282.568
282.087
281.334
280.286
278.907
277.149
274.951
272.27
269.141
265.663
261.918
257.99
253.981
250.013
246.224
242.757
239.759
237.366
235.688
234.808
234.717
235.255
235.773
206.846
199.028
190.092
180.592
171.281
161.516
151.704
142.131
132.678
123.494
114.613
105.979
97.6254
89.5397
81.719
74.193
67.0019
60.2086
53.8996
48.177
43.1658
38.9874
35.7857
33.6729
32.682
32.8631
34.3469
37.2876
41.823
48.0654
56.0946
65.9559
77.6514
91.1343
106.288
122.91
140.595
158.707
175.564
214.173
221.167
228.804
236.779
244.297
251.513
258.156
263.761
268.229
271.716
274.317
276.156
277.411
278.209
278.641
278.776
278.653
278.288
277.679
276.809
275.643
274.139
272.237
269.891
267.128
264.032
260.672
257.119
253.461
249.806
246.28
243.013
240.142
237.795
236.077
235.061
234.739
234.95
235.128
205.713
198.257
189.741
180.699
171.853
162.587
153.293
144.242
135.321
126.67
118.322
110.221
102.398
94.8379
87.5353
80.5154
73.8127
67.4819
61.6002
56.2585
51.5704
47.6467
44.6148
42.5796
41.5681
41.6203
42.8562
45.425
49.4658
55.0949
62.4011
71.4411
82.2309
94.735
108.85
124.38
140.948
157.936
173.822
212.708
219.388
226.692
234.326
241.531
248.455
254.839
260.235
264.544
267.918
270.446
272.247
273.492
274.302
274.769
274.96
274.914
274.649
274.167
273.451
272.474
271.194
269.556
267.514
265.086
262.342
259.342
256.143
252.822
249.474
246.208
243.146
240.411
238.124
236.382
235.25
234.72
234.637
234.512
204.66
197.548
189.431
180.824
172.418
163.624
154.818
146.26
137.838
129.689
121.84
114.238
106.91
99.8417
93.0243
86.4789
80.2352
74.3407
68.8643
63.8882
59.5136
55.8436
52.9885
51.0466
50.0395
49.997
51.0279
53.2751
56.8744
61.9449
68.5804
76.8471
86.7712
98.33
111.432
125.896
141.37
157.27
172.214
211.339
217.722
224.707
232.018
238.924
245.569
251.706
256.9
261.058
264.322
266.779
268.541
269.772
270.592
271.088
271.326
271.347
271.168
270.795
270.214
269.402
268.321
266.919
265.151
263.027
260.607
257.94
255.074
252.074
249.022
246.013
243.157
240.567
238.351
236.6
235.371
234.658
234.316
233.923
203.684
196.898
189.16
180.966
172.977
164.63
156.286
148.191
140.241
132.562
125.181
118.047
111.184
104.575
98.2109
92.1097
86.2966
80.8129
75.7208
71.093
67.0214
63.6004
60.9259
59.0891
58.1052
57.9957
58.8587
60.8282
64.0357
68.5988
74.6151
82.1562
91.2581
101.909
114.03
127.456
141.866
156.712
170.744
210.063
216.162
222.845
229.847
236.468
242.846
248.746
253.748
257.759
260.918
263.304
265.027
266.244
267.07
267.589
267.867
267.944
267.841
267.562
267.1
266.432
265.526
264.334
262.811
260.963
258.839
256.479
253.924
251.227
248.457
245.7
243.05
240.608
238.473
236.729
235.424
234.552
233.983
233.358
202.78
196.306
188.928
181.126
173.532
165.608
157.7
150.043
142.536
135.3
128.359
121.663
115.235
109.056
103.117
97.4316
92.0223
86.9252
82.1954
77.8987
74.1177
70.9389
68.445
66.7204
65.7751
65.6218
66.3478
68.0781
70.9386
75.0431
80.4893
87.353
95.6776
105.46
116.638
129.059
142.437
156.269
169.42
208.873
214.703
221.097
227.804
234.153
240.277
245.95
250.767
254.638
257.694
260.013
261.697
262.897
263.726
264.265
264.576
264.702
264.663
264.466
264.107
263.566
262.814
261.807
260.503
258.903
257.048
254.97
252.703
250.289
247.789
245.273
242.826
240.537
238.492
236.768
235.406
234.402
233.638
232.815
201.946
195.767
188.732
181.303
174.083
166.56
159.065
151.821
144.732
137.913
131.385
125.101
119.079
113.303
107.761
102.465
97.4345
92.7004
88.3122
84.329
80.8251
77.8801
75.5646
73.9565
73.0602
72.8811
73.4964
75.0217
77.5751
81.2659
86.1893
92.4234
100.017
108.975
119.248
130.704
143.086
155.942
168.243
207.767
213.339
219.458
225.884
231.972
237.852
243.308
247.949
251.685
254.642
256.896
258.54
259.724
260.553
261.106
261.446
261.613
261.629
261.504
261.233
260.802
260.185
259.343
258.234
256.857
255.245
253.424
251.421
249.272
247.025
244.741
242.493
240.356
238.409
236.717
235.318
234.206
233.279
232.289
201.176
195.28
188.571
181.495
174.631
167.488
160.383
153.53
146.835
140.409
134.27
128.371
122.731
117.332
112.161
107.23
102.553
98.1597
94.0926
90.4051
87.1646
84.4438
82.3027
80.812
79.9718
79.7814
80.3082
81.6578
83.94
87.2579
91.7037
97.355
104.264
112.443
121.855
132.387
143.814
155.734
167.216
206.738
212.065
217.921
224.079
229.918
235.566
240.814
245.285
248.891
251.753
253.943
255.549
256.714
257.541
258.106
258.469
258.672
258.736
258.671
258.478
258.143
257.644
256.945
256.01
254.832
253.438
251.851
250.09
248.185
246.175
244.111
242.054
240.07
238.226
236.578
235.159
233.963
232.903
231.777
200.469
194.84
188.442
181.703
175.177
168.393
161.659
155.175
148.852
142.795
137.021
131.484
126.202
121.156
116.333
111.742
107.397
103.322
99.5565
96.1478
93.1561
90.6485
88.676
87.302
86.5229
86.3318
86.788
87.987
90.0301
93.0128
97.0233
102.137
108.408
115.855
124.452
134.105
144.619
155.645
166.339
205.782
210.876
216.482
222.383
227.984
233.409
238.457
242.766
246.247
249.018
251.145
252.713
253.859
254.683
255.256
255.639
255.872
255.976
255.964
255.837
255.585
255.189
254.617
253.835
252.834
251.636
250.259
248.719
247.038
245.248
243.391
241.518
239.684
237.946
236.352
234.93
233.674
232.509
231.274
199.818
194.446
188.343
181.925
175.719
169.278
162.893
156.758
150.786
145.077
139.647
134.45
129.503
124.787
120.29
116.018
111.983
108.206
104.722
101.575
98.8182
96.5123
94.7016
93.4417
92.7257
92.5421
92.9424
94.0123
95.8442
98.5263
102.141
106.761
112.44
119.203
127.032
135.852
145.5
155.673
165.612
204.896
209.767
215.134
220.789
226.163
231.375
236.232
240.384
243.746
246.429
248.495
250.026
251.152
251.97
252.55
252.948
253.206
253.345
253.378
253.308
253.128
252.821
252.36
251.712
250.869
249.846
248.658
247.317
245.84
244.253
242.589
240.891
239.203
237.573
236.043
234.632
233.337
232.094
230.778
199.223
194.094
188.273
182.159
176.258
170.141
164.088
158.283
152.643
147.262
142.155
137.277
132.644
128.238
124.044
120.07
116.324
112.826
109.606
106.704
104.168
102.052
100.395
99.2456
98.5931
98.4232
98.7791
99.7381
101.383
103.796
107.052
111.219
116.352
122.478
129.589
137.625
146.453
155.816
165.031
204.075
208.733
213.872
219.293
224.449
229.457
234.131
238.133
241.379
243.977
245.985
247.479
248.585
249.396
249.979
250.39
250.669
250.837
250.908
250.887
250.769
250.539
250.175
249.645
248.941
248.073
247.054
245.892
244.601
243.199
241.715
240.181
238.635
237.114
235.653
234.268
232.954
231.657
230.283
198.678
193.781
188.228
182.405
176.793
170.984
165.245
159.752
154.426
149.354
144.55
139.972
135.634
131.517
127.608
123.912
120.436
117.198
114.225
111.552
109.222
107.284
105.773
104.728
104.138
103.986
104.307
105.17
106.651
108.822
111.753
115.508
120.138
125.673
132.115
139.417
147.474
156.07
164.594
203.316
207.771
212.691
217.888
222.836
227.648
232.147
236.005
239.14
241.656
243.607
245.064
246.15
246.953
247.538
247.959
248.254
248.446
248.55
248.571
248.506
248.343
248.062
247.636
247.054
246.324
245.455
244.453
243.329
242.097
240.778
239.398
237.986
236.575
235.188
233.841
232.525
231.195
229.786
198.18
193.504
188.208
182.661
177.323
171.806
166.366
161.168
156.137
151.356
146.838
142.543
138.481
134.635
130.992
127.555
124.331
121.335
118.591
116.132
113.995
112.224
110.849
109.904
109.375
109.242
109.535
110.316
111.651
113.605
116.243
119.622
123.791
128.783
134.604
141.223
148.556
156.428
164.296
202.613
206.875
211.587
216.569
221.319
225.943
230.273
233.993
237.022
239.458
241.353
242.776
243.841
244.634
245.218
245.647
245.955
246.168
246.299
246.356
246.335
246.23
246.021
245.685
245.21
244.601
243.865
243.007
242.032
240.953
239.785
238.549
237.266
235.96
234.653
233.352
232.05
230.709
229.283
197.727
193.262
188.209
182.925
177.848
172.608
167.451
162.532
157.78
153.274
149.025
144.994
141.191
137.598
134.204
131.009
128.02
125.249
122.72
120.458
118.501
116.885
115.638
114.787
114.315
114.203
114.474
115.183
116.389
118.15
120.522
123.56
127.31
131.802
137.05
143.034
149.693
156.886
164.129
201.965
206.042
210.554
215.332
219.891
224.336
228.505
232.092
235.018
237.377
239.219
240.605
241.65
242.433
243.015
243.448
243.768
243.997
244.151
244.237
244.255
244.199
244.052
243.795
243.413
242.91
242.291
241.559
240.719
239.778
238.747
237.643
236.481
235.279
234.053
232.807
231.533
230.196
228.773
197.315
193.051
188.23
183.196
178.367
173.39
168.5
163.846
159.357
155.111
151.114
147.331
143.771
140.416
137.253
134.284
131.514
128.953
126.622
124.545
122.754
121.283
120.154
119.389
118.973
118.881
119.135
119.781
120.872
122.459
124.593
127.322
130.689
134.726
139.448
144.846
150.878
157.435
164.087
201.366
205.267
209.59
214.171
218.548
222.821
226.835
230.295
233.122
235.407
237.196
238.548
239.571
240.343
240.922
241.358
241.686
241.928
242.101
242.212
242.262
242.247
242.154
241.964
241.663
241.253
240.737
240.117
239.396
238.578
237.672
236.689
235.64
234.539
233.394
232.209
230.974
229.658
228.251
196.941
192.869
188.269
183.473
178.879
174.152
169.516
165.111
160.871
156.868
153.11
149.56
146.227
143.094
140.147
137.389
134.822
132.456
130.309
128.403
126.766
125.429
124.41
123.726
123.36
123.288
123.527
124.119
125.108
126.54
128.459
130.909
133.929
137.55
141.791
146.651
152.103
158.068
164.162
200.815
204.548
208.688
213.083
217.286
221.394
225.259
228.596
231.328
233.542
235.279
236.597
237.598
238.359
238.933
239.37
239.704
239.956
240.144
240.275
240.353
240.373
240.326
240.193
239.963
239.633
239.207
238.686
238.069
237.362
236.568
235.695
234.752
233.746
232.684
231.564
230.376
229.093
227.716
196.603
192.714
188.324
183.754
179.384
174.894
170.497
166.329
162.324
158.551
155.016
151.685
148.565
145.639
142.894
140.332
137.954
135.769
133.793
132.045
130.551
129.336
128.418
127.808
127.489
127.437
127.664
128.207
129.105
130.398
132.124
134.322
137.029
140.273
144.076
148.443
153.361
158.774
164.344
200.307
203.88
207.847
212.062
216.099
220.049
223.772
226.991
229.631
231.775
233.463
234.747
235.727
236.474
237.042
237.479
237.817
238.077
238.277
238.425
238.525
238.574
238.565
238.482
238.312
238.053
237.705
237.269
236.746
236.135
235.442
234.67
233.824
232.909
231.928
230.876
229.743
228.503
227.167
196.298
192.582
188.393
184.038
179.88
175.614
171.445
167.5
163.717
160.16
156.836
153.71
150.789
148.056
145.5
143.12
140.918
138.901
137.082
135.481
134.118
133.017
132.191
131.65
131.374
131.339
131.556
132.055
132.872
134.04