/*--------------------------------*- C++ -*----------------------------------*\
| =========                 |                                                 |
| \\      /  F ield         | OpenFOAM: The Open Source CFD Toolbox           |
|  \\    /   O peration     | Version:  3.0.0                                 |
|   \\  /    A nd           | Web:      www.OpenFOAM.org                      |
|    \\/     M anipulation  |                                                 |
\*---------------------------------------------------------------------------*/
FoamFile
{
    version     2.0;
    format      ascii;
    class       surfaceScalarField;
    location    "349";
    object      phi;
}
// * * * * * * * * * * * * * * * * * * * * * * * * * * * * * * * * * * * * * //

dimensions      [0 3 -1 0 0 0 0];

internalField   nonuniform List<scalar> 
21254
(
-0.270118
0.289021
-0.0189024
0.310475
-0.0214547
0.328274
-0.0177985
0.343825
-0.0155515
0.358369
-0.0145437
0.369442
-0.0110726
0.377711
-0.00826895
0.384066
-0.00635522
0.387549
-0.00348325
0.389327
-0.00177821
0.38951
-0.000182413
0.387728
0.00178148
0.384617
0.0031109
0.380409
0.00420821
0.375071
0.0053386
0.368951
0.00611941
0.361847
0.00710459
0.353846
0.00800011
0.34476
0.00908668
0.334776
0.00998362
0.323513
0.0112632
0.311517
0.0119962
0.299028
0.0124891
0.287358
0.01167
0.277721
0.00963622
0.26941
0.0083119
0.261266
0.00814349
0.252972
0.00829364
0.244195
0.00877705
0.234848
0.00934771
0.224901
0.00994682
0.214337
0.0105638
0.203073
0.0112641
0.190843
0.0122304
0.177072
0.0137709
0.160638
0.0164335
0.139142
0.0214961
0.107656
0.0314862
0.0904264
0.01723
-0.2472
-0.0229181
-0.223641
-0.0235592
-0.19414
-0.0295004
-0.161424
-0.0327164
-0.126676
-0.0347484
-0.0903828
-0.036293
-0.0540729
-0.0363098
-0.0197138
-0.0343591
0.0114327
-0.0311465
0.0391218
-0.0276891
0.063055
-0.0239331
0.0835285
-0.0204736
0.100978
-0.0174493
0.115701
-0.0147237
0.128345
-0.012643
0.139263
-0.0109184
0.148948
-0.00968539
0.157659
-0.00871052
0.165715
-0.00805631
0.17326
-0.00754478
0.180476
-0.00721628
0.187373
-0.00689666
0.193897
-0.00652375
0.199451
-0.00555466
0.203854
-0.00440225
0.207371
-0.00351757
0.210003
-0.00263144
0.211859
-0.00185691
0.212975
-0.0011155
0.213376
-0.000401299
0.212941
0.000434985
0.21168
0.00126114
0.20971
0.00197027
0.207126
0.00258394
0.203832
0.00329436
0.199451
0.00438025
0.192901
0.00654991
0.179086
0.0138154
0.158496
0.0205903
-0.247219
0.268841
-0.0405239
0.290862
-0.0434761
0.313701
-0.040637
0.334874
-0.0367247
0.35543
-0.0350995
0.374298
-0.029941
0.391123
-0.0250939
0.406185
-0.0214167
0.419072
-0.0163707
0.429852
-0.0125585
0.438782
-0.00911175
0.446135
-0.00557143
0.451894
-0.00264811
0.455919
0.000183069
0.458081
0.0031758
0.458089
0.00611234
0.455935
0.00925773
0.451812
0.0121238
0.445268
0.0156301
0.436682
0.01857
0.425708
0.0222376
0.412714
0.0249895
0.397752
0.0274516
0.381525
0.0278969
0.365345
0.0258161
0.349643
0.0240136
0.334472
0.023315
0.320005
0.0227607
0.306017
0.0227652
0.292326
0.0230385
0.278699
0.0235737
0.264957
0.0243062
0.25083
0.025391
0.236075
0.0269847
0.220251
0.0295955
0.202259
0.0344248
0.1807
0.0430555
0.146554
0.0656327
0.1043
0.0594835
-0.22503
-0.0451073
-0.201266
-0.0473232
-0.173391
-0.0573759
-0.143772
-0.062335
-0.112156
-0.0663645
-0.0789901
-0.0694589
-0.0458226
-0.0694773
-0.01407
-0.0661117
0.0155921
-0.0608087
0.0424193
-0.0545163
0.0659329
-0.0474467
0.0864224
-0.040963
0.10433
-0.0353574
0.119937
-0.0303305
0.133667
-0.0263725
0.145817
-0.0230686
0.156682
-0.0205502
0.166569
-0.0185979
0.175737
-0.0172247
0.184311
-0.0161182
0.192455
-0.01536
0.200247
-0.0146894
0.207628
-0.0139042
0.214159
-0.0120858
0.219573
-0.00981624
0.224066
-0.0080101
0.227633
-0.0061993
0.23033
-0.00455344
0.232184
-0.00296957
0.23327
-0.0014878
0.233729
-2.34688e-05
0.233624
0.00136563
0.232836
0.00275846
0.231295
0.00412513
0.228926
0.00566317
0.225486
0.00782056
0.22101
0.0110263
0.211044
0.0237805
0.19189
0.0397445
-0.239646
0.261235
-0.062113
0.282866
-0.0651078
0.306133
-0.063904
0.327294
-0.0578857
0.347257
-0.0550622
0.366249
-0.0489334
0.382974
-0.0418181
0.39786
-0.0363032
0.41046
-0.0289707
0.421113
-0.0232115
0.429794
-0.0177924
0.436737
-0.0125146
0.441837
-0.00774765
0.445628
-0.00360862
0.447968
0.000835984
0.449522
0.00455884
0.449887
0.00889244
0.449361
0.0126496
0.447554
0.0174375
0.444356
0.0217672
0.439616
0.026978
0.433133
0.031473
0.424873
0.035711
0.414958
0.0378118
0.403964
0.0368098
0.392008
0.0359699
0.37903
0.0362934
0.365223
0.0365673
0.350793
0.0371954
0.335849
0.0379823
0.320532
0.0388907
0.304851
0.0399873
0.288716
0.0415264
0.271909
0.0437913
0.253987
0.0475172
0.233859
0.0545534
0.210252
0.0666625
0.175247
0.100638
0.126139
0.108591
-0.217848
-0.0669048
-0.193779
-0.0713924
-0.164869
-0.0862859
-0.134651
-0.092553
-0.102937
-0.0980783
-0.069849
-0.102547
-0.0370189
-0.102307
-0.00622978
-0.0969009
0.0223234
-0.0893618
0.0483558
-0.0805487
0.0715337
-0.0706246
0.0920223
-0.0614517
0.110107
-0.0534424
0.126057
-0.0462797
0.140186
-0.0405018
0.152813
-0.0356958
0.1642
-0.0319366
0.17461
-0.0290081
0.184257
-0.0268714
0.193308
-0.0251698
0.201952
-0.0240044
0.210214
-0.0229514
0.218016
-0.021706
0.22507
-0.0191399
0.231099
-0.0158447
0.236198
-0.0131096
0.240427
-0.0104278
0.243817
-0.00794362
0.246434
-0.00558663
0.248269
-0.00332254
0.249386
-0.00114034
0.249789
0.000961795
0.249516
0.00303221
0.248506
0.00513437
0.246674
0.00749505
0.243658
0.0108368
0.239073
0.0156115
0.229364
0.0334894
0.210916
0.058193
-0.230975
0.253703
-0.0848401
0.276391
-0.0877966
0.301256
-0.0887688
0.323878
-0.0805074
0.345686
-0.07687
0.366466
-0.0697135
0.38545
-0.0608028
0.40241
-0.0532629
0.417593
-0.0441538
0.430786
-0.0364043
0.442098
-0.0291041
0.451554
-0.0219711
0.459207
-0.015401
0.465097
-0.00949865
0.469484
-0.00355012
0.471968
0.00207403
0.472753
0.00810807
0.471627
0.0137752
0.468972
0.0200929
0.46468
0.0260593
0.45891
0.032748
0.451901
0.0384819
0.443748
0.0438637
0.434915
0.0466446
0.42578
0.045945
0.416359
0.0453912
0.406251
0.0464015
0.395296
0.0475217
0.383325
0.0491668
0.370188
0.0511187
0.355925
0.0531545
0.340561
0.0553508
0.324121
0.0579666
0.306474
0.0614387
0.287326
0.0666653
0.26564
0.0762393
0.240084
0.0922179
0.20359
0.137132
0.152772
0.159409
-0.208527
-0.0893535
-0.184358
-0.095561
-0.154974
-0.11567
-0.124696
-0.122831
-0.0930042
-0.12977
-0.0599155
-0.135636
-0.0273288
-0.134894
0.00301002
-0.12724
0.0308993
-0.117251
0.0563476
-0.105997
0.0790466
-0.0933236
0.0992113
-0.0816164
0.1172
-0.0714309
0.133233
-0.0623127
0.147625
-0.0548944
0.160607
-0.0486777
0.172444
-0.0437734
0.183318
-0.0398818
0.193455
-0.0370089
0.203
-0.0347145
0.212066
-0.0330704
0.220725
-0.0316105
0.228928
-0.0299084
0.236369
-0.0265816
0.242812
-0.0222878
0.248313
-0.0186106
0.252916
-0.0150308
0.25667
-0.0116973
0.259608
-0.00852427
0.261786
-0.00550106
0.263236
-0.0025902
0.263984
0.000213759
0.26404
0.00297634
0.263395
0.00577962
0.261944
0.00894537
0.259338
0.0134432
0.255034
0.0199155
0.245859
0.0426648
0.227651
0.0764002
-0.226311
0.249823
-0.108352
0.27337
-0.111344
0.299655
-0.115053
0.323033
-0.103885
0.345887
-0.0997247
0.367802
-0.0916281
0.387718
-0.0807186
0.405703
-0.0712487
0.422094
-0.0605449
0.436213
-0.0505226
0.448463
-0.0413547
0.45879
-0.0322982
0.467502
-0.0241124
0.474247
-0.0162438
0.479191
-0.00849395
0.482404
-0.001139
0.484051
0.00646067
0.484156
0.0136708
0.482458
0.0217903
0.479238
0.0292794
0.474355
0.0376308
0.467967
0.0448702
0.460327
0.0515042
0.451836
0.0551348
0.443061
0.0547205
0.434183
0.0542687
0.425026
0.0555592
0.415483
0.0570647
0.405363
0.0592867
0.394451
0.0620308
0.382462
0.0651431
0.369155
0.0686577
0.354325
0.0727964
0.337706
0.078058
0.318897
0.0854744
0.296978
0.0981587
0.270458
0.118738
0.232883
0.174707
0.181452
0.21084
-0.202807
-0.112858
-0.177926
-0.120442
-0.147281
-0.146315
-0.116186
-0.153926
-0.0838086
-0.162147
-0.0501541
-0.16929
-0.0171767
-0.167871
0.0131471
-0.157563
0.0407267
-0.144831
0.0658108
-0.131081
0.0881013
-0.115614
0.107907
-0.101422
0.125705
-0.0892295
0.141693
-0.0783006
0.156175
-0.0693761
0.169408
-0.061911
0.181562
-0.0559272
0.192812
-0.0511319
0.203345
-0.047542
0.213299
-0.044668
0.222769
-0.0425406
0.231798
-0.04064
0.240359
-0.0384694
0.248188
-0.0344104
0.255029
-0.0291285
0.260909
-0.0244904
0.26586
-0.0199819
0.269935
-0.0157721
0.273162
-0.0117516
0.275575
-0.00791439
0.277218
-0.00423305
0.278143
-0.000711187
0.278355
0.00276423
0.277822
0.00631231
0.276505
0.0102625
0.274039
0.015909
0.269864
0.0240907
0.261219
0.05131
0.243612
0.0940068
-0.222477
0.247014
-0.132889
0.271944
-0.136274
0.299632
-0.142742
0.324274
-0.128527
0.34819
-0.12364
0.371556
-0.114994
0.392504
-0.101666
0.411869
-0.0906137
0.429326
-0.0780018
0.444778
-0.0659752
0.45845
-0.0550262
0.470147
-0.0439953
0.480115
-0.0340811
0.488331
-0.0244591
0.494644
-0.0148073
0.499387
-0.00588189
0.502156
0.00369162
0.503046
0.0127804
0.502195
0.0226417
0.499436
0.032039
0.494837
0.0422295
0.488641
0.0510655
0.481015
0.0591306
0.472393
0.0637563
0.463298
0.063816
0.453991
0.0635754
0.444424
0.0651269
0.434599
0.0668896
0.424498
0.0693879
0.41401
0.0725181
0.403009
0.0761439
0.391191
0.0804764
0.378206
0.0857812
0.363554
0.0927094
0.346565
0.102464
0.325994
0.118729
0.30016
0.144572
0.262731
0.212136
0.211349
0.262222
-0.198005
-0.137329
-0.172321
-0.146125
-0.140385
-0.178252
-0.108162
-0.186149
-0.0748127
-0.195496
-0.0402805
-0.203822
-0.00662598
-0.201526
0.0239835
-0.188173
0.0515681
-0.172415
0.0764941
-0.156007
0.098506
-0.137626
0.117991
-0.120907
0.135541
-0.106779
0.151396
-0.094156
0.165863
-0.0838423
0.179194
-0.0752424
0.191545
-0.0682778
0.203091
-0.0626785
0.213959
-0.0584102
0.224271
-0.0549796
0.234116
-0.0523852
0.243518
-0.0500425
0.25243
-0.0473816
0.260671
-0.0426513
0.267919
-0.0363762
0.27416
-0.0307313
0.279476
-0.0252982
0.283864
-0.0201603
0.287372
-0.0152594
0.29003
-0.0105722
0.291879
-0.0060819
0.292946
-0.00177808
0.293245
0.00246444
0.292801
0.00675721
0.291475
0.0115884
0.288999
0.0183845
0.284724
0.0283658
0.276347
0.0596868
0.259391
0.110963
-0.220149
0.246031
-0.158772
0.271983
-0.162226
0.301255
-0.172013
0.327197
-0.154469
0.3524
-0.148843
0.376858
-0.139452
0.399024
-0.123833
0.419269
-0.110858
0.43783
-0.0965628
0.454273
-0.0824187
0.468822
-0.0695753
0.481631
-0.0568043
0.492561
-0.045011
0.501676
-0.0335743
0.509046
-0.0221768
0.514471
-0.0113073
0.518142
2.12099e-05
0.519966
0.0109564
0.519967
0.0226407
0.518084
0.0339217
0.514366
0.0459472
0.508882
0.0565498
0.501969
0.0660436
0.493817
0.0719087
0.484945
0.072688
0.475593
0.0729266
0.465776
0.0749445
0.455533
0.0771323
0.444954
0.0799665
0.434003
0.0834695
0.422671
0.0874761
0.41088
0.0922677
0.398434
0.0982273
0.384894
0.106249
0.369607
0.117751
0.351178
0.137158
0.327531
0.168219
0.292109
0.247557
0.241883
0.312449
-0.19446
-0.163018
-0.167663
-0.172922
-0.134288
-0.211628
-0.100765
-0.219671
-0.0662366
-0.230025
-0.0304802
-0.239579
0.00410856
-0.236115
0.035328
-0.219392
0.0632148
-0.200302
0.0882407
-0.181033
0.1101
-0.159485
0.12935
-0.140156
0.146665
-0.124095
0.162333
-0.109824
0.176692
-0.0982017
0.190032
-0.0885828
0.202505
-0.0807506
0.214249
-0.0744226
0.22539
-0.0695508
0.236015
-0.0656047
0.24619
-0.0625598
0.255929
-0.0597822
0.265211
-0.0566637
0.273798
-0.0512377
0.281455
-0.0440339
0.288106
-0.0373821
0.293769
-0.030961
0.298493
-0.0248842
0.302281
-0.0190471
0.305194
-0.0134851
0.307235
-0.00812324
0.308464
-0.0030069
0.308893
0.00203509
0.30848
0.00716997
0.307183
0.0128862
0.304644
0.0209234
0.300215
0.0327947
0.291922
0.0679796
0.275554
0.127332
-0.218635
0.245858
-0.185995
0.273264
-0.189632
0.304234
-0.202983
0.331382
-0.181618
0.357896
-0.175357
0.383631
-0.165187
0.406841
-0.147042
0.428352
-0.13237
0.447757
-0.115968
0.465187
-0.0998486
0.480851
-0.0852394
0.494576
-0.0705289
0.506443
-0.0568781
0.516572
-0.0437037
0.524893
-0.0304978
0.531362
-0.0177759
0.536006
-0.00462246
0.538776
0.00818555
0.539564
0.0218529
0.538394
0.0350918
0.535368
0.0489734
0.530494
0.0614235
0.524026
0.0725117
0.516325
0.0796095
0.507716
0.0812973
0.498454
0.0821882
0.4886
0.0847992
0.47816
0.0875722
0.467187
0.0909398
0.45575
0.0949057
0.443807
0.0994194
0.431406
0.104668
0.418442
0.111191
0.404775
0.119916
0.389916
0.132611
0.372822
0.154252
0.351582
0.189459
0.319639
0.2795
0.27208
0.360008
-0.19172
-0.189933
-0.163772
-0.200869
-0.128677
-0.246723
-0.0936359
-0.254712
-0.0576902
-0.26597
-0.0205788
-0.27669
0.015197
-0.271891
0.0472475
-0.251443
0.0756435
-0.228698
0.100911
-0.2063
0.122797
-0.181371
0.141898
-0.159258
0.159013
-0.14121
0.174481
-0.125292
0.188697
-0.112417
0.201994
-0.10188
0.214491
-0.0932481
0.22636
-0.0862907
0.237692
-0.0808829
0.248572
-0.0764851
0.259027
-0.0730151
0.269096
-0.0698509
0.278718
-0.0662856
0.287686
-0.060206
0.295731
-0.0520791
0.302767
-0.0444183
0.308805
-0.0369984
0.313871
-0.0299506
0.317961
-0.0231368
0.321117
-0.0166412
0.323387
-0.0103927
0.324777
-0.0043969
0.325321
0.00149114
0.324985
0.00750519
0.32367
0.0142015
0.321071
0.0235224
0.316505
0.0373602
0.30823
0.0762555
0.292452
0.143109
-0.218087
0.246672
-0.21458
0.275531
-0.218491
0.308201
-0.235654
0.33675
-0.210167
0.364756
-0.203363
0.391866
-0.192296
0.416322
-0.171499
0.438727
-0.154775
0.459289
-0.136529
0.477584
-0.118144
0.493986
-0.101641
0.508568
-0.0851115
0.521346
-0.0696559
0.532318
-0.0546759
0.541489
-0.0396683
0.548883
-0.0251698
0.554355
-0.0100949
0.557888
0.00465222
0.55946
0.0202815
0.559037
0.0355148
0.556711
0.0512992
0.552531
0.0656035
0.546675
0.078368
0.539466
0.0868181
0.531234
0.0895294
0.522182
0.0912404
0.512363
0.0946183
0.501853
0.0980821
0.490715
0.102078
0.478942
0.106678
0.466551
0.111811
0.45355
0.117669
0.439894
0.124847
0.425471
0.134338
0.410049
0.148034
0.392921
0.17138
0.372954
0.209426
0.344663
0.307791
0.300736
0.403935
-0.189667
-0.218354
-0.160362
-0.230174
-0.123494
-0.283591
-0.0869108
-0.291296
-0.0493163
-0.303565
-0.0106293
-0.315377
0.026612
-0.309132
0.0596741
-0.284505
0.0887711
-0.257795
0.114479
-0.232008
0.136517
-0.203409
0.155594
-0.178335
0.172578
-0.158193
0.18787
-0.140585
0.20192
-0.126467
0.215094
-0.115054
0.227568
-0.105722
0.239487
-0.0982093
0.250944
-0.0923395
0.262022
-0.0875632
0.272749
-0.0837421
0.283091
-0.0801927
0.293026
-0.0762211
0.30236
-0.0695397
0.31081
-0.0605292
0.318217
-0.0518257
0.324631
-0.0434121
0.330022
-0.0353413
0.334435
-0.0275503
0.337869
-0.0200751
0.340354
-0.0128776
0.341931
-0.00597348
0.342588
0.000833425
0.342327
0.00776682
0.341041
0.0154869
0.3384
0.0261636
0.333682
0.0420786
0.325448
0.0844895
0.31026
0.158297
-0.218043
0.248254
-0.24479
0.278667
-0.248904
0.313241
-0.270227
0.343247
-0.240173
0.372535
-0.232651
0.401135
-0.220896
0.426775
-0.197139
0.450344
-0.178343
0.471912
-0.158098
0.491114
-0.137345
0.508404
-0.118932
0.523906
-0.100613
0.537423
-0.0831732
0.549148
-0.0664013
0.559227
-0.0497468
0.56736
-0.0333028
0.573653
-0.0163882
0.57796
0.000345052
0.580362
0.01788
0.580747
0.0351292
0.579043
0.0530038
0.575521
0.0691254
0.570247
0.0836414
0.563543
0.0935229
0.55566
0.0974119
0.546769
0.100132
0.537046
0.104341
0.526539
0.108589
0.515242
0.113375
0.503262
0.118658
0.49055
0.124523
0.477081
0.131138
0.462824
0.139105
0.447666
0.149496
0.431406
0.164294
0.413443
0.189343
0.393307
0.229562
0.367501
0.333598
0.327194
0.444242
-0.188266
-0.248131
-0.157493
-0.260947
-0.118661
-0.322423
-0.0802098
-0.329746
-0.0409519
-0.342823
-0.000419956
-0.355909
0.0383389
-0.347891
0.0726293
-0.318795
0.1026
-0.287766
0.12893
-0.258338
0.151259
-0.225737
0.17039
-0.197466
0.18732
-0.175123
0.202475
-0.15574
0.216361
-0.140352
0.229399
-0.128093
0.241795
-0.118118
0.253695
-0.11011
0.265242
-0.103886
0.276462
-0.0987833
0.287361
-0.0946418
0.297973
-0.0908046
0.308218
-0.0864662
0.317893
-0.0792147
0.326705
-0.0693411
0.334512
-0.0596323
0.341277
-0.0501772
0.347032
-0.0410962
0.351752
-0.0322707
0.355464
-0.0237865
0.358201
-0.0156146
0.359949
-0.0077222
0.360756
2.72833e-05
0.360581
0.00794103
0.359309
0.0167593
0.356614
0.0288591
0.351809
0.0468833
0.343641
0.0926572
0.329023
0.172915
-0.218708
0.250483
-0.276565
0.28247
-0.280891
0.318973
-0.30673
0.350676
-0.271876
0.381591
-0.263566
0.411666
-0.250971
0.438448
-0.223921
0.463264
-0.203159
0.485885
-0.180719
0.50605
-0.15751
0.524152
-0.137033
0.540305
-0.116766
0.554655
-0.0975232
0.567264
-0.0790101
0.577956
-0.0604383
0.586899
-0.0422456
0.593942
-0.0234312
0.599064
-0.00477711
0.602149
0.014795
0.603224
0.0340535
0.602258
0.0539704
0.599324
0.0720592
0.594638
0.0883276
0.588446
0.0997145
0.580962
0.104896
0.572368
0.108725
0.562753
0.113956
0.5522
0.119142
0.540838
0.124737
0.528623
0.130873
0.515617
0.13753
0.501788
0.144966
0.487053
0.15384
0.471276
0.165272
0.454219
0.181352
0.435331
0.20823
0.414176
0.250717
0.389377
0.358397
0.351756
0.481863
-0.187243
-0.279597
-0.154969
-0.293221
-0.114058
-0.363334
-0.0736762
-0.370128
-0.0324411
-0.384058
0.00994194
-0.398292
0.0504565
-0.388405
0.0861366
-0.354476
0.117171
-0.318801
0.144191
-0.285358
0.166965
-0.248511
0.186281
-0.216783
0.203244
-0.192086
0.218295
-0.170791
0.232035
-0.154092
0.244931
-0.140989
0.257212
-0.130399
0.269076
-0.121974
0.280615
-0.115425
0.29192
-0.110088
0.303003
-0.105725
0.31383
-0.101631
0.324335
-0.0969713
0.334345
-0.0892249
0.34352
-0.078516
0.351693
-0.0678054
0.358843
-0.0573265
0.36494
-0.0471937
0.369998
-0.0373287
0.373996
-0.0277842
0.37696
-0.0185784
0.37893
-0.00969314
0.379874
-0.00091627
0.379796
0.00801923
0.378547
0.0180079
0.375836
0.0315701
0.370931
0.0517888
0.362846
0.100742
0.348858
0.186903
-0.219739
0.253323
-0.31015
0.287073
-0.314641
0.325614
-0.345271
0.35891
-0.305171
0.391438
-0.296094
0.423102
-0.282635
0.451409
-0.252228
0.47736
-0.229111
0.501063
-0.204421
0.522143
-0.17859
0.541165
-0.156056
0.558209
-0.133811
0.573192
-0.112506
0.586443
-0.0922614
0.59794
-0.0719352
0.607597
-0.0519025
0.615325
-0.0311587
0.621105
-0.0105571
0.624895
0.011005
0.62668
0.0322678
0.626406
0.0542443
0.624149
0.0743168
0.620053
0.0924237
0.614362
0.105405
0.607264
0.111994
0.598938
0.117051
0.589463
0.123432
0.578967
0.129637
0.567492
0.136212
0.555109
0.143256
0.541821
0.150819
0.527613
0.159173
0.512452
0.169001
0.496129
0.181596
0.478401
0.19908
0.458712
0.227919
0.436379
0.27305
0.411436
0.383339
0.375473
0.517826
-0.186641
-0.312694
-0.152629
-0.327234
-0.10959
-0.406373
-0.0671103
-0.412608
-0.0238317
-0.427337
0.0205948
-0.442719
0.0630537
-0.430864
0.100229
-0.391651
0.132428
-0.351
0.160346
-0.313276
0.183684
-0.271849
0.20329
-0.236389
0.220318
-0.209114
0.235348
-0.18582
0.248974
-0.167719
0.261729
-0.153744
0.273874
-0.142543
0.285644
-0.133743
0.297174
-0.126956
0.308512
-0.121426
0.319694
-0.116907
0.330691
-0.112629
0.341466
-0.107746
0.351782
-0.0995407
0.361304
-0.0880378
0.369842
-0.0763434
0.377345
-0.0648303
0.383808
-0.0536563
0.389172
-0.0426922
0.393476
-0.0320887
0.396702
-0.0218042
0.398869
-0.0118606
0.399988
-0.00203481
0.399993
0.00801387
0.398794
0.019207
0.396057
0.0343068
0.39108
0.0567662
0.383145
0.108677
0.369809
0.200239
-0.221339
0.256618
-0.345429
0.292231
-0.350254
0.33293
-0.38597
0.368086
-0.340328
0.402368
-0.330376
0.435668
-0.315936
0.465396
-0.281956
0.49269
-0.256406
0.517453
-0.229184
0.539529
-0.200666
0.559395
-0.175921
0.577188
-0.151604
0.593016
-0.128334
0.606995
-0.10624
0.619127
-0.0840674
0.6294
-0.0621753
0.637824
-0.0395825
0.644319
-0.0170525
0.648788
0.00653589
0.651161
0.0298951
0.651534
0.0538717
0.649871
0.0759798
0.646348
0.0959459
0.641213
0.110541
0.634611
0.118595
0.626578
0.125085
0.617298
0.132712
0.60684
0.140095
0.5953
0.147753
0.582757
0.155798
0.569217
0.164359
0.554655
0.173735
0.539024
0.184632
0.522164
0.198456
0.503814
0.21743
0.483429
0.248304
0.460129
0.29635
0.43453
0.408938
0.399476
0.55288
-0.186305
-0.347728
-0.150647
-0.362892
-0.105232
-0.451788
-0.0605675
-0.457273
-0.0150287
-0.472876
0.0316748
-0.489422
0.0760855
-0.475275
0.11497
-0.430535
0.148468
-0.384498
0.177387
-0.342195
0.201383
-0.295845
0.221371
-0.256377
0.238611
-0.226355
0.253664
-0.200873
0.267218
-0.181272
0.279851
-0.166377
0.291858
-0.154551
0.303508
-0.145393
0.31496
-0.138408
0.326305
-0.132771
0.337549
-0.128151
0.3487
-0.123779
0.359675
-0.118722
0.370284
-0.110149
0.380129
-0.0978825
0.389015
-0.0852298
0.396875
-0.0726905
0.403665
-0.0604456
0.409372
-0.0483999
0.413978
-0.0366938
0.417475
-0.0253012
0.419875
-0.0142613
0.421155
-0.00331456
0.421283
0.00788635
0.420123
0.0203671
0.417401
0.0370281
0.412382
0.0617857
0.40456
0.116498
0.391929
0.21287
-0.223217
0.260443
-0.382655
0.298023
-0.387834
0.341021
-0.428968
0.378066
-0.377372
0.414124
-0.366434
0.44918
-0.350992
0.480456
-0.313232
0.509059
-0.285008
0.535061
-0.255186
0.558135
-0.223741
0.578979
-0.196765
0.597567
-0.170192
0.614118
-0.144886
0.628787
-0.120909
0.641475
-0.0967557
0.652454
-0.0731539
0.66152
-0.0486485
0.668632
-0.0241647
0.673766
0.00140178
0.676827
0.0268349
0.677797
0.0529007
0.676761
0.0770167
0.673825
0.0988819
0.669203
0.115163
0.663024
0.124774
0.655315
0.132793
0.646262
0.141765
0.635914
0.150444
0.624345
0.159322
0.611655
0.168488
0.597853
0.178161
0.582952
0.188637
0.566856
0.200728
0.54948
0.215832
0.530508
0.236401
0.509463
0.269349
0.485317
0.320497
0.459025
0.43523
0.424534
0.587372
-0.186418
-0.384527
-0.148693
-0.400617
-0.100906
-0.499574
-0.0538563
-0.504323
-0.00600833
-0.520724
0.0430307
-0.538461
0.0897185
-0.521962
0.130387
-0.471203
0.165365
-0.419476
0.195388
-0.372218
0.220166
-0.320623
0.240619
-0.27683
0.258117
-0.243853
0.273256
-0.216012
0.286762
-0.194778
0.299301
-0.178917
0.311187
-0.166437
0.322697
-0.156902
0.334058
-0.149769
0.345367
-0.14408
0.356643
-0.139427
0.367884
-0.13502
0.379055
-0.129893
0.389915
-0.12101
0.400059
-0.108026
0.409274
-0.0944448
0.417478
-0.0808942
0.424623
-0.0675907
0.430661
-0.0544386
0.435572
-0.0416046
0.439337
-0.029066
0.441957
-0.0168812
0.443425
-0.00478243
0.443675
0.00763603
0.44258
0.0214623
0.439869
0.0397392
0.43484
0.0668139
0.427221
0.124118
0.41528
0.224811
-0.225454
0.264794
-0.421995
0.304392
-0.427433
0.349803
-0.474378
0.388795
-0.416365
0.42678
-0.40442
0.463795
-0.388006
0.496587
-0.346024
0.526635
-0.315056
0.554
-0.28255
0.578178
-0.247919
0.599908
-0.218496
0.619353
-0.189636
0.636536
-0.16207
0.651895
-0.136268
0.665358
-0.110218
0.676917
-0.0847127
0.686604
-0.0583353
0.694307
-0.0318679
0.699938
-0.00422986
0.703587
0.0231864
0.705191
0.0512972
0.704688
0.0775192
0.702321
0.101249
0.698232
0.119251
0.692529
0.130477
0.685228
0.140093
0.67638
0.150614
0.666158
0.160665
0.654631
0.170848
0.641828
0.181292
0.627811
0.192177
0.61256
0.203887
0.596064
0.217224
0.578144
0.233751
0.558525
0.256021
0.536811
0.291063
0.511974
0.345333
0.485006
0.462198
0.451034
0.621344
-0.18665
-0.42333
-0.147063
-0.440204
-0.0966023
-0.550035
-0.0470673
-0.553858
0.00327979
-0.571071
0.054899
-0.590081
0.103878
-0.570942
0.146543
-0.513868
0.183041
-0.455974
0.214336
-0.403513
0.239965
-0.346252
0.261017
-0.297882
0.278864
-0.2617
0.294154
-0.231302
0.307692
-0.208316
0.320144
-0.191369
0.331902
-0.178195
0.343301
-0.168301
0.354546
-0.161014
0.365776
-0.15531
0.377041
-0.150692
0.388365
-0.146344
0.399685
-0.141213
0.410768
-0.132093
0.421205
-0.118463
0.430727
-0.103966
0.439258
-0.0894254
0.446725
-0.0750579
0.453092
-0.0608056
0.458298
-0.0468109
0.462349
-0.0331162
0.465223
-0.0197555
0.466865
-0.00642466
0.467265
0.00723598
0.466253
0.0224741
0.463571
0.0424215
0.458564
0.0718211
0.451117
0.131565
0.439923
0.236005
-0.228108
0.269608
-0.463495
0.311331
-0.469155
0.359248
-0.522296
0.400301
-0.457417
0.440407
-0.444526
0.479368
-0.426967
0.513861
-0.380517
0.545462
-0.346657
0.574115
-0.311203
0.599385
-0.273189
0.622108
-0.241219
0.642432
-0.20996
0.660502
-0.18014
0.676494
-0.152259
0.690553
-0.124277
0.702706
-0.0968664
0.712957
-0.0685856
0.721231
-0.040142
0.727534
-0.0105329
0.731715
0.0190047
0.733826
0.049186
0.733926
0.0774197
0.732069
0.103107
0.728489
0.122831
0.723231
0.135735
0.716305
0.147019
0.707761
0.159158
0.697699
0.170728
0.686197
0.18235
0.673315
0.194174
0.659115
0.206377
0.643576
0.219426
0.626638
0.234162
0.608194
0.252196
0.587969
0.276246
0.565601
0.313431
0.540073
0.370861
0.512525
0.489746
0.479085
0.654784
-0.187133
-0.464305
-0.145394
-0.481943
-0.0922334
-0.603196
-0.0400608
-0.60603
0.0129348
-0.624066
0.067249
-0.644395
0.118739
-0.622432
0.163485
-0.558614
0.201697
-0.494186
0.234323
-0.436139
0.260949
-0.372879
0.282645
-0.319577
0.300891
-0.279946
0.316414
-0.246825
0.330005
-0.221907
0.342438
-0.203803
0.354087
-0.189843
0.365355
-0.179569
0.376477
-0.172135
0.387622
-0.166456
0.398848
-0.161919
0.410195
-0.15769
0.421639
-0.152658
0.432941
-0.143395
0.443623
-0.129145
0.453424
-0.113768
0.462264
-0.0982651
0.470053
-0.0828468
0.476741
-0.0674939
0.482267
-0.0523362
0.486597
-0.0374465
0.489696
-0.0228548
0.491563
-0.00829109
0.492101
0.00669748
0.491188
0.0233871
0.488559
0.0450506
0.483591
0.076789
0.47638
0.138776
0.465964
0.24642
-0.231006
0.274719
-0.507208
0.318774
-0.51321
0.369373
-0.572896
0.412655
-0.500698
0.454918
-0.48679
0.495899
-0.467948
0.532246
-0.416864
0.565453
-0.379864
0.595474
-0.341224
0.621972
-0.299687
0.645833
-0.26508
0.667007
-0.231133
0.685841
-0.198974
0.702567
-0.168986
0.717228
-0.138938
0.729992
-0.109629
0.740789
-0.0793836
0.74964
-0.0489928
0.756422
-0.0173148
0.761179
0.0142478
0.763807
0.0465581
0.764388
0.0768386
0.763077
0.104418
0.759985
0.125922
0.755219
0.140502
0.748666
0.153572
0.74041
0.167414
0.730537
0.1806
0.719095
0.193791
0.706187
0.207082
0.691822
0.220743
0.67601
0.235238
0.658689
0.251482
0.639742
0.271143
0.618934
0.297054
0.595865
0.336501
0.56971
0.397016
0.541646
0.51781
0.508722
0.687708
-0.187809
-0.507502
-0.143861
-0.525891
-0.0878287
-0.659228
-0.0328114
-0.661047
0.0229613
-0.679839
0.0800903
-0.701524
0.134307
-0.676649
0.181244
-0.605551
0.221305
-0.534247
0.255377
-0.47021
0.283058
-0.40056
0.305489
-0.342009
0.324257
-0.298714
0.340048
-0.262617
0.353765
-0.235623
0.366208
-0.216246
0.377793
-0.201429
0.388943
-0.190719
0.39994
-0.183133
0.410968
-0.177484
0.42214
-0.17309
0.433491
-0.169041
0.445027
-0.164193
0.456491
-0.154859
0.467391
-0.140045
0.477469
-0.123845
0.486594
-0.10739
0.494701
-0.0909535
0.501689
-0.0744819
0.507519
-0.058166
0.51213
-0.0420578
0.515499
-0.0262242
0.517563
-0.0103547
0.518255
0.00600575
0.517462
0.0241793
0.514898
0.0476152
0.510032
0.0816548
0.503048
0.14576
0.49339
0.256078
-0.234274
0.280388
-0.553322
0.326885
-0.559706
0.380153
-0.626164
0.425906
-0.546452
0.470317
-0.531201
0.513569
-0.511199
0.551749
-0.455044
0.586662
-0.414777
0.618218
-0.37278
0.64602
-0.327489
0.670847
-0.289907
0.693057
-0.253344
0.712648
-0.218564
0.730091
-0.186429
0.745491
-0.154339
0.758794
-0.122932
0.770179
-0.0907687
0.779541
-0.0583541
0.786889
-0.0246632
0.792107
0.00902976
0.795219
0.043446
0.796338
0.0757199
0.795455
0.105301
0.792839
0.128538
0.788495
0.144846
0.782331
0.159736
0.7744
0.175346
0.764744
0.190256
0.753447
0.205088
0.740514
0.220015
0.726017
0.235239
0.709949
0.251307
0.692262
0.269169
0.672856
0.290549
0.651433
0.318477
0.627749
0.360185
0.600961
0.423804
0.572369
0.546402
0.539993
0.720084
-0.188736
-0.55304
-0.142403
-0.572224
-0.0832803
-0.718351
-0.0253527
-0.718975
0.0334264
-0.738618
0.0935759
-0.761673
0.15054
-0.733613
0.199929
-0.654939
0.241905
-0.576224
0.277582
-0.505887
0.306432
-0.42941
0.329699
-0.365275
0.349021
-0.318037
0.365159
-0.278755
0.37905
-0.249514
0.391525
-0.22872
0.403085
-0.212989
0.414122
-0.201756
0.424992
-0.194003
0.435907
-0.188399
0.446997
-0.184181
0.458328
-0.180371
0.469932
-0.175798
0.481542
-0.166469
0.492647
-0.15115
0.50295
-0.134149
0.512336
-0.116777
0.520717
-0.0993345
0.528017
-0.0817814
0.534132
-0.0642818
0.539037
-0.0469629
0.542645
-0.0298318
0.544942
-0.012652
0.545827
0.00512113
0.545135
0.0248717
0.542699
0.0500507
0.537929
0.0864251
0.531249
0.152439
0.522366
0.264961
-0.237807
0.286449
-0.601964
0.335406
-0.608664
0.391748
-0.682506
0.439791
-0.594494
0.486727
-0.578138
0.532227
-0.556699
0.572513
-0.49533
0.609137
-0.4514
0.642265
-0.405908
0.671384
-0.356609
0.697488
-0.316011
0.720613
-0.276469
0.741144
-0.239096
0.759336
-0.20462
0.775362
-0.170365
0.789287
-0.136858
0.801191
-0.102673
0.811039
-0.0682021
0.818828
-0.032452
0.824534
0.00332369
0.828155
0.0398254
0.829656
0.0742192
0.829234
0.105723
0.827085
0.130687
0.823169
0.148762
0.817435
0.16547
0.809824
0.182957
0.800388
0.199691
0.789197
0.216279
0.776309
0.232903
0.761719
0.249829
0.745431
0.267595
0.727411
0.287189
0.707549
0.310411
0.685603
0.340423
0.661295
0.384494
0.633912
0.451186
0.604839
0.575476
0.572967
0.751955
-0.189802
-0.601044
-0.140963
-0.621063
-0.0786181
-0.780696
-0.0176211
-0.779972
0.04431
-0.800549
0.10766
-0.825024
0.167648
-0.793601
0.219524
-0.706815
0.263589
-0.620289
0.300933
-0.543231
0.331063
-0.459539
0.355249
-0.389461
0.375203
-0.337991
0.391763
-0.295315
0.405884
-0.263635
0.418456
-0.241292
0.429993
-0.224526
0.440961
-0.212724
0.451714
-0.204756
0.46253
-0.199215
0.473513
-0.195164
0.48482
-0.191678
0.496455
-0.187433
0.50818
-0.178193
0.519461
-0.162431
0.529958
-0.144646
0.539602
-0.126421
0.548249
-0.107981
0.555808
-0.0893411
0.562237
-0.0707106
0.567409
-0.0521347
0.571283
-0.0337063
0.573784
-0.0151529
0.574852
0.00405318
0.574332
0.0253916
0.572001
0.0523817
0.567406
0.0910205
0.561005
0.15884
0.552915
0.273052
-0.241669
0.292923
-0.653217
0.344549
-0.66029
0.403933
-0.741891
0.454699
-0.64526
0.50406
-0.627499
0.552085
-0.604724
0.594365
-0.53761
0.632934
-0.489969
0.667744
-0.440718
0.698338
-0.387203
0.725601
-0.343273
0.749872
-0.30074
0.771272
-0.260495
0.790251
-0.2236
0.806912
-0.187026
0.821476
-0.151422
0.833887
-0.115084
0.844224
-0.0785389
0.852527
-0.0407554
0.858645
-0.00279429
0.862659
0.0358117
0.8646
0.0722782
0.86459
0.105733
0.862853
0.132424
0.859365
0.152249
0.853991
0.170845
0.846702
0.190246
0.837558
0.208835
0.826534