/*--------------------------------*- C++ -*----------------------------------*\
| =========                 |                                                 |
| \\      /  F ield         | OpenFOAM: The Open Source CFD Toolbox           |
|  \\    /   O peration     | Version:  3.0.0                                 |
|   \\  /    A nd           | Web:      www.OpenFOAM.org                      |
|    \\/     M anipulation  |                                                 |
\*---------------------------------------------------------------------------*/
FoamFile
{
    version     2.0;
    format      ascii;
    class       volVectorField;
    location    "349";
    object      U;
}
// * * * * * * * * * * * * * * * * * * * * * * * * * * * * * * * * * * * * * //

dimensions      [0 1 -1 0 0 0 0];

internalField   nonuniform List<vector> 
10720
(
(-0.199556 31.7363 4.7428e-18)
(1.83376 33.9846 -4.43595e-18)
(4.31474 36.1183 0)
(7.11277 37.6857 -3.09872e-16)
(10.1561 38.8003 3.41245e-16)
(13.3712 39.4284 2.47955e-16)
(16.5928 39.4684 3.79532e-16)
(19.7264 38.9716 0)
(22.6931 38.0126 0)
(25.4156 36.631 0)
(27.8716 34.9385 1.25513e-16)
(30.018 32.9573 0)
(31.8526 30.7385 2.01549e-15)
(33.3933 28.349 0)
(34.6354 25.8248 0)
(35.5946 23.2238 0)
(36.261 20.5723 -3.29308e-15)
(36.6402 17.925 -4.93716e-15)
(36.7134 15.3051 4.33994e-15)
(36.4915 12.7689 0)
(35.9544 10.3473 3.40873e-15)
(35.1381 8.10715 -6.53692e-15)
(34.0891 6.09352 3.16254e-15)
(32.9178 4.36269 -9.32523e-17)
(31.8259 2.95633 0)
(30.8981 1.81754 1.08727e-15)
(30.0344 0.855833 1.63649e-17)
(29.1335 0.0290554 -4.13944e-16)
(28.1579 -0.685167 -1.35744e-15)
(27.1044 -1.30069 -4.30601e-15)
(25.976 -1.82317 1.55348e-15)
(24.7753 -2.25507 2.00463e-15)
(23.4988 -2.5966 7.89928e-16)
(22.136 -2.84764 -1.98661e-15)
(20.6348 -3.00263 3.68756e-15)
(18.9567 -3.05885 4.11951e-17)
(16.7778 -2.95879 -9.55386e-17)
(14.2583 -2.69984 -6.17892e-14)
(8.61708 -2.10713 9.29927e-14)
(-1.85978 29.2944 -5.48831e-18)
(-3.26772 26.4995 -2.29738e-17)
(-4.35418 23.3157 7.78969e-17)
(-4.97075 19.5536 -2.17949e-16)
(-4.95325 15.6305 -6.34927e-16)
(-4.23978 11.6623 1.02201e-15)
(-2.84587 7.89883 4.6626e-15)
(-0.928227 4.64096 2.62877e-15)
(1.20326 2.06764 0)
(3.35271 -0.079024 0)
(5.62579 -1.84223 4.51177e-15)
(7.84014 -3.09921 1.63606e-15)
(9.83952 -3.89346 -2.67325e-15)
(11.597 -4.34957 2.24256e-15)
(13.1417 -4.58161 3.83523e-15)
(14.5084 -4.66165 2.54678e-15)
(15.7246 -4.64203 3.40854e-15)
(16.8204 -4.55616 2.38365e-15)
(17.8269 -4.42769 0)
(18.7673 -4.26288 0)
(19.6603 -4.06551 -4.07511e-15)
(20.5181 -3.82725 -2.24502e-16)
(21.3439 -3.53435 3.56142e-15)
(22.1096 -3.15754 -3.0346e-15)
(22.7518 -2.69186 2.26234e-17)
(23.2521 -2.17373 0)
(23.6348 -1.62903 1.2035e-15)
(23.9154 -1.07381 0)
(24.0993 -0.519336 0)
(24.1908 0.0232347 1.04496e-15)
(24.1817 0.543999 0)
(24.0626 1.03598 -3.98946e-15)
(23.8481 1.49384 -7.69764e-15)
(23.5557 1.91273 -3.83321e-14)
(23.185 2.28891 1.53835e-14)
(22.7306 2.62299 -5.98992e-17)
(22.0743 2.90788 0)
(21.1613 3.1072 3.33873e-14)
(18.4854 3.27632 3.83932e-14)
(7.30081 27.6576 -1.67855e-17)
(9.44137 29.3753 1.14422e-17)
(12.0127 30.891 0)
(14.9358 32.099 0)
(18.0406 32.947 -9.36162e-17)
(21.3318 33.3756 -2.37803e-16)
(24.6835 33.3449 0)
(27.9526 32.8871 0)
(31.0821 32.0193 5.01047e-16)
(33.9844 30.8034 0)
(36.5973 29.2972 1.9637e-15)
(38.9272 27.6235 0)
(40.9624 25.8161 7.02541e-16)
(42.6978 23.8912 -6.93064e-16)
(44.1055 21.8791 1.37451e-15)
(45.1744 19.8024 -2.74428e-15)
(45.9097 17.6741 2.99187e-15)
(46.3055 15.5224 2.66248e-15)
(46.3667 13.3595 2.58531e-15)
(46.0822 11.2212 1.54822e-16)
(45.4584 9.13717 -2.6657e-15)
(44.4937 7.16653 2.47075e-15)
(43.2203 5.35339 -1.36884e-16)
(41.6809 3.75804 0)
(39.9931 2.43151 0)
(38.3077 1.31778 0)
(36.6797 0.336751 8.26044e-17)
(35.0953 -0.523994 -1.63936e-17)
(33.5509 -1.26916 9.81316e-16)
(32.0373 -1.90706 3.68483e-17)
(30.5357 -2.44172 -2.9085e-17)
(29.0261 -2.87646 -5.28365e-17)
(27.4877 -3.21399 5.00191e-16)
(25.9033 -3.45665 6.81363e-16)
(24.2278 -3.60355 2.62664e-17)
(22.4398 -3.65471 8.72089e-15)
(20.2565 -3.56436 0)
(17.9183 -3.33805 1.73533e-14)
(12.3129 -2.52704 4.87306e-14)
(5.45375 25.8039 2.29753e-17)
(3.81316 23.7187 -7.48023e-17)
(2.30483 21.2538 -7.98251e-16)
(1.08184 18.4182 9.25705e-16)
(0.326785 15.3018 0)
(0.13491 12.0307 -1.74329e-15)
(0.557836 8.78743 -1.19227e-15)
(1.55862 5.82767 -9.64207e-15)
(2.98436 3.30557 4.0491e-15)
(4.66641 1.16121 -3.62002e-15)
(6.51156 -0.539151 4.39898e-15)
(8.39107 -1.73974 -1.24441e-15)
(10.1851 -2.52817 0)
(11.84 -3.02081 -9.03893e-16)
(13.3458 -3.31104 4.64417e-17)
(14.7119 -3.45601 -2.16988e-15)
(15.9496 -3.50345 0)
(17.0785 -3.48334 0)
(18.1211 -3.41767 -2.65895e-16)
(19.0993 -3.30782 2.54185e-16)
(20.0287 -3.15452 -3.3874e-15)
(20.9215 -2.94372 -4.09104e-16)
(21.7802 -2.65742 1.91163e-16)
(22.583 -2.26092 2.7086e-15)
(23.2781 -1.76656 -2.52992e-15)
(23.8412 -1.23879 -2.22721e-15)
(24.2874 -0.705831 0)
(24.6287 -0.178989 0)
(24.8693 0.335158 0)
(25.0095 0.828189 8.35564e-18)
(25.067 1.29231 0)
(25.0596 1.72213 0)
(24.9808 2.11678 1.31525e-14)
(24.8217 2.47553 1.28013e-14)
(24.571 2.80014 -1.25862e-14)
(24.2366 3.09618 1.25191e-14)
(23.7186 3.36242 -2.49284e-14)
(23.2122 3.59603 -2.52847e-14)
(21.2357 3.65884 -2.6643e-14)
(8.19807 25.4296 -4.6275e-18)
(9.75672 26.9412 -4.85953e-17)
(11.624 28.3869 3.56941e-17)
(13.7435 29.6928 7.27254e-18)
(16.0498 30.7365 -8.54936e-17)
(18.5431 31.4927 3.47975e-16)
(21.1426 31.9251 -2.58141e-16)
(23.7672 32.0001 -3.26642e-16)
(26.3601 31.7197 1.85273e-19)
(28.8633 31.1011 -4.87246e-16)
(31.2255 30.1661 4.2053e-16)
(33.4173 28.9426 -1.23015e-15)
(35.4166 27.4687 -5.66355e-16)
(37.2076 25.783 0)
(38.8023 23.9125 -1.42478e-15)
(40.2053 21.8883 2.83767e-15)
(41.407 19.7399 0)
(42.3826 17.5126 -5.24996e-15)
(43.1205 15.236 -2.61952e-15)
(43.5901 12.9615 2.96088e-16)
(43.7775 10.7257 -2.93794e-16)
(43.6599 8.59554 -1.2691e-16)
(43.2386 6.61935 -1.76013e-15)
(42.5231 4.85817 8.5277e-16)
(41.5708 3.3573 0)
(40.4659 2.06067 6.74532e-16)
(39.2354 0.898696 -7.57781e-17)
(37.8791 -0.129564 0)
(36.4192 -1.02193 8.29475e-16)
(34.8858 -1.7839 1.3537e-15)
(33.2998 -2.41953 -1.92295e-15)
(31.6734 -2.93382 -1.17429e-15)
(30.0061 -3.3325 -4.49029e-17)
(28.2906 -3.62044 6.78963e-16)
(26.4863 -3.79921 2.21355e-15)
(24.5718 -3.86719 -7.4579e-15)
(22.2851 -3.78703 0)
(19.8676 -3.5202 1.39721e-14)
(14.6893 -2.7978 -7.24708e-14)
(6.89709 23.8164 -2.89348e-17)
(5.73157 22.0293 -8.59499e-17)
(4.71051 19.9008 3.34295e-16)
(3.8397 17.4921 0)
(3.27888 14.8816 5.6504e-16)
(3.08244 12.1284 0)
(3.2952 9.34945 3.63925e-15)
(3.91432 6.73049 2.41279e-15)
(4.88564 4.39903 2.7577e-15)
(6.14149 2.37167 0)
(7.59635 0.704833 -4.30477e-15)
(9.13256 -0.580515 -9.49087e-16)
(10.6568 -1.53334 4.31503e-15)
(12.1132 -2.21911 0)
(13.4779 -2.69392 -2.13889e-15)
(14.746 -3.00348 -6.59564e-16)
(15.9196 -3.1882 2.93174e-15)
(17.0083 -3.27799 1.6055e-15)
(18.0271 -3.29465 4.82015e-16)
(18.992 -3.24663 -2.43364e-16)
(19.9151 -3.13871 3.08907e-15)
(20.8053 -2.96453 0)
(21.6633 -2.7123 0)
(22.4709 -2.36159 2.16505e-17)
(23.186 -1.92524 0)
(23.7856 -1.45001 4.44561e-15)
(24.2793 -0.955242 -6.59011e-17)
(24.678 -0.449193 -4.89781e-16)
(24.9853 0.0600383 0)
(25.2029 0.562171 -8.95009e-16)
(25.3347 1.04821 1.75304e-15)
(25.3866 1.5124 0)
(25.3617 1.94968 -6.6019e-15)
(25.2616 2.35477 0)
(25.0758 2.72568 0)
(24.8051 3.06311 3.88123e-17)
(24.3408 3.36709 3.59379e-17)
(23.8085 3.59885 2.53087e-14)
(22.0448 3.6666 5.1666e-14)
(10.8917 23.2835 -2.55693e-17)
(12.3378 24.5741 -3.55332e-17)
(14.046 25.8091 4.73336e-17)
(15.9864 26.9136 4.32964e-17)
(18.1009 27.7966 0)
(20.3951 28.4376 0)
(22.8061 28.7962 -3.57766e-16)
(25.2668 28.8413 5.19315e-16)
(27.7278 28.5688 0)
(30.131 27.9864 -6.91946e-16)
(32.424 27.1124 -9.83804e-16)
(34.5673 25.9757 -8.95142e-16)
(36.5269 24.6143 1.13996e-15)
(38.2809 23.063 1.04141e-15)
(39.8109 21.3559 0)
(41.0904 19.5346 1.64843e-15)
(42.1013 17.635 5.77717e-16)
(42.8447 15.6843 4.64279e-15)
(43.3232 13.7081 2.76817e-16)
(43.5449 11.7362 -2.74992e-16)
(43.5191 9.80081 2.24994e-15)
(43.2611 7.94725 -3.64854e-16)
(42.7972 6.21628 1.93811e-15)
(42.1604 4.65259 7.54072e-16)
(41.4017 3.28793 -4.25369e-17)
(40.5751 2.08404 -6.08427e-16)
(39.6808 0.985368 4.04264e-18)
(38.6841 -0.0122299 -4.0553e-18)
(37.5661 -0.904529 -7.90123e-16)
(36.3232 -1.69139 -1.63964e-17)
(34.9569 -2.3687 9.20975e-16)
(33.4749 -2.9323 -1.0549e-15)
(31.8852 -3.38011 -3.62358e-16)
(30.1941 -3.71127 5.14745e-17)
(28.377 -3.92409 -2.00052e-15)
(26.4217 -4.01212 0)
(24.0911 -3.94288 -9.4247e-15)
(21.5875 -3.63049 -1.21286e-14)
(16.6729 -2.95842 2.99703e-14)
(9.6514 21.9184 -4.24635e-17)
(8.51567 20.4199 1.34826e-16)
(7.4813 18.6367 5.12969e-16)
(6.57348 16.6001 0)
(5.92989 14.3804 -5.1185e-16)
(5.59273 12.0168 0)
(5.59983 9.6006 -3.0748e-15)
(5.95516 7.28824 -1.03397e-16)
(6.61767 5.17311 2.07076e-15)
(7.5448 3.27958 1.86997e-15)
(8.67328 1.66736 4.44724e-17)
(9.91595 0.364589 3.18596e-15)
(11.2024 -0.649407 -2.17537e-15)
(12.4794 -1.41397 6.86998e-16)
(13.7143 -1.96973 2.47981e-15)
(14.8913 -2.35668 2.85174e-15)
(16.0036 -2.60995 -2.6537e-15)
(17.0515 -2.75859 2.35287e-18)
(18.0424 -2.82459 0)
(18.9863 -2.81969 3.29848e-15)
(19.892 -2.74923 1.8424e-16)
(20.7653 -2.60975 -2.95518e-15)
(21.6058 -2.39208 0)
(22.3977 -2.08095 2.01964e-17)
(23.1061 -1.68371 0)
(23.708 -1.2377 -2.02029e-15)
(24.2088 -0.765481 0)
(24.618 -0.279076 4.58919e-16)
(24.9394 0.211208 -2.03235e-17)
(25.1754 0.694662 1.3312e-17)
(25.3302 1.16239 -1.57944e-15)
(25.4092 1.60696 -5.0454e-17)
(25.416 2.02327 0)
(25.3533 2.4084 6.08942e-15)
(25.2124 2.7625 9.52343e-17)
(24.9942 3.08593 -1.21172e-14)
(24.5965 3.38063 4.89283e-14)
(24.1137 3.58125 9.27713e-17)
(22.5291 3.64037 0)
(12.3977 21.6472 -3.75941e-17)
(13.6224 22.7933 -2.91108e-17)
(15.0788 23.9144 9.41512e-17)
(16.7256 24.9474 -2.33834e-16)
(18.5135 25.808 3.88971e-17)
(20.4646 26.4884 -1.07883e-17)
(22.5268 26.9505 1.37873e-16)
(24.6481 27.1601 0)
(26.7961 27.1078 6.89099e-16)
(28.9225 26.7895 3.97307e-16)
(30.985 26.2087 0)
(32.9492 25.3783 8.63526e-16)
(34.7825 24.318 -4.58704e-16)
(36.4592 23.0484 1.22734e-15)
(37.9581 21.5913 0)
(39.2608 19.9692 -2.19403e-15)
(40.3618 18.1963 2.0009e-15)
(41.244 16.3063 -1.74775e-16)
(41.8921 14.3358 0)
(42.2919 12.3309 2.13377e-15)
(42.4364 10.3378 -2.16303e-15)
(42.3279 8.41418 -1.05583e-16)
(41.9875 6.61205 -1.56751e-15)
(41.4535 4.98164 -1.41275e-15)
(40.7868 3.55693 0)
(40.0537 2.3087 0)
(39.2777 1.18337 -1.27462e-16)
(38.4442 0.16674 -1.26448e-17)
(37.54 -0.743254 7.28071e-16)
(36.5543 -1.55117 -1.53029e-17)
(35.4701 -2.25687 1.52601e-17)
(34.2685 -2.85705 9.84834e-16)
(32.9312 -3.34745 0)
(31.4457 -3.72298 -1.37376e-15)
(29.7808 -3.97712 9.99294e-18)
(27.9259 -4.09644 0)
(25.6666 -4.0496 -2.77283e-17)
(23.1759 -3.71186 0)
(18.4737 -3.0581 -2.59957e-14)
(11.3435 20.4418 5.73444e-17)
(10.3774 19.1321 -2.95671e-16)
(9.47673 17.5737 3.17818e-16)
(8.65646 15.7984 4.36614e-16)
(8.03942 13.8714 -1.77254e-15)
(7.65724 11.8103 -2.17679e-15)
(7.54748 9.68578 2.63409e-15)
(7.72535 7.62833 -3.20268e-15)
(8.16866 5.71196 -1.60628e-15)
(8.85204 3.96479 -1.46093e-15)
(9.72661 2.4406 2.80139e-15)
(10.7287 1.16626 -2.70767e-15)
(11.8049 0.132281 -1.24359e-15)
(12.9093 -0.68507 1.20454e-15)
(14.0081 -1.31124 -2.76908e-15)
(15.0815 -1.7763 5.16332e-16)
(16.1173 -2.10702 0)
(17.1099 -2.32708 -2.21593e-15)
(18.0606 -2.45533 8.23657e-16)
(18.9743 -2.50388 -3.4221e-15)
(19.856 -2.47847 0)
(20.7088 -2.37794 2.56151e-15)
(21.5305 -2.19608 2.22265e-15)
(22.307 -1.92312 -2.03131e-15)
(23.0081 -1.56509 0)
(23.6114 -1.15305 -1.90856e-15)
(24.118 -0.710368 0)
(24.5353 -0.249245 0)
(24.8663 0.220379 0)
(25.1133 0.688024 7.88286e-16)
(25.2801 1.14436 0)
(25.3717 1.58193 0)
(25.3918 1.99582 -5.88589e-15)
(25.3435 2.38167 -5.76287e-15)
(25.2196 2.73787 0)
(25.0223 3.06225 -1.14905e-14)
(24.6576 3.35601 6.33311e-17)
(24.2162 3.54 0)
(22.8151 3.58707 -2.29997e-14)
(13.9038 20.2096 5.46265e-17)
(15.0153 21.2254 -4.03359e-17)
(16.3321 22.2258 0)
(17.816 23.1514 6.22465e-18)
(19.4196 23.9285 1.49305e-16)
(21.1746 24.5546 1.02115e-17)
(23.0358 24.9931 4.87942e-17)
(24.9605 25.2132 -2.57126e-16)
(26.9261 25.2026 -1.06719e-16)
(28.892 24.9529 6.46861e-16)
(30.821 24.4622 -2.4576e-16)
(32.6825 23.7361 5.88907e-16)
(34.4429 22.7877 2.93577e-16)
(36.0735 21.633 1.52951e-16)
(37.5497 20.2921 0)
(38.8485 18.7889 -4.56359e-16)
(39.9439 17.1582 -1.02761e-15)
(40.8153 15.4349 -3.67257e-15)
(41.4494 13.6492 1.05654e-15)
(41.8399 11.8322 -1.37958e-15)
(41.9842 10.0192 -2.11481e-16)
(41.888 8.25249 0)
(41.5694 6.5761 1.4092e-15)
(41.0618 5.03325 8.74096e-17)
(40.4177 3.65673 -3.57317e-17)
(39.6962 2.43258 -4.78552e-16)
(38.9264 1.32166 1.05005e-16)
(38.1077 0.312472 1.99632e-16)
(37.2399 -0.594632 -6.828e-16)
(36.3254 -1.40322 -2.82099e-17)
(35.3597 -2.11515 7.76809e-16)
(34.3291 -2.72939 8.34602e-16)
(33.2098 -3.24329 0)
(31.9718 -3.65143 -6.88301e-17)
(30.5599 -3.94445 1.96328e-15)
(28.9399 -4.10203 0)
(26.8918 -4.08992 1.67445e-14)
(24.5629 -3.74996 0)
(20.1278 -3.12237 2.34849e-14)
(12.9379 19.1458 -5.56284e-17)
(12.0494 17.9977 1.32664e-16)
(11.2071 16.6292 0)
(10.4271 15.0666 0)
(9.81827 13.3715 7.8978e-16)
(9.40229 11.5518 3.77183e-15)
(9.21369 9.66519 0)
(9.26791 7.8214 -2.5727e-15)
(9.554 6.08324 -2.52828e-15)
(10.0553 4.47893 2.49605e-15)
(10.7318 3.05189 -6.09577e-17)
(11.5372 1.82767 1.13668e-15)
(12.4319 0.802994 2.57733e-17)
(13.3787 -0.0355667 3.15043e-15)
(14.3469 -0.702447 2.95558e-15)
(15.3159 -1.21865 -2.83328e-15)
(16.2711 -1.60399 4.30355e-16)
(17.2031 -1.8773 -8.19541e-16)
(18.1082 -2.05443 3.89279e-16)
(18.9869 -2.1467 2.4764e-15)
(19.8406 -2.16021 3.34007e-16)
(20.6696 -2.09554 -2.92721e-16)
(21.4702 -1.9485 -1.92124e-15)
(22.2291 -1.71285 0)
(22.9201 -1.3937 1.16815e-16)
(23.5215 -1.01636 3.47414e-15)
(24.031 -0.60321 -2.59571e-17)
(24.4535 -0.166878 2.56994e-17)
(24.7915 0.282206 0)
(25.0466 0.732943 -7.39315e-16)
(25.2222 1.17537 0)
(25.3228 1.60149 0)
(25.3518 2.00537 5.44088e-15)
(25.3123 2.38214 5.53126e-15)
(25.1972 2.72992 0)
(25.0088 3.04503 1.06988e-14)
(24.6593 3.32833 -4.32601e-14)
(24.2347 3.48935 1.62065e-16)
(22.9783 3.51321 2.10724e-14)
(15.1057 18.9905 6.75129e-18)
(16.1053 19.9033 -3.93392e-17)
(17.2899 20.8103 9.59607e-17)
(18.6197 21.6562 -9.37872e-17)
(20.0483 22.3751 -8.82398e-17)
(21.6139 22.9706 0)
(23.275 23.4102 -1.07323e-18)
(24.9958 23.6654 1.959e-17)
(26.7626 23.7249 -1.88279e-16)
(28.5407 23.5784 -3.80364e-16)
(30.3002 23.2198 0)
(32.0161 22.6493 -1.03538e-15)
(33.6574 21.873 -9.56596e-16)
(35.1971 20.9002 -2.35168e-15)
(36.6105 19.7445 0)
(37.8721 18.4243 -1.46956e-15)
(38.9608 16.9588 -1.54632e-15)
(39.8598 15.3675 1.70603e-15)
(40.5515 13.6797 -1.67398e-15)
(41.0211 11.9322 1.49994e-15)
(41.2594 10.1662 1.82571e-16)
(41.2644 8.43024 -1.5447e-15)
(41.0473 6.7724 0)
(40.6341 5.23698 -1.24579e-15)
(40.0686 3.85565 7.24556e-17)
(39.4023 2.62078 5.02448e-16)
(38.6662 1.5006 0)
(37.8663 0.483208 -1.79231e-17)
(37.0077 -0.431264 2.77059e-17)
(36.0999 -1.24599 9.17003e-16)
(35.1493 -1.96332 -6.93728e-16)
(34.1569 -2.58364 -8.06311e-16)
(33.1153 -3.1065 1.82418e-16)
(32.0089 -3.52935 -5.99373e-17)
(30.789 -3.84512 -1.89676e-15)
(29.4163 -4.03258 -6.13157e-15)
(27.6589 -4.05633 -8.21407e-15)
(25.6382 -3.7309 1.49761e-16)
(21.596 -3.14864 -7.68111e-17)
(14.2316 18.0373 2.53574e-17)
(13.4248 17.0152 2.59858e-16)
(12.6474 15.7953 3.07144e-16)
(11.9143 14.4017 -6.05636e-16)
(11.3244 12.893 -2.2162e-15)
(10.8932 11.2696 7.69892e-16)
(10.6537 9.57907 1.9687e-15)
(10.6224 7.91556 5.44055e-15)
(10.7943 6.33517 2.16296e-15)
(11.1578 4.86388 -2.05837e-15)
(11.6801 3.53614 -4.84852e-17)
(12.3266 2.37505 -1.01722e-15)
(13.0678 1.37956 0)
(13.8745 0.542138 -3.06669e-17)
(14.7205 -0.144717 -1.80325e-15)
(15.587 -0.695214 8.37395e-16)
(16.459 -1.12314 -8.19387e-16)
(17.3251 -1.44203 0)
(18.1786 -1.66405 1.40993e-15)
(19.0166 -1.79871 -2.62827e-15)
(19.8374 -1.85129 0)
(20.6388 -1.82307 2.2575e-15)
(21.4158 -1.7115 0)
(22.1555 -1.51288 -1.18152e-16)
(22.8345 -1.23187 1.16698e-16)
(23.432 -0.889241 -1.64617e-15)
(23.9428 -0.505912 -2.69311e-17)
(24.3696 -0.0950381 -2.44826e-17)
(24.714 0.332517 1.13014e-17)
(24.9768 0.765409 -7.21495e-16)
(25.1609 1.19331 -1.38123e-15)
(25.2702 1.60778 2.62499e-15)
(25.3077 2.00252 8.2916e-17)
(25.2761 2.37201 2.54843e-17)
(25.1686 2.71351 0)
(24.9869 3.02128 1.59838e-16)
(24.6485 3.29503 1.98363e-14)
(24.2336 3.43494 -9.37348e-18)
(23.0869 3.43258 1.96267e-14)
(16.1666 17.9178 1.06907e-17)
(17.0829 18.7417 7.10726e-17)
(18.1675 19.5643 0)
(19.3808 20.3336 -2.84165e-17)
(20.6771 20.9905 -1.39348e-16)
(22.0976 21.5424 0)
(23.6048 21.959 4.47754e-17)
(25.1673 22.2153 2.01753e-16)
(26.7773 22.3007 -4.23312e-16)
(28.4061 22.204 1.21945e-16)
(30.0286 21.9173 2.81747e-16)
(31.6246 21.4375 1.19466e-15)
(33.167 20.7657 8.91066e-16)
(34.6303 19.9065 1.18845e-15)
(35.9899 18.8689 3.16864e-16)
(37.2204 17.6664 1.09354e-15)
(38.2985 16.3168 1.49775e-15)
(39.2004 14.8466 1.36825e-15)
(39.9058 13.2858 -1.00495e-15)
(40.4004 11.665 -3.12624e-15)
(40.6756 10.0192 0)
(40.7302 8.38862 8.72616e-17)
(40.5738 6.81568 1.14254e-15)
(40.2287 5.34059 1.18367e-15)
(39.7308 3.99356 -6.53642e-17)
(39.1225 2.77472 -4.35786e-16)
(38.4323 1.66226 2.84779e-18)
(37.6684 0.6471 -1.93852e-16)
(36.8356 -0.269166 1.93217e-17)
(35.943 -1.08762 -1.70427e-15)
(34.9986 -1.80954 -8.12461e-18)
(34.0082 -2.43459 -1.52076e-17)
(32.9734 -2.96201 -1.80779e-16)
(31.8938 -3.3899 -5.99911e-17)
(30.7427 -3.71342 1.90447e-15)
(29.508 -3.9136 1.19087e-14)
(27.986 -3.96037 -7.95313e-15)
(26.3222 -3.65241 -9.25371e-15)
(22.805 -3.12918 2.04641e-14)
(15.3604 17.0594 -1.06021e-16)
(14.6148 16.1428 -3.62813e-16)
(13.8876 15.0472 -2.53374e-16)
(13.193 13.7938 -5.92644e-16)
(12.6217 12.4387 1.29916e-15)
(12.1844 10.9783 -4.31216e-17)
(11.9111 9.45165 -5.14337e-15)
(11.8195 7.94173 -1.87104e-15)
(11.9079 6.50063 6.62704e-18)
(12.1662 5.15028 0)
(12.5682 3.91865 -1.78399e-15)
(13.0866 2.82613 1.72773e-15)
(13.6992 1.87189 -1.69941e-15)
(14.3834 1.05131 -8.63012e-16)
(15.1179 0.361136 7.87377e-16)
(15.8868 -0.208059 7.78665e-16)
(16.6761 -0.66494 2.94684e-15)
(17.4739 -1.01845 -7.1127e-16)
(18.2722 -1.27722 -1.31374e-15)
(19.0655 -1.4486 0)
(19.8497 -1.53675 -2.28427e-15)
(20.6205 -1.54303 -1.85961e-15)
(21.3716 -1.46577 -1.25202e-17)
(22.0904 -1.30307 -2.35993e-16)
(22.7554 -1.05925 -1.05356e-16)
(23.3466 -0.751148 1.73654e-15)
(23.8567 -0.398083 -4.71903e-17)
(24.2861 -0.0134429 4.14891e-16)
(24.6356 0.391662 9.89797e-17)
(24.9053 0.805785 6.64376e-16)
(25.0973 1.21827 -9.69033e-18)
(25.2148 1.6202 -5.25445e-15)
(25.2605 2.00472 -4.93155e-15)
(25.2368 2.36562 -4.92425e-15)
(25.1367 2.69935 -1.51756e-16)
(24.9619 2.9984 7.41778e-17)
(24.6346 3.26114 -1.90819e-14)
(24.2306 3.38088 -1.85766e-14)
(23.1767 3.353 -1.80338e-14)
(17.0818 16.9699 -3.83968e-17)
(17.9259 17.7181 -3.08949e-17)
(18.9242 18.4683 -1.90088e-16)
(20.0371 19.1719 6.72909e-16)
(21.2195 19.7745 -2.72139e-16)
(22.5141 20.2869 1.72859e-16)
(23.8861 20.682 -1.45901e-16)
(25.3076 20.9369 0)
(26.7751 21.0433 1.17231e-16)
(28.2638 20.9901 6.89991e-18)
(29.7535 20.7689 -2.06199e-16)
(31.2286 20.3747 -1.06348e-15)
(32.6652 19.8057 -4.98066e-16)
(34.0407 19.063 0)
(35.3323 18.1515 0)
(36.5153 17.0806 0)
(37.5658 15.865 0)
(38.4618 14.5221 -1.33295e-15)
(39.183 13.0748 1.31979e-15)
(39.7123 11.5521 1.28834e-15)
(40.0377 9.98889 -9.96653e-16)
(40.1544 8.42611 8.91011e-16)
(40.0678 6.90624 -8.94738e-16)
(39.7958 5.4692 -6.36147e-17)
(39.3683 4.14433 -2.66515e-17)
(38.8218 2.93567 4.41424e-16)
(38.1834 1.82804 8.68189e-17)
(37.4638 0.81415 0)
(36.6688 -0.104015 0)
(35.8064 -0.926212 3.86747e-17)
(34.8837 -1.65294 0)
(33.9059 -2.2831 5.85725e-16)
(32.8754 -2.81524 -9.04038e-17)
(31.7956 -3.24671 7.58785e-16)
(30.6504 -3.57267 -3.62295e-15)
(29.4509 -3.77413 -5.74522e-15)
(28.0373 -3.82762 7.64991e-15)
(26.6394 -3.52494 1.80986e-14)
(23.6973 -3.05807 -1.97327e-14)
(16.3352 16.1914 0)
(15.6433 15.3631 1.08236e-16)
(14.961 14.3715 4.7376e-16)
(14.3021 13.2357 -2.06148e-15)
(13.7508 12.0093 1.73645e-15)
(13.3137 10.6864 -1.35976e-15)
(13.0187 9.2984 -1.19897e-18)
(12.8843 7.92048 1.48576e-15)
(12.911 6.60235 1.53885e-15)
(13.0888 5.36125 0)
(13.3964 4.22024 7.65981e-16)
(13.8116 3.19743 -2.33485e-15)
(14.3172 2.2913 3.81825e-15)
(14.8957 1.49836 7.32358e-16)
(15.5303 0.817325 -1.47945e-15)
(16.2083 0.242158 -1.42602e-15)
(16.9174 -0.232198 -1.36396e-15)
(17.6466 -0.610992 0)
(18.3873 -0.899592 0)
(19.1328 -1.10284 0)
(19.8771 -1.22356 2.14314e-15)
(20.6145 -1.26259 0)
(21.3375 -1.21867 -1.63573e-15)
(22.0334 -1.09094 -2.23629e-16)
(22.6825 -0.883238 -1.64703e-15)
(23.2653 -0.609365 -1.54612e-15)
(23.7727 -0.286779 0)
(24.2035 0.0711579 -3.49894e-16)
(24.5569 0.453227 -1.04713e-16)
(24.8327 0.847902 2.06891e-17)
(25.032 1.24427 2.53641e-15)
(25.1575 1.63301 -1.66555e-17)
(25.2112 2.00674 4.80761e-15)
(25.1954 2.35866 -4.68798e-15)
(25.1029 2.68434 0)
(24.9352 2.9745 -1.4483e-16)
(24.6196 3.22597 9.10399e-17)
(24.2283 3.32728 1.76622e-14)
(23.2604 3.27574 -1.26851e-16)
(17.8876 16.121 3.99436e-17)
(18.6713 16.8032 0)
(19.5971 17.4891 3.86603e-16)
(20.6259 18.1333 -3.45019e-16)
(21.7134 18.6854 1.21129e-16)
(22.9026 19.1585 -1.62685e-16)
(24.161 19.5275 8.68356e-17)
(25.4629 19.7728 4.62026e-17)
(26.8082 19.8872 0)
(28.1752 19.8603 -1.45357e-16)
(29.5477 19.6837 -1.70787e-16)
(30.9136 19.3517 1.67709e-16)
(32.2525 18.8606 8.47693e-16)
(33.5449 18.2085 3.96069e-16)
(34.7702 17.3972 -1.19459e-15)
(35.9045 16.4327 -8.95329e-16)
(36.9249 15.3257 7.16973e-16)
(37.8089 14.0913 5.511e-16)
(38.5346 12.7521 -2.72202e-16)
(39.0831 11.3345 2.72085e-16)
(39.4416 9.86974 7.07666e-16)
(39.6039 8.39392 1.27694e-16)
(39.5729 6.94579 -1.14903e-16)
(39.3627 5.5627 -7.39379e-16)
(38.998 4.27284 0)
(38.5087 3.08373 -3.55587e-16)
(37.9202 1.98702 -1.61061e-16)
(37.2448 0.978545 -1.34457e-16)
(36.4895 0.0613461 -4.42211e-16)
(35.6621 -0.762808 1.42203e-15)
(34.7696 -1.49333 4.40935e-16)
(33.8161 -2.1284 -3.7715e-17)
(32.8028 -2.66558 3.88112e-17)
(31.7321 -3.10114 0)
(30.5886 -3.42942 1.75147e-15)
(29.3895 -3.62949 0)
(28 -3.68207 0)
(26.7163 -3.37082 -8.78524e-15)
(24.279 -2.94075 1.3201e-16)
(17.1912 15.4115 -1.3004e-16)
(16.5448 14.6588 3.95129e-16)
(15.9014 13.7564 7.70913e-18)
(15.2747 12.7211 4.66745e-16)
(14.7431 11.6044 -1.61247e-15)
(14.3104 10.3987 1.22488e-15)
(14.002 9.12959 4.86335e-17)
(13.8374 7.86657 -1.26957e-15)
(13.818 6.65698 -1.26376e-15)
(13.9339 5.51394 -1.31393e-15)
(14.167 4.45713 -2.66662e-15)
(14.499 3.50258 0)
(14.916 2.64763 -1.38454e-15)
(15.4042 1.88894 -2.74849e-17)
(15.9504 1.22623 0)
(16.5451 0.655198 -1.2856e-15)
(17.1781 0.173403 -6.25588e-16)
(17.8398 -0.221775 -6.06482e-16)
(18.5222 -0.533022 2.25899e-15)
(19.2178 -0.762787 2.13514e-15)
(19.9198 -0.912198 -2.46184e-16)
(20.6213 -0.981424 1.89178e-15)
(21.3141 -0.969183 4.36522e-16)
(21.9856 -0.874938 -2.11939e-16)
(22.6169 -0.702093 1.46293e-15)
(23.1891 -0.46193 9.49963e-17)
(23.692 -0.169891 0)
(24.1225 0.16097 0)
(24.4787 0.519392 -1.99618e-17)
(24.7596 0.893893 5.86568e-17)
(24.9656 1.27338 -2.48242e-15)
(25.0986 1.64817 -1.61618e-17)
(25.1603 2.01037 4.83084e-15)
(25.1522 2.35261 4.50261e-15)
(25.0676 2.66955 1.40835e-16)
(24.9074 2.95031 2.81143e-18)
(24.6041 3.19006 3.44672e-14)
(24.2269 3.27431 -1.67843e-14)
(23.3413 3.20153 1.19172e-16)
(18.5991 15.3549 1.77498e-17)
(19.3303 15.9793 0)
(20.1933 16.6084 -1.89452e-16)
(21.1492 17.1993 0)
(22.1547 17.706 2.22848e-16)
(23.2526 18.1422 -2.16553e-16)
(24.412 18.4857 -1.32655e-16)
(25.6095 18.7188 -4.36751e-17)
(26.8465 18.8358 0)
(28.1043 18.8274 -3.15738e-18)
(29.3697 18.6859 2.04075e-16)
(30.6339 18.4051 -4.24141e-16)
(31.8792 17.9803 -2.72056e-16)
(33.0891 17.4082 -2.72517e-16)
(34.2452 16.6882 7.61159e-16)
(35.326 15.8234 8.57529e-16)
(36.3093 14.8213 -9.44174e-16)
(37.1732 13.6941 -9.08985e-16)
(37.8965 12.4589 0)
(38.4594 11.1392 2.40929e-16)
(38.8474 9.76322 -4.65732e-16)
(39.0523 8.36511 1.16328e-16)
(39.0738 6.98188 5.10894e-18)
(38.9223 5.64925 1.73107e-15)
(38.6176 4.39431 -9.09355e-17)
(38.1842 3.22657 6.32015e-17)
(37.645 2.1428 1.45377e-16)
(37.0135 1.14169 1.42227e-16)
(36.2977 0.227221 3.8354e-16)
(35.5059 -0.597431 -6.42268e-16)
(34.645 -1.33062 -4.09925e-16)
(33.7198 -1.96982 -9.28626e-16)
(32.7309 -2.51181 5.15791e-17)
(31.6798 -2.95177 5.65171e-18)
(30.5499 -3.28312 -1.77177e-15)
(29.3564 -3.48231 1.29723e-16)
(27.9741 -3.53353 -9.29719e-17)
(26.6988 -3.20902 1.41183e-16)
(24.6231 -2.78961 -1.79308e-14)
(17.9469 14.7056 7.52731e-17)
(17.3404 14.0182 -1.93367e-16)
(16.7319 13.1929 3.75035e-16)
(16.1347 12.2445 0)
(15.6224 11.2228 9.72264e-16)
(15.1966 10.1182 0)
(14.881 8.95226 0)
(14.6952 7.7901 0)
(14.6411 6.67659 2.31364e-15)
(14.709 5.62155 -1.16461e-15)
(14.8834 4.64224 1.25616e-15)
(15.1481 3.75303 0)
(15.4917 2.95002 0)
(15.9031 2.22942 -1.24141e-15)
(16.3721 1.59129 0)
(16.8915 1.03226 1.19509e-15)
(17.4535 0.551064 1.5123e-17)
(18.0504 0.147188 0)
(18.6747 -0.179907 -1.59757e-15)
(19.3195 -0.43076 -2.51309e-15)
(19.9774 -0.604987 -1.88212e-15)
(20.6411 -0.701707 -1.77232e-15)
(21.3019 -0.719172 3.32423e-15)
(21.9472 -0.65682 0)
(22.5589 -0.517473 1.3999e-15)
(23.1186 -0.310172 1.50966e-15)
(23.6151 -0.0484809 6.77404e-16)
(24.0436 0.255107 0)
(24.4015 0.589435 -7.81784e-17)
(24.6866 0.943128 -6.0603e-16)
(24.8986 1.30504 2.35621e-15)
(25.0387 1.66519 -1.56411e-17)
(25.108 2.0152 -4.43306e-15)
(25.1077 2.34717 4.1715e-15)
(25.031 2.65483 -1.28325e-18)
(24.8787 2.9258 1.3102e-16)
(24.5887 3.15351 -3.30253e-14)
(24.2265 3.2223 1.57449e-14)
(23.4198 3.13096 2.96081e-14)
(19.2324 14.6581 1.37268e-17)
(19.9176 15.2315 -5.93997e-17)
(20.7255 15.8098 0)
(21.618 16.3527 -3.13817e-16)
(22.5524 16.8176 0)
(23.571 17.2192 0)
(24.6444 17.5372 1.70198e-17)
(25.7503 17.7559 -7.17409e-17)
(26.8922 17.8706 -7.24394e-17)
(28.0532 17.8733 1.27754e-16)
(29.2224 17.7572 1.38213e-16)
(30.3935 17.5162 2.41601e-16)
(31.5516 17.1451 0)
(32.683 16.6393 7.01937e-16)
(33.7716 15.9967 -2.64485e-16)
(34.7978 15.2181 0)
(35.7412 14.3084 7.01657e-16)
(36.5807 13.2769 8.72469e-16)
(37.2955 12.1379 0)
(37.8654 10.9123 8.04734e-16)
(38.2746 9.62539 -7.88859e-16)
(38.5136 8.30787 0)
(38.5799 6.99364 -9.18269e-17)
(38.4808 5.7162 -4.52654e-18)
(38.2312 4.50133 4.24587e-17)
(37.8512 3.35998 5.92336e-16)
(37.3604 2.29305 -4.06191e-18)
(36.7725 1.30227 -1.27784e-17)
(36.0962 0.392913 -7.55988e-18)
(35.3398 -0.430509 2.03755e-17)
(34.5108 -1.16505 3.65506e-16)
(33.6143 -1.80736 7.60196e-16)
(32.6515 -2.35346 -3.20571e-17)
(31.624 -2.79755 8.62747e-16)
(30.5155 -3.13225 1.58041e-15)
(29.3383 -3.33148 5.09233e-15)
(27.9766 -3.38231 6.70486e-15)
(26.6792 -3.04926 -2.39284e-16)
(24.8278 -2.6206 1.69315e-14)
(18.6188 14.062 -1.52984e-16)
(18.0477 13.4319 -5.18229e-16)
(17.4706 12.6739 9.95879e-16)
(16.9006 11.8017 0)
(16.4072 10.8629 1.71542e-15)
(15.9898 9.84653 0)
(15.6715 8.77106 -9.62529e-16)
(15.4711 7.69821 3.85734e-15)
(15.391 6.66998 -2.96588e-15)
(15.4216 5.69419 0)
(15.5492 4.78593 2.1589e-15)
(15.7594 3.95814 2.16345e-15)
(16.0422 3.20609 0)
(16.3887 2.52551 -2.20497e-15)
(16.7905 1.91615 5.48439e-16)
(17.2427 1.37471 -5.48354e-16)
(17.7395 0.900699 5.43246e-16)
(18.2748 0.494776 1.02234e-15)
(18.8426 0.157903 -1.48917e-17)
(19.4364 -0.108831 1.38568e-15)
(20.0493 -0.303636 4.41578e-16)
(20.6737 -0.424599 -4.25713e-16)
(21.301 -0.469431 -1.57031e-15)
(21.9187 -0.437102 1.48729e-15)
(22.5091 -0.329621 -1.23861e-15)
(23.0543 -0.154206 -1.51897e-15)
(23.5425 0.0774809 -6.43771e-16)
(23.9676 0.353708 -9.53094e-18)
(24.3257 0.663557 8.41034e-17)
(24.614 0.995892 5.79084e-16)
(24.8313 1.33958 8.22074e-18)
(24.9781 1.6844 -1.50838e-17)
(25.0548 2.02154 4.45043e-15)
(25.0622 2.34259 -4.28703e-15)
(24.9936 2.64039 1.31264e-16)
(24.8496 2.90116 -8.28485e-15)
(24.5734 3.11662 1.59013e-14)
(24.2272 3.1714 0)
(23.4959 3.0638 -2.83778e-14)
(19.7986 14.0207 3.10007e-17)
(20.443 14.5485 0)
(21.2021 15.0812 0)
(22.0385 15.5807 5.6985e-16)
(22.9102 16.0077 -1.91768e-17)
(23.8591 16.3771 0)
(24.8565 16.6704 0)
(25.8817 16.8737 3.74067e-16)
(26.939 16.9835 -4.29304e-17)
(28.0133 16.9928 -5.02561e-17)
(29.0954 16.8957 -2.78321e-16)
(30.1813 16.6862 -1.56394e-16)
(31.2582 16.3594 2.56084e-16)
(32.3147 15.9101 -7.5713e-17)
(33.3372 15.3351 0)
(34.3083 14.6336 0)
(35.2092 13.8081 -1.8417e-15)
(36.02 12.8656 -3.58344e-16)
(36.7209 11.8172 3.57498e-16)
(37.2921 10.6806 -7.80506e-16)
(37.7168 9.47826 1.45404e-15)
(37.9842 8.23807 6.70238e-16)
(38.0898 6.99132 -6.39959e-16)
(38.0378 5.76944 -7.29526e-16)
(37.8394 4.59681 1.10393e-16)
(37.5102 3.48496 -5.64594e-16)
(37.0668 2.43782 -6.05261e-17)
(36.5224 1.45994 1.143e-17)
(35.8859 0.557868 -1.14289e-17)
(35.1655 -0.262516 2.61922e-17)
(34.3687 -0.997014 -4.08505e-17)
(33.5012 -1.64137 -3.56573e-16)
(32.5649 -2.19074 -3.07251e-17)
(31.5616 -2.63838 4.97385e-17)
(30.4769 -2.97618 0)
(29.3216 -3.17604 -4.76379e-15)
(27.993 -3.22655 -6.23647e-15)
(26.687 -2.89251 0)
(24.9727 -2.44547 0)
(19.2197 13.4718 0)
(18.6801 12.8923 4.8013e-16)
(18.1317 12.1939 -1.53141e-15)
(17.5869 11.3888 -6.97065e-16)
(17.1117 10.5232 -1.59266e-15)
(16.704 9.58457 0)
(16.3859 8.58915 0)
(16.1761 7.59586 -1.73158e-15)
(16.0763 6.64389 1.79494e-15)
(16.0779 5.73945 0)
(16.1681 4.89605 -9.53359e-16)
(16.3341 4.12563 -1.01159e-15)
(16.5667 3.42281 9.99049e-16)
(16.8582 2.78258 1.03171e-15)
(17.2021 2.2042 -2.00237e-15)
(17.5947 1.68436 0)
(18.0322 1.22262 -4.82756e-16)
(18.5099 0.820249 1.15112e-17)
(19.0233 0.479085 2.27552e-15)
(19.5671 0.201387 -4.42602e-16)
(20.1348 -0.00983281 4.30657e-16)
(20.719 -0.151724 -3.85189e-16)
(21.3116 -0.221308 5.60524e-16)
(21.9002 -0.216931 -2.99512e-15)
(22.4679 -0.139607 -1.18208e-15)
(22.9968 0.00516016 1.20439e-15)
(23.4749 0.20743 -7.89374e-17)
(23.8949 0.456414 0)
(24.2519 0.741593 -7.21558e-17)
(24.5423 1.05213 5.26865e-16)
(24.7642 1.37699 -1.05634e-15)
(24.917 1.70583 2.15091e-15)
(25.0009 2.02944 -8.57536e-15)
(25.0159 2.33895 8.48335e-15)
(24.9556 2.62632 -1.25902e-16)