/*--------------------------------*- C++ -*----------------------------------*\
| =========                 |                                                 |
| \\      /  F ield         | OpenFOAM: The Open Source CFD Toolbox           |
|  \\    /   O peration     | Version:  3.0.0                                 |
|   \\  /    A nd           | Web:      www.OpenFOAM.org                      |
|    \\/     M anipulation  |                                                 |
\*---------------------------------------------------------------------------*/
FoamFile
{
    version     2.0;
    format      ascii;
    class       volScalarField;
    location    "100";
    object      nuTilda;
}
// * * * * * * * * * * * * * * * * * * * * * * * * * * * * * * * * * * * * * //

dimensions      [0 2 -1 0 0 0 0];

internalField   nonuniform List<scalar> 
10720
(
0.0930923
0.0976032
0.102721
0.108286
0.114604
0.121695
0.129706
0.138459
0.147922
0.157731
0.167403
0.176375
0.183821
0.189445
0.193197
0.195287
0.195897
0.195307
0.193641
0.19109
0.187636
0.183364
0.178313
0.172703
0.166955
0.161342
0.155852
0.150344
0.144721
0.138969
0.133079
0.127013
0.120731
0.11418
0.10717
0.0995779
0.0902791
0.0799276
0.0567463
0.0887876
0.0841609
0.0791247
0.0730011
0.0657429
0.0569093
0.0462012
0.0369884
0.0346489
0.0362551
0.0435366
0.0496864
0.0546517
0.0591489
0.0634588
0.0677215
0.0719493
0.076103
0.0801166
0.0839717
0.0876748
0.0912477
0.0947198
0.0980818
0.101147
0.103698
0.105704
0.107218
0.108295
0.108975
0.109301
0.109375
0.10923
0.108826
0.108081
0.106981
0.105086
0.102943
0.0940238
0.10022
0.099816
0.0991256
0.0981749
0.0971543
0.0959984
0.0948018
0.093597
0.0931188
0.0937085
0.095132
0.0973308
0.100484
0.104574
0.109625
0.115382
0.12177
0.128548
0.135521
0.142353
0.148946
0.154862
0.159781
0.163218
0.164714
0.164359
0.162521
0.159554
0.155778
0.15146
0.146805
0.141963
0.137033
0.132113
0.127309
0.122716
0.118555
0.114568
0.110624
0.100636
0.100734
0.10097
0.100737
0.100242
0.0994161
0.0980643
0.095957
0.0930503
0.0895668
0.0854915
0.0812892
0.0771859
0.0731847
0.0694486
0.0660242
0.0629408
0.0602353
0.0579409
0.0560441
0.0545219
0.0533432
0.0525112
0.0519921
0.0517332
0.0517025
0.0518511
0.0521012
0.0524046
0.0528867
0.0543386
0.0570076
0.0603324
0.0636732
0.0666618
0.0693208
0.071554
0.075505
0.0791325
0.121644
0.121465
0.121073
0.120474
0.119784
0.11889
0.117794
0.116551
0.115114
0.113519
0.111803
0.110044
0.108526
0.107415
0.106574
0.105904
0.105425
0.10516
0.104715
0.104253
0.104503
0.105471
0.107186
0.110788
0.117267
0.124406
0.131154
0.136923
0.141561
0.144965
0.147203
0.148406
0.148775
0.148501
0.147788
0.146672
0.145621
0.142899
0.145483
0.121811
0.121771
0.121767
0.121511
0.121055
0.120388
0.119409
0.118115
0.116468
0.114459
0.112137
0.109493
0.106565
0.103415
0.100119
0.0967397
0.0933316
0.0899036
0.0865372
0.0832666
0.0801083
0.0770567
0.0740916
0.0711552
0.0682142
0.0652868
0.0624172
0.0596755
0.057076
0.0546644
0.0524227
0.0512565
0.051468
0.0526643
0.0544406
0.0566693
0.0592894
0.0621526
0.0673098
0.128825
0.128724
0.128528
0.128223
0.127855
0.127374
0.126776
0.126085
0.125262
0.124328
0.123271
0.122095
0.120897
0.119747
0.11863
0.117287
0.115379
0.113161
0.110698
0.108031
0.105238
0.102552
0.100128
0.0982506
0.0973763
0.0977466
0.0990578
0.104046
0.110757
0.118127
0.125586
0.132737
0.139284
0.145116
0.150266
0.154745
0.159039
0.161245
0.166796
0.1289
0.128895
0.12888
0.128746
0.12851
0.12815
0.127633
0.126926
0.126057
0.124915
0.123541
0.122029
0.120289
0.1183
0.116146
0.113823
0.111379
0.10883
0.106168
0.103442
0.100707
0.0979595
0.0951743
0.0922468
0.0891565
0.0859679
0.0826562
0.0792641
0.0758562
0.0724503
0.0690656
0.0657734
0.0626763
0.0599241
0.0574594
0.0565915
0.0571561
0.0580344
0.0609754
0.132439
0.13237
0.132244
0.13205
0.131806
0.131494
0.131106
0.13066
0.130129
0.129518
0.128833
0.12805
0.12717
0.126191
0.125088
0.123868
0.122503
0.120941
0.119134
0.117056
0.11466
0.111963
0.108998
0.105881
0.102817
0.100008
0.0974874
0.0958583
0.0955088
0.0967638
0.101658
0.108657
0.117079
0.126406
0.136255
0.146311
0.156744
0.166545
0.177242
0.132477
0.13248
0.132459
0.132373
0.132221
0.131986
0.131657
0.131215
0.130671
0.130026
0.129174
0.128184
0.12715
0.125945
0.124564
0.123062
0.121431
0.119703
0.117878
0.115907
0.113844
0.111721
0.109518
0.107141
0.104503
0.101684
0.0987181
0.0955622
0.0922491
0.0888379
0.0853318
0.0817544
0.0781418
0.0745273
0.0709162
0.0674443
0.0643972
0.061312
0.0602044
0.134506
0.134466
0.134381
0.134261
0.134102
0.133897
0.133646
0.133349
0.13301
0.132608
0.132146
0.131626
0.13103
0.130367
0.12962
0.12876
0.127784
0.126679
0.125404
0.123931
0.122212
0.120222
0.117924
0.115314
0.112461
0.109415
0.106253
0.103049
0.0999865
0.0972683
0.0956603
0.0955949
0.0993507
0.106074
0.115493
0.127491
0.141962
0.159177
0.17763
0.134529
0.134534
0.134512
0.134462
0.134349
0.1342
0.133962
0.133661
0.133281
0.13284
0.132346
0.131683
0.130925
0.130175
0.129308
0.128293
0.127202
0.126013
0.124764
0.123434
0.121963
0.120393
0.11875
0.116969
0.114962
0.112702
0.110256
0.107653
0.104819
0.101779
0.0985854
0.0952335
0.0917377
0.0881273
0.0844039
0.0805284
0.0765413
0.0721475
0.0655336
0.135822
0.135794
0.135731
0.135641
0.135533
0.135385
0.135206
0.134987
0.134732
0.134452
0.134124
0.133746
0.133316
0.132821
0.132272
0.131658
0.130938
0.130114
0.129188
0.128142
0.12693
0.12552
0.123886
0.122014
0.119913
0.11757
0.114957
0.11207
0.108916
0.105534
0.102117
0.0988669
0.0966958
0.0963471
0.100349
0.108662
0.121859
0.142411
0.168761
0.135844
0.135844
0.13583
0.135785
0.1357
0.13559
0.135441
0.135209
0.134937
0.134602
0.134239
0.133859
0.133323
0.132711
0.132155
0.131504
0.130727
0.129898
0.128997
0.12806
0.127066
0.125931
0.124696
0.123367
0.121888
0.120212
0.11829
0.116199
0.113956
0.111466
0.108749
0.105852
0.102752
0.0994519
0.0959677
0.0922514
0.0882069
0.0838714
0.0752201
0.136728
0.136703
0.136661
0.136586
0.136504
0.136397
0.136266
0.136118
0.135926
0.135706
0.135471
0.135204
0.134903
0.134548
0.134132
0.133682
0.133186
0.132597
0.131896
0.131099
0.130194
0.129148
0.127928
0.126527
0.12497
0.123242
0.121288
0.119073
0.116566
0.113727
0.110534
0.106996
0.103268
0.0997121
0.0973972
0.0990114
0.105808
0.122624
0.152938
0.136738
0.136739
0.136728
0.136688
0.136622
0.13652
0.136416
0.136276
0.13606
0.135811
0.135514
0.135218
0.134923
0.134475
0.133968
0.133543
0.133043
0.132426
0.131774
0.131064
0.130338
0.129568
0.128656
0.127628
0.126504
0.125268
0.123857
0.122209
0.120412
0.118482
0.116302
0.11389
0.111289
0.108457
0.105384
0.102052
0.098287
0.0943235
0.0855974
0.137373
0.137356
0.137326
0.137276
0.137204
0.13712
0.137012
0.136897
0.136768
0.136602
0.136407
0.136191
0.135968
0.135722
0.135412
0.135044
0.134647
0.134223
0.133718
0.133105
0.132403
0.131615
0.130709
0.129655
0.128459
0.127137
0.125663
0.123986
0.122071
0.119887
0.117378
0.114476
0.111125
0.107323
0.10317
0.0997149
0.0994082
0.107223
0.134589
0.137379
0.137387
0.137375
0.137355
0.137293
0.137216
0.137102
0.137002
0.136875
0.136674
0.136447
0.136187
0.135942
0.135713
0.135334
0.134899
0.134571
0.13418
0.133676
0.133146
0.132566
0.131984
0.131368
0.130594
0.129699
0.128734
0.127686
0.126482
0.125046
0.123485
0.121812
0.119891
0.117743
0.115404
0.112812
0.109939
0.106613
0.103115
0.0951103
0.137857
0.137844
0.137818
0.137784
0.137736
0.137667
0.137581
0.137475
0.137369
0.137258
0.137126
0.13695
0.136744
0.136559
0.13636
0.136089
0.135758
0.1354
0.135032
0.134591
0.134037
0.133402
0.132693
0.131892
0.13098
0.129938
0.128776
0.127479
0.125996
0.124294
0.122378
0.120259
0.117814
0.114806
0.110944
0.106344
0.101813
0.100526
0.118953
0.137871
0.137876
0.13787
0.137855
0.137813
0.137746
0.137655
0.137534
0.137439
0.137322
0.137138
0.136936
0.136705
0.1365
0.136328
0.135999
0.135617
0.135362
0.135052
0.134629
0.134187
0.133698
0.133216
0.132699
0.132016
0.131225
0.130381
0.129479
0.128436
0.127164
0.125788
0.124321
0.12261
0.120679
0.118553
0.116155
0.113306
0.110308
0.103308
0.138244
0.138228
0.138205
0.138169
0.138133
0.138085
0.138023
0.137939
0.137839
0.137738
0.137641
0.137546
0.137387
0.137179
0.137023
0.136863
0.136621
0.136314
0.13598
0.135651
0.135258
0.134753
0.134174
0.133532
0.132825
0.132025
0.131095
0.13005
0.128882
0.127538
0.126015
0.124401
0.122663
0.120623
0.117962
0.114251
0.10906
0.101886
0.109462
0.138253
0.138252
0.13825
0.138225
0.1382
0.138156
0.138085
0.137987
0.137864
0.137773
0.137672
0.137507
0.137326
0.137119
0.136949
0.136821
0.136532
0.136188
0.135989
0.135743
0.13538
0.135001
0.134574
0.134156
0.133707
0.133099
0.132389
0.131638
0.13085
0.129936
0.12879
0.127558
0.126257
0.124712
0.122947
0.120988
0.118608
0.116085
0.110139
0.138548
0.138538
0.138522
0.13849
0.138447
0.138402
0.138359
0.138308
0.13823
0.138142
0.138041
0.137952
0.137898
0.137755
0.137537
0.137402
0.137274
0.137057
0.136768
0.136451
0.136152
0.135794
0.135328
0.134799
0.13422
0.133585
0.132865
0.13202
0.131066
0.130001
0.128802
0.127514
0.126162
0.124676
0.122891
0.120384
0.116828
0.108441
0.106905
0.138544
0.13855
0.138543
0.138532
0.138479
0.138459
0.138419
0.138347
0.138247
0.138123
0.138041
0.137956
0.137809
0.137646
0.13746
0.137317
0.137228
0.136971
0.136654
0.1365
0.136302
0.135984
0.13565
0.135262
0.134888
0.134498
0.13395
0.133305
0.132625
0.131929
0.131116
0.130068
0.128951
0.127779
0.126358
0.124722
0.122768
0.120681
0.115726
0.138782
0.138784
0.138772
0.138754
0.13872
0.13867
0.138619
0.138586
0.138546
0.138476
0.138403
0.138297
0.138208
0.138192
0.138064
0.137834
0.137712
0.13761
0.137411
0.137139
0.136835
0.136559
0.13623
0.1358
0.135322
0.134795
0.134213
0.133557
0.132794
0.131948
0.131036
0.13003
0.128927
0.127723
0.126374
0.124594
0.12244
0.116158
0.109555
0.138787
0.138797
0.138797
0.138797
0.138753
0.138689
0.138665
0.138627
0.138556
0.138455
0.138335
0.138263
0.138194
0.138063
0.137917
0.137747
0.137627
0.137571
0.137339
0.137041
0.136923
0.136764
0.136479
0.136176
0.135813
0.135477
0.135135
0.134637
0.134045
0.13342
0.132796
0.132067
0.131095
0.130067
0.128991
0.127664
0.12602
0.124314
0.12025
0.13899
0.13898
0.138973
0.138957
0.138942
0.138911
0.138859
0.138803
0.138779
0.138748
0.138686
0.138627
0.138513
0.138418
0.138437
0.138325
0.138081
0.137968
0.137887
0.137706
0.137447
0.137158
0.136901
0.136598
0.136205
0.135773
0.135294
0.134773
0.13421
0.13357
0.132863
0.132088
0.13121
0.130208
0.129086
0.127674
0.126143
0.122412
0.114619
0.139003
0.139003
0.13901
0.138993
0.13899
0.138934
0.138859
0.138831
0.138796
0.138726
0.138627
0.138514
0.138452
0.138397
0.138282
0.13815
0.137993
0.137892
0.137866
0.137653
0.13737
0.137281
0.137151
0.136889
0.136608
0.136268
0.135964
0.135662
0.135206
0.134656
0.134074
0.133509
0.132846
0.131934
0.130971
0.129966
0.12862
0.12718
0.123884
0.139177
0.139162
0.139148
0.139126
0.139107
0.139097
0.139075
0.139022
0.138961
0.138942
0.138916
0.138861
0.138817
0.138694
0.138589
0.138639
0.138548
0.138292
0.138184
0.138126
0.13796
0.137716
0.137446
0.137212
0.136944
0.1366
0.136228
0.135825
0.13539
0.134918
0.134376
0.133762
0.133072
0.132263
0.131321
0.130149
0.128797
0.126721
0.119906
0.139171
0.139174
0.139172
0.139163
0.139139
0.139136
0.139078
0.138997
0.138966
0.138934
0.138869
0.138776
0.138669
0.138616
0.138575
0.138474
0.138355
0.138207
0.138122
0.138122
0.137926
0.137653
0.137587
0.137478
0.137234
0.136975
0.136652
0.136374
0.136107
0.135686
0.135169
0.134621
0.134102
0.133491
0.132624
0.131712
0.130681
0.129494
0.126791
0.139315
0.139321
0.139308
0.139287
0.139256
0.139234
0.139228
0.139215
0.139162
0.139095
0.139078
0.139054
0.139006
0.138978
0.138848
0.138733
0.138816
0.138753
0.138487
0.138389
0.138358
0.138213
0.137998
0.137772
0.137579
0.137361
0.137076
0.136766
0.136426
0.136051
0.135633
0.135147
0.134588
0.133941
0.133168
0.132208
0.130952
0.129637
0.124388
0.139312
0.139319
0.139315
0.139319
0.139285
0.139258
0.139255
0.139197
0.139111
0.139079
0.139053
0.138994
0.138906
0.138806
0.138762
0.138732
0.138644
0.138536
0.138396
0.138324
0.138349
0.138167
0.137901
0.137852
0.137757
0.137532
0.137293
0.136983
0.136725
0.136486
0.136095
0.135605
0.135083
0.134601
0.134024
0.133196
0.132263
0.131345
0.129154
0.139436
0.139438
0.139438
0.139427
0.139408
0.139369
0.139341
0.139338
0.139332
0.139279
0.139207
0.139189
0.139167
0.13913
0.139123
0.138991
0.13887
0.138988
0.138963
0.138698
0.138619
0.138626
0.138519
0.138352
0.138175
0.13802
0.137846
0.137607
0.137336
0.137037
0.136695
0.136306
0.135851
0.135319
0.134686
0.133913
0.132803
0.131769
0.127864
0.139446
0.139446
0.139451
0.139441
0.139425
0.139387
0.139359
0.139354
0.139297
0.139207
0.139175
0.139158
0.139105
0.139023
0.138929
0.138892
0.138872
0.138797
0.1387
0.138566
0.138506
0.138552
0.138382
0.13812
0.138082
0.137999
0.137792
0.137571
0.137269
0.137026
0.136812
0.136445
0.135977
0.135476
0.13502
0.134464
0.133621
0.132789
0.131058
0.139558
0.139546
0.139541
0.139533
0.139528
0.139511
0.139464
0.13943
0.139428
0.139427
0.139377
0.139303
0.139284
0.139265
0.139246
0.139266
0.139143
0.139019
0.139167
0.13918
0.138939
0.138887
0.138924
0.138847
0.138724
0.138586
0.13846
0.138318
0.138112
0.137873
0.137603
0.137283
0.136911
0.136474
0.135945
0.135315
0.134385
0.133473
0.130518
0.13956
0.139563
0.139566
0.139561
0.139535
0.139512
0.139473
0.139443
0.139438
0.139381
0.139292
0.139262
0.139251
0.139205
0.139128
0.13904
0.13901
0.138999
0.138936
0.138851
0.138721
0.13867
0.138735
0.138574
0.138315
0.138285
0.138209
0.13802
0.137815
0.137515
0.137283
0.137091
0.136745
0.136292
0.135809
0.13537
0.134782
0.134028
0.132573
0.139661
0.139655
0.139641
0.139627
0.139612
0.139611
0.139598
0.139545
0.139503
0.139501
0.139505
0.139461
0.139391
0.139373
0.139362
0.139363
0.139411
0.139304
0.139183
0.139349
0.139387
0.139174
0.139141
0.139192
0.139137
0.139044
0.138939
0.138836
0.13872
0.138545
0.138333
0.13809
0.137792
0.137435
0.136999
0.136477
0.135715
0.134907
0.132593
0.13966
0.139663
0.139661
0.139661
0.139644
0.139614
0.139585
0.139544
0.139515
0.139509
0.139456
0.139367
0.13934
0.139336
0.139296
0.139224
0.139143
0.139119
0.139117
0.139066
0.138991
0.138864
0.138818
0.138899
0.138743
0.138488
0.138462
0.138389
0.138217
0.138026
0.137725
0.137503
0.137328
0.136999
0.136555
0.136092
0.135628
0.135084
0.133849
0.139747
0.139748
0.139737
0.139719
0.139701
0.139678
0.139678
0.139669
0.139613
0.139565
0.139562
0.139571
0.139536
0.139475
0.139466
0.139467
0.139484
0.139548
0.139453
0.139333
0.139507
0.139555
0.13937
0.139347
0.139405
0.139362
0.139291
0.139214
0.139132
0.139037
0.138892
0.138707
0.138489
0.138213
0.137864
0.137438
0.13682
0.136129
0.134265
0.139748
0.139746
0.139746
0.139738
0.139729
0.139712
0.13968
0.139646
0.139605
0.139576
0.139573
0.139523
0.139436
0.139411
0.139413
0.13938
0.139315
0.13924
0.13922
0.139226
0.139188
0.139123
0.138994
0.138951
0.139043
0.138892
0.138641
0.138615
0.138542
0.138388
0.138207
0.137904
0.137688
0.137529
0.137208
0.136775
0.136306
0.135881
0.134922
0.139824
0.139821
0.13982
0.139804
0.139785
0.139762
0.139733
0.139733
0.139728
0.139672
0.139619
0.139618
0.139633
0.139608
0.139558
0.139556
0.139568
0.139596
0.139666
0.139577
0.13947
0.139634
0.139687
0.139529
0.13951
0.139567
0.139533
0.139476
0.139421
0.139357
0.139278
0.139159
0.139001
0.138806
0.138545
0.138212
0.137722
0.137156
0.135642
0.139825
0.139828
0.13983
0.139823
0.1398
0.139786
0.13977
0.139738
0.1397
0.139658
0.139631
0.13963
0.139584
0.1395
0.139477
0.139484
0.139458
0.139401
0.139332
0.139316
0.139327
0.139301
0.139243
0.139109
0.139067
0.139167
0.139021
0.138775
0.138744
0.13867
0.138533
0.13836
0.138054
0.137845
0.137695
0.13738
0.136934
0.136527
0.13577
0.139896
0.139889
0.139883
0.139878
0.13986
0.139839
0.139813
0.139781
0.139779
0.139778
0.139723
0.139668
0.13967
0.139695
0.139683
0.139641
0.139639
0.139659
0.139696
0.13976
0.139679
0.139588
0.139735
0.139789
0.139656
0.13964
0.139692
0.139664
0.139618
0.139579
0.139527
0.139461
0.139364
0.139228
0.139049
0.138809
0.138434
0.137996
0.13678
0.139902
0.139908
0.13991
0.139898
0.139879
0.139852
0.139835
0.13982
0.139787
0.139746
0.139705
0.13968
0.139682
0.13964
0.13956
0.13954
0.139551
0.139532
0.139483
0.139419
0.139405
0.139421
0.139405
0.13935
0.139209
0.139168
0.139272
0.139131
0.13889
0.138852
0.138777
0.138657
0.138489
0.138181
0.137979
0.137832
0.137496
0.137122
0.136464
0.139966
0.139958
0.139944
0.139931
0.139925
0.139908
0.139884
0.139856
0.139822
0.139819
0.139823
0.13977
0.139713
0.139721
0.139756
0.139756
0.139718
0.13971
0.139738
0.139778
0.139833
0.139761
0.139689
0.139815
0.139866
0.13976
0.139745
0.13979
0.139768
0.139729
0.139702
0.13966
0.139603
0.139523
0.139402
0.13924
0.138973
0.138655
0.137704
0.139974
0.139976
0.13997
0.139965
0.139948
0.139925
0.139897
0.139877
0.139862
0.139831
0.139789
0.139748
0.139726
0.13973
0.139693
0.139618
0.1396
0.139614
0.139603
0.139562
0.139501
0.139485
0.139503
0.139496
0.139441
0.139293
0.139253
0.139359
0.139222
0.138988
0.138941
0.138865
0.13876
0.138595
0.13829
0.138097
0.137926
0.137672
0.137083
0.14003
0.140021
0.140009
0.139988
0.139972
0.139965
0.139949
0.139924
0.139894
0.139859
0.139855
0.139863
0.139814
0.139757
0.139769
0.139812
0.139824
0.139787
0.13977
0.139803
0.139849
0.139889
0.139829
0.139777
0.139879
0.139926
0.139844
0.139831
0.139869
0.139852
0.139821
0.1398
0.139766
0.139717
0.139645
0.139541
0.139359
0.139148
0.138433
0.140032
0.140029
0.140025
0.140019
0.140009
0.13999
0.139965
0.139935
0.139913
0.139899
0.139869
0.139828
0.139788
0.139769
0.139776
0.139742
0.139673
0.139658
0.139674
0.139669
0.139635
0.139575
0.139555
0.139574
0.139573
0.139517
0.139364
0.139325
0.13943
0.139298
0.139072
0.139014
0.138938
0.138848
0.138679
0.138389
0.138192
0.138101
0.137641
0.140079
0.140076
0.140065
0.140048
0.140027
0.140007
0.139999
0.139986
0.13996
0.139928
0.139893
0.139889
0.139903
0.139858
0.139801
0.139814
0.139862
0.139883
0.139847
0.139819
0.139858
0.13991
0.139935
0.139886
0.139852
0.139931
0.139972
0.139913
0.139903
0.139933
0.139922
0.139897
0.139881
0.139853
0.139809
0.139748
0.139629
0.139498
0.138985
0.140082
0.14009
0.140095
0.14007
0.140058
0.140047
0.140026
0.139999
0.139968
0.139945
0.139932
0.139905
0.139864
0.139826
0.13981
0.139819
0.13979
0.139725
0.139712
0.13973
0.139729
0.1397
0.13964
0.139614
0.139632
0.139638
0.139581
0.139422
0.139384
0.139487
0.139362
0.139144
0.139075
0.139001
0.13892
0.138753
0.138483
0.138386
0.138086
0.140127
0.140118
0.140113
0.1401
0.140083
0.14006
0.140037
0.140029
0.14002
0.139993
0.13996
0.139925
0.139921
0.139941
0.139903
0.139844
0.139856
0.139906
0.139935
0.139899
0.13986
0.139906
0.139962
0.139973
0.139937
0.139917
0.139976
0.140009
0.139971
0.139962
0.139987
0.13998
0.139961
0.139949
0.139925
0.139888
0.139814
0.13974
0.139386
0.140142
0.140152
0.140149
0.140135
0.14011
0.140093
0.14008
0.140057
0.140028
0.139996
0.139974
0.139963
0.139939
0.139898
0.139861
0.139849
0.139861
0.139834
0.139774
0.139762
0.13978
0.139783
0.139757
0.139695
0.139663
0.13968
0.139692
0.139635
0.139471
0.139434
0.139533
0.139416
0.139207
0.139127
0.139059
0.13899
0.138829
0.138668
0.138412
0.140184
0.140166
0.140151
0.140143
0.140131
0.140114
0.14009
0.140065
0.140057
0.140052
0.140027
0.139992
0.139955
0.139951
0.139976
0.139945
0.139885
0.139891
0.139943
0.139979
0.139942
0.139898
0.139949
0.140006
0.140007
0.139982
0.139973
0.140015
0.140042
0.14002
0.140014
0.140033
0.140031
0.140018
0.140007
0.139989
0.139942
0.139904
0.139667
0.140193
0.140195
0.140185
0.14018
0.140168
0.140144
0.140123
0.140108
0.140084
0.140054
0.140022
0.140001
0.139991
0.13997
0.139931
0.139895
0.139886
0.1399
0.139877
0.139819
0.139806
0.139824
0.139829
0.139805
0.139741
0.139704
0.139718
0.139736
0.139679
0.139513
0.139476
0.139571
0.139463
0.139263
0.139179
0.139129
0.13907
0.138969
0.13871
0.140226
0.140218
0.140198
0.140179
0.140171
0.14016
0.140144
0.14012
0.140093
0.140084
0.140082
0.140059
0.140022
0.139983
0.139978
0.140008
0.139985
0.139922
0.139922
0.139975
0.140016
0.139978
0.139934
0.139987
0.140042
0.140037
0.140021
0.140023
0.140051
0.140071
0.140062
0.14006
0.140073
0.140075
0.140066
0.14006
0.140033
0.140018
0.13986
0.14023
0.140235
0.140233
0.140212
0.140207
0.140196
0.140169
0.140147
0.140131
0.140108
0.140078
0.140046
0.140026
0.140019
0.140001
0.139963
0.139927
0.139919
0.139937
0.139917
0.139861
0.139845
0.139862
0.139868
0.139845
0.139781
0.139738
0.139748
0.139773
0.139718
0.13955
0.139513
0.139604
0.139505
0.139318
0.139247
0.139219
0.139197
0.138998
0.140259
0.140252
0.140245
0.140225
0.140206
0.140197
0.140188
0.140174
0.140151
0.140121
0.14011
0.140111
0.140089
0.140051
0.140011
0.140003
0.140035
0.140019
0.139956
0.139948
0.140001
0.140045
0.140008
0.139969
0.14002
0.14007
0.140063
0.140054
0.140064
0.140084
0.140099
0.140099
0.1401
0.140111
0.140114
0.140112
0.140098
0.140098
0.139993
0.140271
0.14028
0.140279
0.14026
0.140243
0.140233
0.140218
0.14019
0.140167
0.140152
0.14013
0.1401
0.14007
0.14005
0.140045
0.14003
0.139993
0.139957
0.139951
0.13997
0.139954
0.139898
0.139878
0.139893
0.1399
0.139877
0.139815
0.139766
0.139773
0.139805
0.139751
0.139583
0.139545
0.139632
0.139543
0.139379
0.139326
0.139343
0.139225
0.140299
0.140284
0.140275
0.140269
0.140251
0.140232
0.140224
0.140217
0.140204
0.140181
0.140148
0.140135
0.140137
0.140119
0.14008
0.140037
0.140027
0.140059
0.140049
0.139986
0.139971
0.140026
0.140069
0.140035
0.140004
0.140049
0.140092
0.140086
0.140083
0.140097
0.140114
0.140125
0.140131
0.140136
0.140144
0.140152
0.140146
0.140154
0.140085
0.140311
0.140318
0.140314
0.140301
0.140286
0.140269
0.140255
0.140235
0.140207
0.140185
0.14017
0.140151
0.140122
0.140092
0.140073
0.14007
0.140059
0.140023
0.139987
0.13998
0.14
0.139987
0.139932
0.139906
0.13992
0.139926
0.139904
0.139846
0.139791
0.139793
0.139831
0.139779
0.139614
0.139573
0.139656
0.139586
0.139441
0.139431
0.139377
0.140336
0.140323
0.140307
0.140299
0.140295
0.140279
0.14026
0.140251
0.140244
0.140234
0.140211
0.140176
0.140159
0.140162
0.140146
0.140107
0.140062
0.140049
0.140078
0.140074
0.140011
0.139993
0.140049
0.140089
0.14006
0.140037
0.140076
0.140112
0.140109
0.14011
0.140126
0.14014
0.14015
0.140159
0.140168
0.140178
0.14018
0.140195
0.140149
0.140343
0.140352
0.140346
0.140331
0.140325
0.140309
0.140289
0.140272
0.140251
0.140222
0.140201
0.140189
0.140172
0.140144
0.140114
0.140095
0.140094
0.140085
0.140051
0.140015
0.140006
0.140025
0.140017
0.13996
0.139929
0.139943
0.139947
0.139926
0.139873
0.139812
0.13981
0.139852
0.139802
0.139641
0.139602
0.139685
0.139627
0.139526
0.139462
0.140365
0.140357
0.140344
0.140331
0.140326
0.140323
0.140309
0.140289
0.140278
0.14027
0.140261
0.140239
0.140202
0.140182
0.140184
0.140171
0.140131
0.140086
0.140069
0.140094
0.140095
0.140034
0.140015
0.140071
0.140105
0.140083
0.140069
0.140101
0.14013
0.140131
0.140134
0.14015
0.140165
0.140175
0.140185
0.140198
0.140204
0.140224
0.140194
0.140373
0.140381
0.140376
0.140359
0.140355
0.140347
0.140325
0.140303
0.140287
0.140266
0.140237
0.140216
0.140207
0.140192
0.140166
0.140137
0.140117
0.140117
0.140111
0.140078
0.140041
0.14003
0.140047
0.140043
0.139985
0.139949
0.139962
0.139964
0.139944
0.139896
0.13983
0.139824
0.139869
0.13982
0.139667
0.139639
0.139715
0.139686
0.139547
0.140391
0.140382
0.140376
0.140368
0.140358
0.140354
0.140353
0.140339
0.140317
0.140302
0.140294
0.140286
0.140265
0.140228
0.140205
0.140205
0.140193
0.140154
0.140107
0.140088
0.140108
0.14011
0.140054
0.140036
0.140089
0.140118
0.140101
0.140097
0.140123
0.140146
0.140151
0.140157
0.140172
0.140187
0.140198
0.140211
0.140221
0.140244
0.140225
0.1404
0.140406
0.140403
0.140387
0.140378
0.140372
0.140361
0.140335
0.140314
0.1403
0.140281
0.140253
0.140232
0.140225
0.140213
0.140188
0.140158
0.140138
0.140138
0.140134
0.140103
0.140066
0.140051
0.140065
0.140065
0.140008
0.139967
0.13998
0.139979
0.13996
0.139916
0.139846
0.139835
0.139881
0.13983
0.139696
0.139677
0.13976
0.139681
0.140417
0.140405
0.140398
0.140399
0.140393
0.140384
0.14038
0.140381
0.140367
0.140343
0.140326
0.140317
0.140309
0.140289
0.140252
0.140227
0.140225
0.140214
0.140174
0.140128
0.140106
0.140121
0.140121
0.140073
0.140058
0.140106
0.140129
0.140118
0.140121
0.140143
0.140162
0.14017
0.140178
0.140193
0.140208
0.140221
0.140232
0.140258
0.140246
0.140421
0.14043
0.140425
0.140411
0.140406
0.140394
0.140382
0.140369
0.140345
0.140325
0.140314
0.140297
0.14027
0.140249
0.140243
0.140233
0.14021
0.14018
0.140158
0.140158
0.140155
0.140126
0.140089
0.140069
0.14008
0.140084
0.140028
0.139983
0.139994
0.139992
0.139973
0.139934
0.139858
0.139844
0.13989
0.139836
0.139719
0.139732
0.139743
0.140438
0.140429
0.140422
0.140424
0.140422
0.140417
0.140408
0.140403
0.140403
0.140392
0.140368
0.14035
0.140341
0.140332
0.140312
0.140277
0.140249
0.140245
0.140234
0.140194
0.140147
0.140124
0.140134
0.140132
0.140092
0.14008
0.140121
0.140139
0.140133
0.140141
0.14016
0.140176
0.140186
0.140198
0.140211
0.140228
0.14024
0.140265
0.14026
0.14044
0.140448
0.140444
0.14043
0.140431
0.140424
0.140402
0.140387
0.140375
0.140355
0.140338
0.14033
0.140315
0.140288
0.140267
0.14026
0.140252
0.140231
0.140201
0.140178
0.140175
0.140175
0.140147
0.14011
0.140085
0.140092
0.140101
0.140048
0.139996
0.140005
0.140003
0.139983
0.139948
0.139869
0.139851
0.139895
0.139833
0.13976
0.139732
0.140451
0.140446
0.140447
0.140449
0.140445
0.140444
0.140442
0.140431
0.140423
0.140423
0.140414
0.140393
0.140375
0.140366
0.140356
0.140335
0.1403
0.140271
0.140265
0.140254
0.140214
0.140165
0.140143
0.140149
0.140144
0.140111
0.140101
0.140135
0.14015
0.140147
0.140158
0.140176
0.14019
0.140202
0.140215
0.14023
0.140244
0.140271
0.140269
0.140455
0.140456
0.140454
0.140445
0.140439
0.140438
0.140429
0.140408
0.140394
0.140384
0.140367
0.140352
0.140346
0.140333
0.140306
0.140284
0.140276
0.140269
0.140251
0.140222
0.140196
0.140191
0.140191
0.140167
0.140129
0.140099
0.140103
0.140115
0.140066
0.140008
0.140014
0.140012
0.139992
0.13996
0.139877
0.139859
0.139893
0.139851
0.139757
0.14046
0.140455
0.140456
0.140459
0.140459
0.140458
0.14046
0.140458
0.140449
0.140444
0.140444
0.140437
0.140416
0.140399
0.14039
0.140379
0.140358
0.140323
0.140291
0.140283
0.140274
0.140233
0.140182
0.140162
0.140165
0.140156
0.140128
0.140121
0.140148
0.140162
0.140161
0.140173
0.14019
0.140203
0.140216
0.140232
0.140245
0.140272
0.140273
0.14046
0.140457
0.140455
0.140453
0.140446
0.14044
0.140437
0.14043
0.140416
0.140405
0.140395
0.14038
0.140366
0.140361
0.140351
0.140324
0.140301
0.140292
0.140285
0.14027
0.140243
0.140214
0.140206
0.140206
0.140184
0.140147
0.140113
0.140111
0.140127
0.140083
0.140019
0.140022
0.14002
0.139998
0.13997
0.139887
0.139863
0.139902
0.139834
0.140463
0.140463
0.14046
0.140462
0.140464
0.140464
0.140465
0.140468
0.140467
0.140461
0.140458
0.140461
0.140456
0.140437
0.140419
0.14041
0.140401
0.14038
0.140345
0.140312
0.140302
0.140295
0.140252
0.1402
0.14018
0.14018
0.140167
0.140144
0.140139
0.14016
0.140172
0.140175
0.140186
0.140203
0.140217
0.140231
0.140245
0.140271
0.140273
0.14046
0.140461
0.140458
0.140453
0.140451
0.140445
0.140437
0.140434
0.14043
0.140422
0.140415
0.140408
0.140394
0.140378
0.140374
0.140367
0.140342
0.140318
0.140308
0.140301
0.140287
0.140262
0.140232
0.14022
0.14022
0.1402
0.140164
0.140128
0.14012
0.140136
0.140098
0.140029
0.140028
0.140027
0.140003
0.139975
0.139894
0.139875
0.139887
0.140463
0.140465
0.140467
0.140466
0.140467
0.140469
0.14047
0.140471
0.140474
0.140474
0.140469
0.140467
0.140471
0.140469
0.140454
0.140438
0.14043
0.140422
0.140403
0.14037
0.140335
0.140323
0.140314
0.140271
0.140219
0.140198
0.140193
0.140176
0.140158
0.140155
0.14017
0.140182
0.140188
0.140199
0.140215
0.14023
0.140242
0.140268
0.140272
0.140463
0.140465
0.140462
0.140455
0.140451
0.140449
0.140443
0.140435
0.140432
0.140429
0.140424
0.140421
0.140416
0.140404
0.140391
0.140385
0.14038
0.140359
0.140335
0.140324
0.140317
0.140303
0.14028
0.14025
0.140234
0.140233
0.140214
0.140179
0.140144
0.140129
0.140144
0.140111
0.14004
0.140033
0.140034
0.140005
0.139974
0.139907
0.139871
0.140466
0.140464
0.140467
0.140471
0.140472
0.140473
0.140475
0.140477
0.140478
0.14048
0.14048
0.140475
0.140474
0.140478
0.140478
0.140466
0.140454
0.14045
0.140445
0.140428
0.140396
0.140362
0.140347
0.140333
0.140289
0.140241
0.140218
0.140205
0.140184
0.140169
0.140169
0.140179
0.14019
0.140199
0.14021
0.140227
0.14024
0.140264
0.140266
0.140466
0.140464
0.140462
0.140458
0.140452
0.140447
0.140445
0.14044
0.140434
0.14043
0.140428
0.140425
0.140423
0.140421
0.140411
0.1404
0.140396
0.140393
0.140376
0.140353
0.140341
0.140333
0.140319
0.140298
0.140268
0.14025
0.140246
0.140227
0.140194
0.140159
0.140139
0.14015
0.140124
0.140052
0.140039
0.140041
0.140007
0.139973
0.139908
0.140467
0.140467
0.140467
0.140471
0.140475
0.140477
0.140478
0.140481
0.140482
0.140484
0.140486
0.140486
0.140482
0.14048
0.140484
0.140485
0.140476
0.140466
0.140464
0.140462
0.140452
0.140424
0.140389
0.140373
0.140355
0.140311
0.140262
0.140236
0.140216
0.140192
0.14018
0.14018
0.140187
0.140197
0.140208
0.140222
0.140235
0.140259
0.140256
0.140464
0.140463
0.14046
0.140457
0.140453
0.140447
0.140442
0.14044
0.140437
0.140433
0.14043
0.140428
0.140425
0.140424
0.140422
0.140415
0.140406
0.140403
0.140403
0.140389
0.140369
0.140357
0.140351
0.140338
0.140316
0.140288
0.140269
0.14026
0.140241
0.140209
0.140176
0.140152
0.140157
0.140136
0.140064
0.140045
0.140048
0.14001
0.139965
0.140465
0.140467
0.140469
0.140471
0.140474
0.140479
0.140482
0.140483
0.140486
0.140488
0.140489
0.140492
0.140492
0.140489
0.140487
0.14049
0.140492
0.140484
0.140476
0.140474
0.140474
0.140468
0.140445
0.140417
0.140398
0.140376
0.140334
0.140286
0.140253
0.140227
0.140202
0.140188
0.140189
0.140195
0.140204
0.140217
0.140228
0.140253
0.140246
0.140463
0.140463
0.14046
0.140455
0.140451
0.140448
0.140442
0.140438
0.140437
0.140435
0.140431
0.140429
0.140427
0.140425
0.140424
0.140422
0.140416
0.140409
0.140407
0.140407
0.140397