/*--------------------------------*- C++ -*----------------------------------*\
| =========                 |                                                 |
| \\      /  F ield         | OpenFOAM: The Open Source CFD Toolbox           |
|  \\    /   O peration     | Version:  3.0.0                                 |
|   \\  /    A nd           | Web:      www.OpenFOAM.org                      |
|    \\/     M anipulation  |                                                 |
\*---------------------------------------------------------------------------*/
FoamFile
{
    version     2.0;
    format      ascii;
    class       volScalarField;
    location    "100";
    object      p;
}
// * * * * * * * * * * * * * * * * * * * * * * * * * * * * * * * * * * * * * //

dimensions      [0 2 -2 0 0 0 0];

internalField   nonuniform List<scalar> 
10720
(
-0.307421
-77.0834
-166.525
-253.072
-331.843
-411.662
-481.356
-538.845
-588.221
-625.922
-653.902
-673.562
-685.962
-692.223
-692.719
-686.92
-675.897
-658.444
-635.773
-606.574
-571.858
-530.802
-485.564
-437.055
-388.732
-345.583
-306.674
-268.529
-230.813
-193.675
-156.899
-120.33
-83.8747
-47.3242
-10.4654
27.7274
67.2869
113.642
156.963
77.5187
148.651
226.041
299.527
363.817
414.947
448.892
463.817
465.859
458.011
440.85
419.415
396.944
374.743
353.606
333.484
314.511
296.328
278.73
261.244
243.821
226.136
208.277
190.637
175.086
162.688
152.417
143.907
137.168
132.257
129.081
127.525
127.501
129.001
132.017
136.926
144.204
157.446
180.251
122.783
64.1888
-0.669277
-68.8176
-138.224
-208.725
-276.565
-339.674
-397.491
-448.259
-491.702
-527.867
-556.778
-578.485
-592.922
-600.009
-600.424
-593.786
-580.697
-560.584
-534.005
-500.67
-462.223
-419.818
-376.528
-336.629
-299.729
-263.119
-226.578
-190.352
-154.313
-118.34
-82.3646
-46.195
-9.63107
28.3367
67.7253
114.026
156.575
175.881
226.899
278.299
328.666
374.06
411.895
438.971
453.318
456.529
450.156
436.374
418.435
398.604
378.141
357.895
338.184
319.207
300.861
283.004
265.343
247.788
230.128
212.446
195.142
179.675
166.959
156.293
147.372
140.226
134.909
131.349
129.447
129.116
130.343
133.13
137.859
144.999
158.164
179.967
142.126
89.6597
31.214
-32.722
-98.469
-165.299
-231.581
-294.59
-352.779
-405.177
-450.565
-488.619
-519.148
-542.274
-558.239
-567.36
-569.848
-565.559
-554.745
-537.229
-513.32
-483.069
-447.715
-408.538
-368.085
-329.863
-294.025
-258.472
-222.858
-187.402
-152.007
-116.56
-81.0042
-45.1673
-8.86355
28.8984
68.123
114.27
156.466
189.861
236.727
283.814
329.066
369.029
402.058
425.931
439.568
443.884
439.859
429.15
413.962
396.167
377.117
357.762
338.612
319.942
301.786
284.062
266.566
249.185
231.78
214.412
197.45
182.052
169.113
158.24
149.14
141.822
136.332
132.607
130.552
130.079
131.178
133.859
138.504
145.584
158.638
179.532
170.746
126.496
76.4272
21.7739
-35.2017
-94.3723
-154.005
-212.252
-267.776
-319.444
-366.121
-407.139
-442.045
-470.635
-492.784
-508.479
-517.422
-519.451
-514.581
-502.75
-484.161
-459.039
-428.401
-393.581
-356.773
-320.969
-286.779
-252.667
-218.251
-183.766
-149.179
-114.395
-79.3727
-43.962
-7.99361
29.4967
68.4974
114.379
156.29
210.652
249.321
288.429
326.674
360.853
389.699
411.224
424.405
429.677
427.636
419.561
407.095
391.732
374.685
356.854
338.801
320.861
303.183
285.766
268.503
251.315
234.13
217.019
200.329
185.013
171.916
160.847
151.535
143.986
138.251
134.281
131.988
131.298
132.203
134.723
139.241
146.218
159.088
179.091
181.324
141.939
97.1359
47.89
-3.61349
-57.7386
-113.016
-167.772
-220.974
-271.448
-318.044
-359.969
-396.574
-427.37
-452.032
-470.29
-481.866
-486.667
-484.645
-475.837
-460.391
-438.609
-411.337
-379.834
-345.981
-312.271
-279.527
-246.685
-213.368
-179.811
-146.03
-111.936
-77.4928
-42.5626
-6.98986
30.1659
68.8758
114.399
155.877
216.937
251.255
286.033
320.019
350.384
376.282
396.065
408.879
414.895
414.496
408.688
398.701
385.681
370.653
354.446
337.623
320.574
303.527
286.563
269.66
252.783
235.91
219.127
202.758
187.598
174.42
163.193
153.703
145.957
140.012
135.832
133.341
132.467
133.209
135.59
139.992
146.862
159.524
178.619
188.623
153.67
113.675
69.7132
23.6935
-25.0603
-75.1861
-125.345
-174.764
-222.368
-267.164
-308.383
-345.294
-377.282
-403.888
-424.713
-439.475
-447.905
-449.774
-445.001
-433.634
-415.946
-392.635
-364.855
-334.242
-302.899
-271.808
-240.345
-208.205
-175.629
-142.681
-109.299
-75.4588
-41.0373
-5.8946
30.8801
69.2404
114.302
155.229
220.223
250.539
281.457
311.868
339.151
362.685
381.099
393.571
400.101
401.006
397.066
389.227
378.377
365.349
350.867
335.455
319.509
303.299
286.969
270.566
254.105
237.612
221.191
205.154
190.176
176.962
165.605
155.958
148.03
141.88
137.487
134.787
133.717
134.279
136.504
140.773
147.518
159.928
178.102
191.447
159.884
123.651
83.7945
42.1395
-2.24357
-48.1243
-94.3346
-140.35
-185.197
-228.015
-268.102
-304.696
-337.13
-364.853
-387.366
-404.21
-415.035
-419.524
-417.574
-409.221
-394.719
-374.663
-350.074
-322.359
-293.269
-263.829
-233.756
-202.821
-171.253
-139.163
-106.514
-73.2978
-39.4103
-4.72757
31.6278
69.5807
114.075
154.358
220.006
247.31
275.284
302.895
327.74
349.37
366.658
378.782
385.649
387.568
385.143
379.123
370.208
359.057
346.281
332.336
317.598
302.352
286.783
270.992
255.043
239.002
222.995
207.322
192.572
179.386
167.947
158.175
150.087
143.747
139.152
136.249
134.987
135.369
137.438
141.568
148.173
160.292
177.543
192.142
163.458
130.454
94.1692
56.3342
15.887
-26.0479
-68.4496
-110.967
-152.768
-193.101
-231.374
-266.879
-298.949
-326.99
-350.446
-368.783
-381.62
-388.586
-389.455
-384.173
-372.909
-356.135
-334.73
-309.908
-283.141
-255.456
-226.844
-197.171
-166.661
-135.467
-103.583
-71.0208
-37.6926
-3.49682
32.4053
69.8974
113.722
153.268
218.124
242.903
268.417
293.709
316.537
336.579
352.899
364.667
371.737
374.423
373.207
368.701
361.465
352.025
340.877
328.401
314.934
300.753
286.058
270.987
255.642
240.127
224.586
209.31
194.827
181.726
170.249
160.381
152.155
145.641
140.852
137.751
136.295
136.495
138.401
142.381
148.83
160.615
176.948
191.252
164.974
134.69
101.419
66.8282
29.7734
-8.71381
-47.7147
-87.0302
-125.926
-163.77
-200.077
-234.201
-265.512
-293.421
-317.338
-336.691
-351.017
-359.899
-363.014
-360.254
-351.738
-337.841
-319.311
-297.182
-272.676
-246.768
-219.645
-191.265
-161.853
-131.59
-100.507
-68.631
-35.8923
-2.20923
33.2094
70.1959
113.26
151.975
215.086
237.774
261.241
284.587
305.71
324.413
339.881
351.285
358.459
361.713
361.454
358.194
352.392
344.472
334.833
323.778
311.594
298.532
284.79
270.524
255.864
240.942
225.918
211.078
196.906
183.944
172.477
162.55
154.212
147.543
142.573
139.28
137.633
137.65
139.388
143.208
149.483
160.896
176.316
189.408
165.196
137.264
106.611
74.8343
40.765
5.35445
-30.564
-66.893
-102.989
-138.332
-172.528
-204.998
-235.19
-262.537
-286.443
-306.33
-321.692
-332.095
-337.15
-336.664
-330.684
-319.481
-303.673
-284.128
-261.856
-237.756
-212.155
-185.103
-156.823
-127.527
-97.2803
-66.125
-34.0081
-0.867157
34.0369
70.4805
112.699
150.508
211.401
232.305
254.022
275.702
295.357
312.904
327.613
338.643
345.847
349.517
350.01
347.765
343.174
336.581
328.309
318.596
307.669
295.746
283.008
269.613
255.708
241.439
226.983
212.619
198.8
186.032
174.624
164.673
156.252
149.449
144.312
140.835
139.001
138.833
140.398
144.048
150.132
161.135
175.649
186.943
164.519
138.633
110.257
80.9409
49.4901
16.8059
-16.3573
-49.9635
-83.4498
-116.392
-148.484
-179.213
-208.093
-234.606
-258.188
-278.259
-294.296
-305.834
-312.458
-313.885
-310.106
-301.308
-287.985
-270.855
-250.741
-228.448
-204.388
-178.686
-151.572
-123.278
-93.9001
-63.4994
-32.0372
0.529756
34.8849
70.7504
112.049
148.896
207.342
226.71
246.912
267.144
285.522
302.056
316.068
326.727
333.903
337.871
338.949
337.527
333.952
328.505
321.452
312.975
303.253
292.457
280.744
268.265
255.168
241.609
227.767
213.919
200.495
187.971
176.671
166.736
158.262
151.348
146.06
142.41
140.394
140.042
141.429
144.899
150.773
161.332
174.951
184.102
163.248
139.164
112.797
85.6418
56.5142
26.262
-4.41906
-35.5447
-66.6141
-97.2773
-127.302
-156.247
-183.697
-209.181
-232.173
-252.128
-268.519
-280.859
-288.734
-291.784
-289.94
-283.307
-272.267
-257.399
-239.364
-218.863
-196.352
-172.019
-146.1
-118.84
-90.3644
-60.7505
-29.9755
1.98386
35.7507
71.0011
111.311
147.161
203.108
221.132
240.007
258.964
276.218
291.846
305.215
315.508
322.61
326.783
328.315
327.559
324.827
320.362
314.384
307.03
298.434
288.73
278.043
266.502
254.253
241.448
228.263
214.97
201.981
189.75
178.606
168.726
160.231
153.233
147.812
144
141.808
141.273
142.48
145.758
151.405
161.488
174.223
181.053
161.585
139.098
114.516
89.2819
62.2188
34.1411
5.6981
-23.1734
-52.0252
-80.5576
-108.604
-135.783
-161.747
-186.085
-208.315
-227.926
-244.41
-257.27
-266.1
-270.486
-270.3
-265.58
-256.602
-243.825
-227.768
-209.026
-188.062
-165.11
-140.408
-114.212
-86.6703
-57.8752
-27.8205
3.49563
36.6318
71.226
110.487
145.315
198.82
215.665
233.36
251.182
267.433
282.248
295.019
304.95
311.943
316.248
318.128
317.908
315.875
312.246
307.206
300.859
293.302
284.635
274.952
264.356
252.975
240.955
228.464
215.763
203.248
191.355
180.415
170.631
162.147
155.092
149.559
145.6
143.239
142.524
143.546
146.623
152.025
161.604
173.469
177.906
159.676
138.62
115.632
92.1128
66.905
40.7778
14.3515
-12.4712
-39.2856
-65.8371
-92.0089
-117.475
-141.944
-165.067
-186.414
-205.505
-221.866
-235.002
-244.525
-249.988
-251.206
-248.161
-241.038
-230.184
-215.997
-198.966
-179.536
-157.968
-134.503
-109.397
-82.8162
-54.8705
-25.5699
5.06529
37.5272
71.4201
109.582
143.369
194.568
210.359
227.002
243.799
259.15
273.223
285.434
295.015
301.872
306.253
308.397
308.607
307.152
304.23
300.002
294.549
287.939
280.242
271.523
261.858
251.354
240.138
228.369
216.292
204.289
192.776
182.085
172.437
164
156.915
151.293
147.201
144.681
143.79
144.626
147.491
152.631
161.682
172.693
174.739
157.622
137.856
116.306
94.3265
70.785
46.424
21.821
-3.13879
-28.0817
-52.7975
-77.2088
-101.038
-124.044
-145.924
-166.306
-184.752
-200.821
-214.037
-224.023
-230.329
-232.714
-231.113
-225.637
-216.536
-204.099
-188.716
-170.795
-150.607
-128.389
-104.394
-78.8023
-51.7361
-23.2247
6.69091
38.4348
71.582
108.597
141.331
190.407
205.251
220.942
236.812
251.349
264.739
276.423
285.662
292.366
296.776
299.115
299.668
298.692
296.367
292.839
288.175
282.42
275.619
267.811
259.047
249.412
239.011
227.983
216.557
205.096
194.004
183.605
174.134
165.778
158.693
153.005
148.798
146.13
145.067
145.714
148.36
153.222
161.724
171.898
171.606
155.499
136.902
116.656
96.0664
74.036
51.2743
28.3269
5.06665
-18.1628
-41.1844
-63.9507
-86.2251
-107.812
-128.456
-147.828
-165.541
-181.189
-194.323
-204.571
-211.512
-214.849
-214.477
-210.448
-202.931
-192.121
-178.313
-161.866
-143.044
-122.077
-99.2098
-74.6303
-48.4738
-20.786
8.37133
39.3542
71.7122
107.543
139.212
186.374
200.36
215.185
230.21
244.003
256.76
267.949
276.856
283.394
287.798
290.279
291.103
290.518
288.697
285.772
281.797
276.808
270.826
263.87
255.967
247.179
237.59
227.314
216.557
205.667
195.032
184.965
175.711
167.471
160.416
154.686
150.382
147.578
146.35
146.807
149.225
153.794
161.732
171.088
168.546
153.358
135.825
116.77
97.445
76.7881
55.4789
34.0411
12.3337
-9.32707
-30.7863
-52.0187
-72.8272
-93.0525
-112.485
-130.833
-147.755
-162.886
-175.808
-186.157
-193.543
-197.636
-198.296
-195.525
-189.424
-180.112
-167.796
-152.776
-135.297
-115.578
-93.8503
-70.3046
-45.0858
-18.2558
10.105
40.2853
71.8129
106.428
137.023
182.49
195.696
209.729
223.977
237.088
249.255
259.976
268.562
274.924
279.295
281.874
282.91
282.647
281.249
278.84
275.468
271.158
265.919
259.751
252.663
244.69
235.896
226.372
216.298
206
195.851
186.155
177.156
169.067
162.073
156.327
151.945
149.018
147.633
147.901
150.084
154.346
161.709
170.267
165.581
151.237
134.684
116.714
98.5448
79.1438
59.1632
39.1003
18.8147
-1.4035
-21.42
-41.2318
-60.6658
-79.598
-97.8529
-115.182
-131.284
-145.826
-158.432
-168.746
-176.418
-181.091
-182.601
-180.91
-176.065
-168.119
-157.203
-143.554
-127.388
-108.907
-88.3248
-65.8307
-41.5753
-15.6351
11.8923
41.2305
71.8876
105.262
134.775
178.77
191.261
204.565
218.098
230.576
242.194
252.471
260.745
266.928
271.245
273.885
275.086
275.086
274.043
272.074
269.228
265.519
260.947
255.502
249.175
241.98
233.957
225.175
215.788
206.099
196.461
187.167
178.459
170.556
163.654
157.918
153.481
150.445
148.909
148.99
150.932
154.876
161.657
169.44
162.729
149.16
133.51
116.543
99.4322
81.182
62.4207
43.6215
24.636
5.74289
-12.9424
-31.4344
-49.5855
-67.2941
-84.418
-100.744
-116.013
-129.924
-142.134
-152.305
-160.124
-165.224
-167.419
-166.642
-162.897
-156.187
-146.574
-134.231
-119.341
-102.08
-82.6441
-61.215
-37.9458
-12.9251
13.734
42.1913
71.9392
104.053
132.48
175.222
187.055
199.685
212.554
224.444
235.547
245.402
253.374
259.375
263.622
266.296
267.624
267.838
267.091
265.499
263.106
259.927
255.955
251.167
245.544
239.082
231.8
223.742
215.038
205.967
196.86
187.995
179.61
171.928
165.149
159.451
154.979
151.85
150.174
150.069
151.766
155.381
161.579
168.612
160.002
147.15
132.332
116.293
100.158
82.968
65.3276
47.6884
29.9012
12.2269
-5.22975
-22.4973
-39.448
-56.005
-72.0519
-87.4046
-101.839
-115.093
-126.851
-136.795
-144.642
-150.038
-152.772
-152.754
-149.963
-144.36
-135.948
-124.841
-111.181
-95.116
-76.8211
-56.4655
-34.2012
-10.127
15.6303
43.17
71.9713
102.811
130.148
171.849
183.073
195.077
207.33
218.669
229.286
238.741
246.422
252.239
256.406
259.093
260.516
260.902
260.404
259.131
257.131
254.416
250.977
246.785
241.808
236.031
229.453
222.097
214.065
205.612
197.05
188.637
180.603
173.171
166.548
160.915
156.431
153.227
151.421
151.134
152.582
155.86
161.477
167.786
157.403
145.217
131.174
115.993
100.762
84.5514
67.9455
51.3753
34.6926
18.1442
1.8201
-14.3135
-30.147
-45.6213
-60.6451
-75.0619
-88.674
-101.253
-112.517
-122.174
-129.952
-135.527
-138.671
-139.277
-137.303
-132.681
-125.367
-115.419
-102.935
-88.0363
-70.8704
-51.5914
-30.347
-7.24343
17.5806
44.1677
71.9874
101.544
127.791
168.651
179.309
190.73
202.407
213.232
223.39
232.464
239.863
245.497
249.573
252.255
253.749
254.275
253.984
252.983
251.321
249.012
246.045
242.388
238.003
232.86
226.946
220.263
212.887
205.046
197.033
189.09
181.433
174.279
167.839
162.3
157.829
154.566
152.642
152.178
153.377
156.312
161.355
166.967
154.936
143.372
130.05
115.668
101.273
85.9719
70.3247
54.742
39.0812
23.5724
8.29789
-6.78641
-21.581
-36.0415
-50.0984
-63.6174
-76.4303
-88.3325
-99.0752
-108.392
-116.027
-121.684
-125.124
-126.23
-124.947
-121.187
-114.868
-105.998
-94.6331
-80.8631
-64.8082
-46.6039
-26.39
-4.27817
19.5838
45.1859
71.9918
100.264
125.424
165.627
175.757
186.632
197.77
208.111
217.836
226.547
233.672
239.124
243.105
245.769
247.312
247.951
247.832
247.063
245.693
243.737
241.186
238.008
234.159
229.602
224.308
218.263
211.522
204.285
196.821
189.356
182.095
175.245
169.014
163.595
159.16
155.86
153.831
153.196
154.146
156.736
161.215
166.16
152.604
141.618
128.97
115.335
101.717
87.2602
72.5028
57.8378
43.1219
28.5761
14.2732
0.165399
-13.6628
-27.1777
-40.3234
-52.9869
-65.0262
-76.2613
-86.468
-95.4072
-102.837
-108.496
-112.135
-113.632
-112.925
-109.914
-104.488
-96.6122
-86.3043
-73.6202
-58.6526
-41.516
-22.339
-1.23568
21.6381
46.2262
71.9894
98.9798
123.059
162.773
172.411
182.774
193.404
203.289
212.603
220.966
227.828
233.1
236.981
239.615
241.192
241.921
241.947
241.374
240.255
238.607
236.422
233.669
230.303
226.282
221.564
216.122
209.989
203.341
196.423
189.441
182.587
176.063
170.067
164.792
160.417
157.099
154.98
154.183
154.887
157.131
161.06
165.368
150.406
139.961
127.943
115.006
102.113
88.4445
74.5136
60.6998
46.8636
33.2101
19.8073
6.60515
-6.321
-18.9513
-31.2421
-43.0951
-54.3899
-64.9704
-74.6375
-83.1735
-90.3516
-95.9436
-99.6998
-101.493
-101.258
-98.8918
-94.261
-87.2965
-77.9796
-66.3332
-52.4235
-36.3412
-18.2035
1.87781
23.7419
47.2908
71.9878
97.7055
120.715
160.084
169.26
179.142
189.296
198.749
207.671
215.703
222.309
227.406
231.184
233.781
235.377
236.178
236.323
235.917
235.014
233.634
231.77
229.395
226.462
222.927
218.741
213.864
208.31
202.23
195.848
189.352
182.915
176.729
170.988
165.883
161.59
158.273
156.08
155.133
155.595
157.495
160.893
164.595
148.336
138.401
126.975
114.692
102.477
89.5432
76.3853
63.3641
50.3436
37.5209
24.9555
12.5945
0.506196
-11.2973
-22.7847
-33.8735
-44.4571
-54.4002
-63.5297
-71.6478
-78.5417
-84.0103
-87.8129
-89.8206
-89.9665
-88.148
-84.2195
-78.083
-69.6883
-59.0284
-46.1408
-31.0966
-13.9941
5.05712
25.893
48.3832
71.9937
96.4529
118.405
157.554
166.296
175.725
185.428
194.472
203.022
210.738
217.099
222.023
225.696
228.249
229.854
230.71
230.956
230.693
229.976
228.827
227.246
225.203
222.658
219.561
215.862
211.51
206.504
200.969
195.109
189.093
183.079
177.244
171.775
166.859
162.67
159.375
157.123
156.036
156.266
157.829
160.717
163.847
146.393
136.937
126.068
114.399
102.82
90.5738
78.1377
65.8563
53.5963
41.5459
29.7597
18.183
6.87457
-4.15836
-14.8913
-25.2575
-35.1661
-44.4962
-53.094
-60.7861
-67.373
-72.6766
-76.4661
-78.6178
-79.0648
-77.7064
-74.3916
-69.0014
-61.4594
-51.731
-39.8283
-25.7975
-9.72233
8.29418
28.0907
49.5054
72.0164
95.2345
116.143
155.176
163.51
172.51
181.787
190.444
198.64
206.053
212.178
216.935
220.502
223.006
224.611
225.51
225.839
225.697
225.14
224.193
222.857
221.109
218.908
216.207
212.95
209.082
204.588
199.576
194.221
188.676
183.085
177.609
172.425
167.714
163.65
160.395
158.101
156.888
156.896
158.132
160.533
163.125
144.571
135.567
125.224
114.134
103.152
91.5502
79.7891
68.1994
56.6498
45.3193
34.2576
23.4117
12.8309
2.5171
-7.51105
-17.1954
-26.462
-35.2052
-43.2851
-50.5485
-56.8123
-61.9184
-65.6494
-67.8831
-68.5598
-67.5851
-64.8041
-60.082
-53.3224
-44.4681
-33.507
-20.4631
-5.4009
11.5833
30.3308
50.6611
72.0631
94.0602
113.943
152.944
160.891
169.487
178.359
186.648
194.509
201.631
207.53
212.124
215.586
218.038
219.635
220.567
220.964
220.925
220.506
219.735
218.614
217.124
215.229
212.881
210.025
206.601
202.585
198.064
193.195
188.109
182.936
177.825
172.938
168.447
164.522
161.326
159.006
157.682
157.479
158.401
160.344
162.433
142.865
134.289
124.442
113.898
103.477
92.4833
81.3556
70.411
59.5261
48.8685
38.4822
28.3153
18.4148
8.77345
-0.595219
-9.63996
-18.2974
-26.4783
-34.0583
-40.8974
-46.8294
-51.7117
-55.3487
-57.6155
-58.4602
-57.799
-55.4773
-51.3504
-45.3049
-37.2662
-27.2
-15.1099
-1.04353
14.9155
32.6123
51.8524
72.1411
92.9423
111.817
150.85
158.432
166.643
175.132
183.071
190.612
197.458
203.14
207.575
210.934
213.332
214.916
215.871
216.325
216.373
216.073
215.454
214.522
213.259
211.633
209.6
207.106
204.088
200.513
196.453
192.045
187.405
182.643
177.894
173.311
169.054
165.284
162.161
159.832
158.412
158.013
158.635
160.149
161.773
141.27
133.098
123.721
113.694
103.802
93.3787
82.8479
72.5096
62.2451
52.2158
42.4623
32.9289
23.6603
14.6488
5.89903
-2.54676
-10.631
-18.2749
-25.3715
-31.7952
-37.3938
-42.0345
-45.546
-47.808
-48.77
-48.3599
-46.4306
-42.8294
-37.433
-30.1509
-20.9308
-9.7584
3.33705
18.2816
34.9313
53.0821
72.2601
91.89
109.779
148.886
156.122
163.969
172.092
179.7
186.936
193.517
198.99
203.274
206.532
208.873
210.441
211.412
211.912
212.034
211.836
211.349
210.581
209.518
208.13
206.377
204.208
201.558
198.39
194.759
190.786
186.571
182.211
177.823
173.546
169.531
165.931
162.897
160.572
159.071
158.492
158.833
159.948
161.145
139.779
131.991
123.06
113.522
104.13
94.2456
84.275
74.5069
64.8254
55.3832
46.2198
37.2799
28.6016
20.176
12.0059
4.12481
-3.42007
-10.5562
-17.1885
-23.2067
-28.4744
-32.8649
-36.2281
-38.45
-39.4873
-39.2767
-37.6786
-34.5397
-29.7292
-23.1453
-14.7212
-4.42663
7.72539
21.674
37.2844
54.3526
72.4261
90.9142
107.839
147.046
153.953
161.454
169.231
176.522
183.467
189.795
195.067
199.205
202.365
204.651
206.198
207.18
207.718
207.902
207.793
207.42
206.794
205.906
204.729
203.225
201.345
199.028
196.231
192.998
189.433
185.622
181.649
177.616
173.646
169.879
166.458
163.528
161.223
159.656
158.914
158.994
159.742
160.548
138.389
130.964
122.457
113.382
104.463
95.0871
85.6452
76.4128
67.2788
58.3875
49.7755
41.3898
33.2643
25.3867
17.7571
10.4058
3.37077
-3.28557
-9.47624
-15.1015
-20.041
-24.1776
-27.378
-29.5335
-30.6095
-30.5531
-29.2333
-26.4987
-22.2149
-16.2725
-8.59356
0.866182
12.1073
25.082
39.6684
55.6654
72.6467
90.023
106.009
145.324
151.919
159.09
166.537
173.526
180.193
186.279
191.36
195.357
198.421
200.651
202.177
203.165
203.734
203.97
203.936
203.663
203.161
202.425
201.433
200.15
198.529
196.511
194.052
191.185
188
184.571
180.966
177.278
173.614
170.098
166.865
164.05
161.781
160.162
159.274
159.115
159.53
159.983
137.094
130.015
121.909
113.274
104.802
95.9074
86.9646
78.236
69.6161
61.2427
53.1477
45.2796
37.6705
30.3068
23.1829
16.3261
9.77102
3.57007
-2.20113
-7.45099
-12.069
-15.9499
-18.977
-21.0473
-22.1325
-22.1913
-21.1032
-18.7204
-14.9079
-9.55266
-2.56793
6.10106
16.4681
28.4967
42.0789
57.0216
72.9286
89.2251
104.298
143.713
150.012
156.87
164.001
170.702
177.103
182.957
187.854
191.715
194.687
196.863
198.366
199.357
199.95
200.232
200.262
200.074
199.681
199.078
198.248
197.159
195.769
194.02
191.867
189.335
186.502
183.429
180.175
176.817
173.452
170.19
167.151
164.461
162.24
160.588
159.573
159.196
159.31
159.448
135.889
129.139
121.414
113.197
105.148
96.7086
88.2378
79.9858
71.8491
63.9613
56.3513
48.9686
41.8414
34.9569
28.3081
21.915
15.8089
10.0371
4.66582
-0.224693
-4.53321
-8.16044
-11.007
-12.9787
-14.0509
-14.1921
-13.2942
-11.2158
-7.82433
-3.004
3.3365
11.2609
20.7927
31.9077
44.5113
58.4232
73.2772
88.5274
102.714
142.208
148.226
154.786
161.617
168.042
174.188
179.819
184.538
188.269
191.152
193.274
194.753
195.744
196.358
196.679
196.765
196.65
196.35
195.864
195.176
194.258
193.072
191.564
189.688
187.461
184.951
182.209
179.285
176.244
173.168
170.155
167.315
164.759
162.599
160.928
159.807
159.237
159.081
158.939
134.771
128.333
120.971
113.15
105.503
97.4941
89.4689
81.6657
73.9862
66.5545
59.3991
52.4716
45.7967
39.3595
33.1536
27.1961
21.5114
16.1417
11.1489
6.60263
2.59244
-0.788236
-3.45158
-5.31304
-6.3552
-6.55344
-5.81015
-3.99408
-0.976421
3.35767
9.1031
16.3287
25.0674
35.3049
46.9606
59.8691
73.6981
87.9363
101.262
140.806
146.557
152.833
159.377
165.538
171.439
176.856
181.404
185.009
187.804
189.874
191.328
192.318
192.949
193.302
193.436
193.385
193.166
192.782
192.218
191.45
190.444
189.15
187.523
185.574
183.36
180.925
178.308
175.566
172.768
170
167.358
164.944
162.857
161.182
159.974
159.237
158.843
158.454
133.738
127.594
120.577
113.132
105.865
98.2647
90.6613
83.2821
76.0325
69.0312
62.3028
55.8012
49.5498
43.5323
37.7403
32.1897
26.9013
21.9104
17.2725
13.0527
9.33027
6.18891
3.70605
1.96101
0.963816
0.729938
1.34744
2.93845
5.62522
9.51945
14.7165
21.2895
29.2782
38.6775
49.4209
61.359
74.1938
87.4558
99.95
139.502
144.998
151.005
157.274
163.182
168.848
174.058
178.442
181.924
184.635
186.653
188.082
189.067
189.712
190.094
190.27
190.275
190.127
189.829
189.373
188.738
187.891
186.787
185.382
183.685
181.74
179.587
177.256
174.794
172.261
169.73
167.284
165.015
163.011
161.348
160.074
159.193
158.594
157.992
132.784
126.921
120.23
113.141
106.235
99.0219
91.818
84.8392
77.9948
71.3988
65.0725
58.9705
53.1153
47.4906
42.0864
36.9156
31.9978
27.3636
23.0607
19.1482
15.6994
12.7902
10.4852
8.85827
7.91538
7.66351
8.17992
9.57826
11.9727
15.4702
20.164
26.1298
33.4128
42.0162
51.886
62.8913
74.7667
87.09
98.7799
138.291
143.545
149.294
155.301
160.966
166.408
171.419
175.644
179.008
181.635
183.601
185.005
185.984
186.64
187.046
187.258
187.312
187.226
187.005
186.642
186.122
185.415
184.479
183.273
181.801
180.102
178.206
176.139
173.938
171.655
169.351
167.099
164.976
163.062
161.425
160.104
159.106
158.332
157.549
131.905
126.31
119.928
113.178
106.614
99.766
92.9402
86.3404
79.8788
73.6638
67.7157
61.9898
56.506
51.2484
46.2073
41.3924
36.8203
32.5196
28.5326
24.9104
21.72
19.0327
16.9023
15.3939
14.5103
14.2538
14.6906
15.924
18.0606
21.2008
25.4347
30.8382
37.4602
45.311
54.3497
64.4627
75.4181
86.8406
97.7546
137.167
142.191
147.693
153.45
158.884
164.11
168.93
173.001
176.25
178.796
180.711
182.088
183.061
183.724
184.15
184.394
184.49
184.457
184.304
184.023
183.603
183.018
182.23
181.202
179.932
178.453
176.791
174.966
173.008
170.959
168.871
166.806
164.83
163.013
161.412
160.065
158.974
158.055
157.12
131.097
125.756
119.67
113.241
107
100.499
94.03
87.788
81.6887
75.833
70.2399
64.8672
59.7324
54.8187
50.1163
45.6348
41.3867
37.3971
33.7055
30.3578
27.4119
24.9342
22.9719
21.5819
20.762
20.5094
20.8833
21.9761
23.8856
26.7048
30.52
35.4046
41.4102
48.5538
56.8053
66.0695
76.1467
86.7084
96.8754
136.126
140.929
146.196
151.714
156.927
161.947
166.584
170.507
173.644
176.111
177.975
179.324
180.288
180.956
181.399
181.67
181.803
181.817
181.721
181.513
181.18
180.702
180.045
179.173
178.083
176.803
175.353
173.748
172.014
170.182
168.298
166.412
164.582
162.866
161.313
159.955
158.795
157.761
156.703
130.355
125.256
119.451
113.328
107.393
101.221
95.0897
89.1855
83.427
77.9106
72.6521
67.6108
62.8034
58.2124
53.8272
49.6562
45.7112
42.0133
38.5974
35.5062
32.7919
30.5128
28.7103
27.4354
26.6817
26.4406
26.7644
27.7368
29.4462
31.9779
35.4127
39.8206
45.2543
51.736
59.2463
67.7075
76.9503
86.6918
96.1413
135.16
139.753
144.796
150.084
155.087
159.91
164.372
168.153
171.183
173.572
175.386
176.707
177.658
178.33
178.786
179.079
179.244
179.299
179.254
179.107
178.851
178.467
177.924
177.19
176.261
175.159
173.899
172.495
170.964
169.334
167.641
165.926
164.237
162.625
161.129
159.776
158.569
157.446
156.294
129.673
124.806
119.269
113.437
107.793
101.932
96.1203
90.535
85.0981
79.9008
74.9579
70.2283
65.7274
61.4388
57.3511
53.4706
49.8076
46.3823
43.2247
40.3729
37.8751
35.7836
34.1335
32.9683
32.2806
32.0573
32.342
33.2106
34.7432
37.0175
40.1076
44.0797
48.9853
54.8508
61.6666
69.3716
77.8255
86.7884
95.5506
134.264
138.656
143.485
148.555
153.356
157.991
162.286
165.931
168.858
171.172
172.936
174.228
175.166
175.837
176.304
176.616
176.807
176.897
176.896
176.804
176.614
176.312
175.87
175.258
174.471
173.526
172.437
171.213
169.868
168.423
166.907
165.355
163.803
162.295
160.864
159.53
158.295
157.109
155.886
129.046
124.4
119.119
113.565
108.198
102.632
97.1228
91.8387
86.7052
81.8081
77.1612
72.725
68.5123
64.5065
60.6971
57.0889
53.6897
50.5177
47.6012
44.9736
42.6774
40.7611
39.2553
38.1955
37.5716
37.3689
37.6239
38.4034
39.7796
41.8233
44.6016
48.1762
52.5965
57.8916
64.06
71.0564
78.7676
86.9938
95.0998
133.433
137.633
142.257
147.118
151.726
156.182
160.317
163.832
166.661
168.904
170.619
171.881
172.805
173.473
173.946
174.274
174.488
174.607
174.643
174.599
174.467
174.236
173.881
173.377
172.715
171.911
170.975
169.913
168.735
167.459
166.107
164.706
163.287
161.883
160.521
159.219
157.975
156.747
155.476
128.47
124.036
119
113.71
108.607
103.321
98.0981
93.0981
88.2506
83.6364
79.2675
75.1063
71.1642
67.4241
63.8745
60.5203
57.3681
54.4329
51.7402
49.3213
47.2139
45.4607
44.0894
43.1296
42.5677
42.3871
42.6188
43.3219
44.5598
46.3967
48.8935
52.1066
56.0828
60.8524
66.4208
72.7564
79.7713
87.3028
94.7836
132.662
136.679
141.106
145.767
150.192
154.475
158.458
161.85
164.585
166.759
168.427
169.659
170.568
171.232
171.709
172.048
172.28
172.424
172.492
172.488
172.406
172.237
171.959
171.549
170.998
170.318
169.517
168.599
167.573
166.451
165.249
163.989
162.696
161.395
160.107
158.846
157.609
156.359
155.061
127.941
123.709
118.907
113.869
109.017
103.998
99.0466
94.3154
89.7372
85.3891
81.2817
77.3781
73.6892
70.1978
66.8918
63.7747
60.8525
58.1384
55.6546
53.4293
51.4975
49.8964
48.65
47.7832
47.281
47.1237
47.3369
47.9735
49.0893
50.7409
52.9836
55.8687
59.4401
63.7279
68.7429
74.4658
80.8308
87.7091
94.596
131.947
135.789
140.028
144.498
148.746
152.865
156.702
159.976
162.621
164.729
166.352
167.557
168.449
169.107
169.586
169.932
170.179
170.344
170.439
170.468
170.429
170.313
170.103
169.775
169.322
168.751
168.069
167.28
166.389
165.405
164.341
163.212
162.038
160.837
159.627
158.415
157.197
155.945
154.637
127.457
123.418
118.838
114.041
109.428
104.662
99.9684
95.4917
91.1675
87.0694
83.2072
79.5454
76.0931
72.834
69.7559
66.8607
64.1527
61.6443
59.3553
57.3104
55.541
54.0809
52.9507
52.1699
51.7232
51.5893
51.7886
52.3668
53.3741
54.8601
56.8739
59.4621
62.6655
66.5136
71.0208
76.1782
81.9393
88.2058
94.5302
131.285
134.96
139.02
143.306
147.385
151.346
155.043
158.204
160.763
162.808
164.387
165.565
166.442
167.092
167.571
167.923
168.18
168.361
168.478
168.536
168.533
168.463
168.311
168.055
167.687
167.213
166.637
165.962
165.191
164.331
163.392
162.384
161.321
160.218
159.086
157.93
156.744
155.503
154.201
127.015
123.159
118.792
114.224
109.837
105.312
100.863
96.6276
92.5435
88.6807
85.0484
81.6129
78.382
75.3396
72.4735
69.7853
67.2773
64.9603
62.8522
60.9752
59.3565
58.0267
57.0039
56.3029
55.9073
55.7955
55.9837
56.5112
57.4218
58.7597
60.5677
62.8878
65.7575
69.2055
73.249
77.887
83.0897
88.7853
94.5785
130.673
134.188
138.077
142.187
146.104
149.914
153.476
156.527
159.003
160.988
162.526
163.678
164.539
165.182
165.658
166.014
166.28
166.473
166.607
166.689
166.717
166.686
166.583
166.389
166.096
165.706
165.223
164.649
163.986
163.237
162.41
161.512
160.554
159.544
158.49
157.395
156.251
155.035
153.752
126.612
122.93
118.765
114.415
110.244
105.948
101.731
97.7236
93.8664
90.2257
86.8093
83.5852
80.5611
77.7208
75.0522
72.5561
70.2343
68.0954
66.1551
64.4335
62.955
61.7457
60.8214
60.194
59.8457
59.7542
59.9329
60.4159
61.2408
62.4459
64.0691
66.1476
68.7157
71.8008
75.4223
79.5855
84.2744
89.4395
94.7327
130.108
133.472
137.196
141.139
144.9
148.564
151.996
154.942
157.338
159.265
160.763
161.888
162.734
163.369
163.844
164.202
164.472
164.675
164.824
164.924
164.977
164.979
164.918
164.778
164.549
164.233
163.832
163.347
162.778
162.128
161.402
160.605
159.743
158.823
157.847
156.816
155.72
154.54
153.288
126.245
122.729