/*--------------------------------*- C++ -*----------------------------------*\
| =========                 |                                                 |
| \\      /  F ield         | OpenFOAM: The Open Source CFD Toolbox           |
|  \\    /   O peration     | Version:  3.0.0                                 |
|   \\  /    A nd           | Web:      www.OpenFOAM.org                      |
|    \\/     M anipulation  |                                                 |
\*---------------------------------------------------------------------------*/
FoamFile
{
    version     2.0;
    format      ascii;
    class       surfaceScalarField;
    location    "100";
    object      phi;
}
// * * * * * * * * * * * * * * * * * * * * * * * * * * * * * * * * * * * * * //

dimensions      [0 3 -1 0 0 0 0];

internalField   nonuniform List<scalar> 
21254
(
-0.250057
0.269136
-0.019103
0.290699
-0.0215603
0.308937
-0.0182449
0.325058
-0.0161214
0.340225
-0.0151728
0.352095
-0.0118704
0.361249
-0.00915802
0.368522
-0.00727478
0.372988
-0.0044661
0.375741
-0.00275255
0.377
-0.00125808
0.376515
0.000485839
0.374674
0.00184224
0.371567
0.003108
0.367146
0.00442067
0.361733
0.00541328
0.35514
0.00659326
0.347471
0.00766885
0.338576
0.00889545
0.328673
0.00990358
0.317437
0.0112363
0.305448
0.0119896
0.292964
0.012484
0.281278
0.0116849
0.271592
0.00968643
0.263216
0.00837535
0.255011
0.00820509
0.246654
0.00835663
0.237817
0.00883757
0.228405
0.00941378
0.218379
0.0100279
0.207717
0.0106613
0.196332
0.0113845
0.183958
0.0123753
0.170025
0.0139348
0.153436
0.0165911
0.131863
0.0215768
0.100578
0.0312931
0.0899097
0.0107783
-0.227233
-0.0228179
-0.203661
-0.0235615
-0.174424
-0.0292357
-0.142153
-0.0322679
-0.107981
-0.034172
-0.0724956
-0.0354847
-0.0372403
-0.0352544
-0.0042582
-0.0329805
0.0256832
-0.0299398
0.0524722
-0.0267878
0.075461
-0.0229881
0.0950604
-0.0195989
0.111617
-0.0165565
0.125501
-0.0138831
0.137419
-0.0119175
0.147705
-0.0102855
0.156839
-0.00913372
0.165066
-0.00822672
0.172707
-0.00764008
0.179894
-0.00718686
0.186803
-0.00690878
0.193431
-0.00662725
0.199714
-0.0062841
0.205041
-0.00532759
0.209222
-0.00418131
0.212527
-0.00330537
0.214958
-0.00243163
0.216633
-0.0016747
0.217586
-0.00095263
0.217811
-0.000226116
0.217186
0.000625286
0.215774
0.00141164
0.213702
0.00207236
0.21106
0.00264165
0.207745
0.00331457
0.203384
0.00436035
0.196945
0.00643743
0.18344
0.0134924
0.164628
0.0188253
-0.228815
0.25022
-0.0404929
0.272048
-0.043387
0.294758
-0.0409521
0.315872
-0.0372375
0.33641
-0.0357106
0.355335
-0.0307973
0.372272
-0.0260952
0.387485
-0.0224898
0.400571
-0.0175521
0.411599
-0.0137794
0.420646
-0.0103039
0.427931
-0.00679775
0.433701
-0.00392748
0.437954
-0.00114451
0.44056
0.00181514
0.441214
0.00475929
0.439862
0.00794562
0.436651
0.0108801
0.431103
0.0144431
0.423541
0.0174657
0.413587
0.0211902
0.401555
0.0240225
0.387465
0.0265734
0.371991
0.0271582
0.356408
0.0252684
0.34115
0.0236336
0.326296
0.023059
0.312048
0.0226043
0.298207
0.022679
0.284605
0.023016
0.271021
0.0236138
0.257279
0.0244016
0.243111
0.0255525
0.228271
0.0272161
0.212316
0.0298929
0.194157
0.0347521
0.172425
0.0433131
0.138198
0.0655261
0.0995668
0.0494793
-0.206879
-0.0447449
-0.183363
-0.0470722
-0.155787
-0.0568083
-0.126547
-0.0615056
-0.0954176
-0.0653001
-0.0628113
-0.0680904
-0.0302501
-0.0678146
0.00102534
-0.0642549
0.0299626
-0.058876
0.0557566
-0.0525809
0.0783848
-0.0456157
0.098089
-0.0393025
0.115309
-0.0337764
0.130271
-0.0288441
0.143403
-0.0250489
0.155007
-0.021889
0.165374
-0.0195001
0.174813
-0.0176655
0.183582
-0.0164085
0.191797
-0.0154007
0.199619
-0.0147306
0.207123
-0.0141321
0.214245
-0.013406
0.220527
-0.0116108
0.225694
-0.00934961
0.229952
-0.00756433
0.233297
-0.00577738
0.235783
-0.00416017
0.237434
-0.00260319
0.238359
-0.00115026
0.238699
0.000285514
0.23847
0.00164076
0.237551
0.00299179
0.235885
0.00430676
0.233418
0.00578194
0.229911
0.00786642
0.225451
0.0108961
0.215506
0.0234257
0.197272
0.0370722
-0.222168
0.24372
-0.0620377
0.265376
-0.065038
0.288684
-0.0642592
0.309934
-0.058485
0.33006
-0.0558351
0.349256
-0.0499932
0.366238
-0.0430785
0.381425
-0.0376765
0.394372
-0.0304999
0.405388
-0.0247941
0.414488
-0.0194028
0.421843
-0.0141517
0.427312
-0.00939528
0.431391
-0.00522303
0.43389
-0.00068332
0.435509
0.00314038
0.435899
0.00755581
0.435385
0.0113943
0.433616
0.0162126
0.430515
0.0205668
0.425956
0.0257501
0.41976
0.0302185
0.411901
0.0344329
0.402479
0.0365802
0.392019
0.0357285
0.380602
0.03505
0.368147
0.035514
0.354816
0.0359352
0.340792
0.0367034
0.326178
0.0376311
0.311113
0.0386801
0.295606
0.0399085
0.279573
0.0415853
0.262805
0.0439858
0.244862
0.0478361
0.224676
0.0549392
0.201009
0.0669812
0.166188
0.100352
0.117877
0.0978358
-0.200442
-0.0664665
-0.176554
-0.0709563
-0.147913
-0.0854464
-0.11803
-0.091387
-0.0867217
-0.096607
-0.0541174
-0.100694
-0.021835
-0.100096
0.00840211
-0.0944911
0.0363113
-0.0867844
0.0616548
-0.0779237
0.0841532
-0.0681134
0.103956
-0.0591047
0.1214
-0.05122
0.136745
-0.0441883
0.150297
-0.0386008
0.162389
-0.0339809
0.173287
-0.0303977
0.183256
-0.0276334
0.192503
-0.0256553
0.201197
-0.0240942
0.209525
-0.0230586
0.217506
-0.022113
0.225053
-0.0209524
0.231866
-0.0184246
0.237663
-0.0151473
0.242545
-0.0124459
0.246567
-0.00979979
0.249763
-0.00735714
0.252201
-0.00504145
0.253871
-0.00281994
0.254839
-0.000683135
0.255111
0.0013685
0.254721
0.00338112
0.253611
0.00541619
0.2517
0.00769269
0.248632
0.0109343
0.244061
0.0154661
0.234424
0.0330548
0.216506
0.054998
-0.214534
0.237146
-0.084645
0.259763
-0.087653
0.284572
-0.0890655
0.307165
-0.0810759
0.328991
-0.0776596
0.34983
-0.0708318
0.368894
-0.0621417
0.385979
-0.0547634
0.401314
-0.0458348
0.414683
-0.0381615
0.426196
-0.0309149
0.435858
-0.0238128
0.443715
-0.0172511
0.449812
-0.0113198
0.454445
-0.00531549
0.45721
0.000374894
0.458292
0.00647477
0.457456
0.0122295
0.455055
0.018614
0.450979
0.0246433
0.445382
0.0313474
0.438509
0.0370917
0.430476
0.0424655
0.421766
0.0452895
0.412777
0.0447167
0.403541
0.0442851
0.393669
0.0453858
0.382998
0.0466061
0.371349
0.0483525
0.358557
0.0504239
0.344629
0.0526096
0.329563
0.0549734
0.313362
0.0577863
0.295887
0.061463
0.276838
0.0668864
0.255208
0.0765719
0.229697
0.0924962
0.193607
0.136446
0.142594
0.14889
-0.192185
-0.0888138
-0.168163
-0.0949763
-0.138974
-0.114634
-0.108941
-0.121419
-0.0775531
-0.127994
-0.0448342
-0.133412
-0.0126466
-0.132283
0.0172119
-0.124349
0.0445809
-0.114153
0.0695026
-0.102845
0.0916371
-0.0902473
0.111217
-0.0786838
0.128641
-0.068644
0.144139
-0.0596855
0.158019
-0.05248
0.170507
-0.0464688
0.181888
-0.0417773
0.19234
-0.0380849
0.202092
-0.0354066
0.211285
-0.0332868
0.220033
-0.031807
0.228407
-0.0304867
0.236349
-0.0288944
0.243544
-0.0256206
0.249752
-0.0213565
0.255032
-0.0177271
0.259428
-0.0141961
0.262989
-0.0109184
0.265751
-0.00780268
0.267769
-0.00483812
0.269076
-0.00198926
0.269699
0.000744946
0.269649
0.00343135
0.268918
0.00614681
0.267407
0.0092035
0.264771
0.0135704
0.260495
0.0197406
0.251456
0.0420847
0.233657
0.0728054
-0.210494
0.233928
-0.108077
0.257439
-0.111162
0.283681
-0.115307
0.307055
-0.104448
0.329929
-0.100532
0.351898
-0.0927998
0.371888
-0.0821326
0.389989
-0.0728652
0.406516
-0.0623612
0.420808
-0.0524531
0.43326
-0.0433662
0.443813
-0.0343642
0.452754
-0.0261918
0.459751
-0.0183157
0.464966
-0.0105309
0.46843
-0.0030879
0.470309
0.00459565
0.470626
0.011913
0.469129
0.0201114
0.466086
0.0276862
0.461357
0.0360774
0.45509
0.0433588
0.447533
0.0500227
0.439089
0.0537335
0.430326
0.0534805
0.421433
0.0531777
0.412252
0.0545674
0.402696
0.056162
0.392594
0.0584548
0.381746
0.061273
0.369874
0.0644815
0.356732
0.0681169
0.342092
0.0724252
0.325663
0.0778935
0.307015
0.0855338
0.285232
0.0983561
0.258837
0.118892
0.221794
0.173493
0.170095
0.200616
-0.187084
-0.112224
-0.162339
-0.119719
-0.131888
-0.145084
-0.101012
-0.152295
-0.0689035
-0.160101
-0.0355763
-0.166738
-0.00295151
-0.164907
0.0269818
-0.154281
0.0541442
-0.141314
0.0787889
-0.127489
0.100613
-0.112071
0.11994
-0.0980097
0.137258
-0.0859624
0.152775
-0.0752018
0.166798
-0.0665021
0.179585
-0.0592556
0.191311
-0.0535025
0.202157
-0.0489303
0.212314
-0.0455639
0.221921
-0.0428933
0.231073
-0.0409581
0.239811
-0.0392251
0.248105
-0.0371888
0.255683
-0.0331981
0.262284
-0.0279577
0.267939
-0.0233826
0.272681
-0.0189385
0.276562
-0.0147998
0.279612
-0.0108528
0.281865
-0.00709156
0.283365
-0.00348976
0.284168
-5.78186e-05
0.284279
0.00332025
0.283668
0.00675686
0.282302
0.010569
0.279825
0.0160476
0.275695
0.0238697
0.267227
0.0505483
0.249953
0.0900831
-0.207278
0.231736
-0.132534
0.256597
-0.136023
0.28423
-0.142939
0.308835
-0.129052
0.332744
-0.12444
0.356113
-0.116168
0.377093
-0.103113
0.396508
-0.0922815
0.414043
-0.0798964
0.429595
-0.0680041
0.443387
-0.0571577
0.45523
-0.0462059
0.465354
-0.0363147
0.473736
-0.026697
0.480228
-0.0170231
0.485161
-0.00802092
0.488137
0.00162018
0.489255
0.0107953
0.488633
0.0207332
0.486103
0.0302168
0.481723
0.0404574
0.475725
0.0493572
0.468265
0.0574818
0.459771
0.0622273
0.450754
0.0624972
0.441471
0.0624601
0.431877
0.0641603
0.421983
0.0660557
0.411779
0.068659
0.401173
0.07188
0.390058
0.0755977
0.37815
0.0800246
0.365117
0.0854586
0.350467
0.0925448
0.333521
0.102482
0.313039
0.11884
0.287326
0.144609
0.250449
0.210374
0.198929
0.252165
-0.182891
-0.13661
-0.157322
-0.145288
-0.12555
-0.176855
-0.0935182
-0.184326
-0.0603995
-0.193219
-0.0261328
-0.201004
0.00720329
-0.198242
0.0374738
-0.184551
0.0647318
-0.168571
0.0892931
-0.152049
0.110918
-0.133695
0.130006
-0.117098
0.147152
-0.103107
0.162602
-0.0906514
0.176664
-0.0805634
0.189595
-0.0721862
0.201553
-0.0654594
0.212722
-0.0600989
0.22323
-0.0560719
0.233205
-0.0528678
0.242737
-0.0504894
0.251848
-0.0483362
0.260489
-0.0458298
0.268476
-0.0411855
0.275481
-0.0349632
0.281492
-0.0293951
0.286596
-0.0240427
0.290787
-0.0189914
0.294115
-0.0141802
0.296609
-0.00958638
0.298314
-0.00519445
0.299257
-0.00100042
0.299455
0.00312216
0.298934
0.00727762
0.297562
0.0119402
0.295083
0.018526
0.290863
0.0280887
0.28268
0.058725
0.266003
0.106766
-0.205417
0.231216
-0.158334
0.257115
-0.16192
0.286327
-0.17215
0.312221
-0.154945
0.337402
-0.149619
0.361853
-0.14062
0.384024
-0.125285
0.404302
-0.112559
0.422908
-0.0985031
0.43942
-0.0845154
0.454063
-0.0717995
0.466982
-0.0591239
0.478041
-0.0473733
0.487304
-0.0359592
0.494835
-0.0245537
0.50045
-0.013636
0.504311
-0.00224085
0.506328
0.00877866
0.506518
0.0205435
0.504821
0.0319147
0.501279
0.0439997
0.49596
0.0546765
0.489196
0.0642468
0.481173
0.0702502
0.472402
0.0712692
0.463114
0.0717479
0.453319
0.073956
0.443051
0.0763237
0.432395
0.0793152
0.421317
0.0829581
0.409815
0.0870999
0.397819
0.092021
0.385152
0.0981251
0.3714
0.106298
0.355926
0.117956
0.337379
0.137388
0.313692
0.168296
0.278676
0.245393
0.228344
0.302517
-0.179812
-0.162214
-0.153127
-0.171973
-0.1199
-0.210082
-0.086549
-0.217677
-0.0522198
-0.227548
-0.016695
-0.236528
0.0176107
-0.232547
0.0485328
-0.215472
0.0761455
-0.196183
0.100866
-0.176769
0.122406
-0.155235
0.141326
-0.136017
0.158304
-0.120085
0.173631
-0.105977
0.18764
-0.094572
0.200623
-0.0851685
0.212743
-0.0775791
0.22414
-0.0714949
0.234941
-0.0668731
0.245241
-0.0631671
0.255108
-0.0603569
0.264559
-0.0577863
0.273568
-0.0548387
0.281894
-0.0495121
0.289307
-0.042376
0.295726
-0.0358148
0.301172
-0.0294889
0.305695
-0.0235155
0.3093
-0.0177849
0.312048
-0.0123341
0.313942
-0.00708901
0.315045
-0.00210362
0.315372
0.00279444
0.314883
0.00776627
0.313542
0.0132813
0.311004
0.0210642
0.306635
0.0324572
0.29854
0.066818
0.282412
0.122896
-0.204318
0.231459
-0.185474
0.258801
-0.189262
0.289703
-0.203051
0.3168
-0.182042
0.343277
-0.176096
0.368987
-0.166329
0.392183
-0.148482
0.413691
-0.134068
0.43312
-0.117931
0.450582
-0.101977
0.466294
-0.0875114
0.48009
-0.0729188
0.492046
-0.0593288
0.50228
-0.0461927
0.510723
-0.0329962
0.517331
-0.0202441
0.52213
-0.00703966
0.525062
0.00584722
0.526022
0.0195841
0.525028
0.0329087
0.522172
0.0468554
0.517461
0.0593882
0.51114
0.0705677
0.503566
0.0778233
0.495062
0.0797726
0.485878
0.0809313
0.476069
0.0837646
0.465639
0.0867533
0.454633
0.0903205
0.443117
0.0944753
0.43104
0.0991767
0.41845
0.104612
0.405241
0.111335
0.391281
0.12026
0.376091
0.133148
0.358671
0.15481
0.337135
0.189835
0.305271
0.277262
0.257455
0.350356
-0.17748
-0.189052
-0.149633
-0.19982
-0.114679
-0.245037
-0.079796
-0.252559
-0.0440308
-0.263312
-0.00712699
-0.273432
0.0284131
-0.268087
0.0602109
-0.247269
0.088361
-0.224333
0.113375
-0.201782
0.134997
-0.176856
0.153826
-0.154845
0.170659
-0.136918
0.185844
-0.121161
0.19976
-0.108488
0.212748
-0.0981561
0.224929
-0.0897595
0.236482
-0.0830471
0.2475
-0.0778906
0.258072
-0.0737381
0.268228
-0.0705128
0.278013
-0.067571
0.287363
-0.0641888
0.29607
-0.0582196
0.303866
-0.0501732
0.310669
-0.0426181
0.316487
-0.0353078
0.32135
-0.0283783
0.325253
-0.0216879
0.32824
-0.0153217
0.33036
-0.00920928
0.331621
-0.00336478
0.332062
0.00235381
0.33165
0.00817788
0.330291
0.0146396
0.327695
0.02366
0.323193
0.0369581
0.315112
0.0748954
0.299544
0.138467
-0.204109
0.232618
-0.213982
0.261411
-0.218055
0.294012
-0.23565
0.322503
-0.210533
0.350457
-0.204049
0.377529
-0.193402
0.401953
-0.172907
0.424346
-0.156461
0.444901
-0.138487
0.463206
-0.120282
0.479634
-0.103939
0.494259
-0.087543
0.507095
-0.0721642
0.518144
-0.0572413
0.527409
-0.0422607
0.534914
-0.0277491
0.54052
-0.0126456
0.544195
0.00217261
0.545917
0.0178621
0.545647
0.0331792
0.543469
0.0490337
0.53943
0.0634285
0.533701
0.0762967
0.526604
0.0849209
0.518465
0.0879119
0.509484
0.089913
0.49971
0.093538
0.489218
0.0972462
0.478064
0.101475
0.466238
0.106302
0.453749
0.111665
0.440602
0.117761
0.42674
0.125195
0.412048
0.134953
0.396282
0.148912
0.378753
0.17234
0.358312
0.210276
0.329709
0.305867
0.285247
0.394831
-0.175771
-0.217391
-0.146563
-0.229029
-0.109825
-0.281774
-0.0733787
-0.289006
-0.0359503
-0.30074
0.00254469
-0.311926
0.0395713
-0.305113
0.072425
-0.280122
0.101305
-0.253212
0.12679
-0.227266
0.148611
-0.198677
0.167468
-0.173701
0.184219
-0.153669
0.199273
-0.136215
0.213076
-0.12229
0.225987
-0.111067
0.238187
-0.101959
0.249819
-0.0946793
0.260988
-0.0890593
0.271779
-0.0845282
0.282221
-0.0809547
0.292283
-0.077633
0.30195
-0.0738559
0.311024
-0.0672937
0.319225
-0.058374
0.326395
-0.049789
0.332588
-0.0415011
0.337772
-0.0335628
0.341995
-0.0259109
0.345257
-0.0185838
0.34759
-0.0115422
0.349035
-0.0048101
0.349587
0.00180246
0.349247
0.00851695
0.347919
0.0159678
0.345282
0.0262969
0.340628
0.0416118
0.332584
0.082939
0.317581
0.153471
-0.204368
0.234498
-0.244111
0.264844
-0.248399
0.299341
-0.270147
0.329287
-0.240478
0.358523
-0.233286
0.387071
-0.22195
0.412669
-0.198505
0.436205
-0.179999
0.45775
-0.160032
0.47694
-0.139471
0.494233
-0.121231
0.509745
-0.103055
0.523294
-0.0857126
0.53507
-0.0690167
0.54521
-0.0524005
0.553426
-0.0359647
0.55982
-0.0190392
0.564244
-0.00225186
0.566771
0.0153362
0.567287
0.0326635
0.565715
0.0506054
0.562319
0.0668246
0.557163
0.081453
0.550561
0.091523
0.542765
0.0957074
0.533941
0.0987361
0.524261
0.103217
0.51377
0.107736
0.50246
0.112785
0.490433
0.118328
0.477639
0.124459
0.464048
0.131352
0.449619
0.139625
0.434235
0.150339
0.417675
0.165474
0.399341
0.190676
0.37871
0.23091
0.352311
0.332271
0.311155
0.436006
-0.174662
-0.247097
-0.143982
-0.25971
-0.105273
-0.320482
-0.0669523
-0.327326
-0.0278302
-0.339862
0.0125157
-0.352272
0.0510724
-0.343669
0.0851832
-0.314232
0.114973
-0.283001
0.141108
-0.2534
0.163251
-0.220819
0.182205
-0.192655
0.19895
-0.170413
0.213908
-0.151172
0.227587
-0.135968
0.240409
-0.123888
0.25257
-0.114119
0.264219
-0.106329
0.275504
-0.100344
0.286459
-0.0954825
0.29709
-0.0915852
0.307434
-0.0879763
0.317414
-0.0838359
0.326831
-0.0767116
0.335396
-0.066939
0.342965
-0.0573589
0.349507
-0.0480429
0.355054
-0.0391105
0.359582
-0.030439
0.363117
-0.0221194
0.365699
-0.0141241
0.367313
-0.0064249
0.368011
0.00110447
0.367756
0.00877118
0.36644
0.0172835
0.363749
0.0289876
0.359009
0.0463505
0.351024
0.0909225
0.336564
0.167933
-0.205288
0.236986
-0.275808
0.268908
-0.28032
0.305334
-0.306572
0.336966
-0.27211
0.367819
-0.264138
0.397835
-0.251968
0.424571
-0.225242
0.44934
-0.204768
0.471921
-0.182613
0.492055
-0.159606
0.510142
-0.139317
0.526291
-0.119204
0.540645
-0.100067
0.553274
-0.0816449
0.564007
-0.0631337
0.573006
-0.0449638
0.580122
-0.0261548
0.585337
-0.00746667
0.588525
0.0121484
0.589711
0.0314781
0.588857
0.05146
0.586033
0.0696494
0.581447
0.0860388
0.575346
0.0976248
0.56794
0.103114
0.559406
0.10727
0.54983
0.112793
0.539293
0.118274
0.527917
0.124161
0.515658
0.130589
0.502572
0.137544
0.488629
0.145296
0.473739
0.154514
0.457761
0.166317
0.440445
0.182789
0.421237
0.209885
0.399664
0.252481
0.374173
0.357764
0.335541
0.474648
-0.173899
-0.278487
-0.141709
-0.2919
-0.100916
-0.361274
-0.0606556
-0.367587
-0.0195539
-0.380963
0.0226721
-0.394497
0.0630088
-0.384005
0.0985199
-0.349743
0.129392
-0.313873
0.156255
-0.280262
0.178872
-0.243436
0.198037
-0.211819
0.214851
-0.187227
0.229751
-0.166072
0.243325
-0.149542
0.256036
-0.136599
0.268122
-0.126205
0.279773
-0.117978
0.29108
-0.111651
0.30214
-0.106543
0.312975
-0.10242
0.323549
-0.0985497
0.333795
-0.0940821
0.343551
-0.0864676
0.352481
-0.0758696
0.36042
-0.0652979
0.367345
-0.0549682
0.373232
-0.0449979
0.378097
-0.0353035
0.381917
-0.0259395
0.384721
-0.0169284
0.386554
-0.00825878
0.387387
0.00027208
0.387227
0.00893131
0.385932
0.0185783
0.383225
0.0316948
0.378383
0.0511923
0.370469
0.0988364
0.356616
0.181785
-0.20655
0.240054
-0.309312
0.273736
-0.314001
0.312197
-0.345032
0.345425
-0.305337
0.377886
-0.2966
0.409483
-0.283565
0.437727
-0.253486
0.463625
-0.230666
0.487277
-0.206265
0.508313
-0.180641
0.527299
-0.158302
0.544317
-0.136221
0.55929
-0.115039
0.57254
-0.0948947
0.584049
-0.0746432
0.593739
-0.0546535
0.601517
-0.0339325
0.607364
-0.0133133
0.611233
0.0082802
0.613106
0.0296049
0.612925
0.0516415
0.610759
0.0718157
0.606749
0.0900489
0.601136
0.103238
0.594108
0.110142
0.585837
0.11554
0.576398
0.122232
0.565915
0.128756
0.554427
0.135649
0.542001
0.143014
0.528636
0.150909
0.514318
0.159615
0.499007
0.169826
0.482494
0.182831
0.46453
0.200755
0.444554
0.229864
0.42189
0.275148
0.396292
0.383367
0.359349
0.511605
-0.173522
-0.311515
-0.139595
-0.325826
-0.0966645
-0.404205
-0.0542995
-0.409951
-0.0111466
-0.424116
0.0331392
-0.438783
0.0754426
-0.426308
0.112468
-0.386768
0.14452
-0.345924
0.172299
-0.30804
0.19551
-0.266646
0.214993
-0.231302
0.231902
-0.204135
0.246812
-0.180981
0.260312
-0.163042
0.272921
-0.149208
0.284901
-0.138184
0.296492
-0.129569
0.307824
-0.122983
0.318943
-0.117662
0.329894
-0.11337
0.340653
-0.109309
0.351183
-0.104612
0.361251
-0.0965352
0.370531
-0.0851496
0.378838
-0.0736052
0.38612
-0.0622512
0.392372
-0.05125
0.397539
-0.0404706
0.401665
-0.0300657
0.40473
-0.0199936
0.406756
-0.0102857
0.40776
-0.000731912
0.407681
0.00900944
0.406435
0.0198244
0.403699
0.0344296
0.398783
0.056108
0.391008
0.10661
0.377782
0.195011
-0.208345
0.243553
-0.34452
0.279098
-0.349545
0.319714
-0.385647
0.354794
-0.340417
0.389005
-0.33081
0.422235
-0.316796
0.451893
-0.283144
0.479121
-0.257895
0.503827
-0.23097
0.525847
-0.202662
0.545664
-0.178118
0.563415
-0.153972
0.579211
-0.130835
0.593171
-0.108854
0.605295
-0.0867673
0.615577
-0.0649353
0.624029
-0.0423838
0.630569
-0.0198531
0.635093
0.00375697
0.637533
0.027165
0.637978
0.0511967
0.636389
0.0734052
0.632937
0.0935015
0.627864
0.108311
0.621319
0.116688
0.613334
0.123525
0.604085
0.131481
0.593638
0.139203
0.582085
0.147203
0.569501
0.155599
0.555888
0.164522
0.541219
0.174284
0.525443
0.1856
0.508401
0.199873
0.489828
0.219327
0.469171
0.250521
0.445593
0.298725
0.419423
0.409538
0.383488
0.547547
-0.173388
-0.346472
-0.137804
-0.36141
-0.092495
-0.449513
-0.047934
-0.454512
-0.00251483
-0.469534
0.0440538
-0.48535
0.0883266
-0.47058
0.12708
-0.425521
0.16045
-0.379293
0.189243
-0.336833
0.213134
-0.290537
0.23303
-0.251198
0.250174
-0.221278
0.265132
-0.19594
0.278589
-0.176498
0.291114
-0.161732
0.30299
-0.15006
0.314491
-0.141069
0.325776
-0.134268
0.336933
-0.128818
0.347967
-0.124404
0.358893
-0.120234
0.369638
-0.115357
0.380011
-0.106908
0.389619
-0.0947581
0.398276
-0.0822626
0.405919
-0.0698938
0.4125
-0.0578319
0.418011
-0.0459811
0.422435
-0.0344895
0.42577
-0.0233291
0.428029
-0.0125449
0.42919
-0.00189251
0.42923
0.00896851
0.428021
0.021034
0.425299
0.0371516
0.420336
0.0610714
0.412659
0.114288
0.400116
0.207554
-0.210404
0.247558
-0.381673
0.285068
-0.387054
0.327983
-0.428561
0.364949
-0.377383
0.400932
-0.366795
0.435913
-0.351777
0.467114
-0.314345
0.495646
-0.286427
0.521578
-0.256901
0.544587
-0.22567
0.56537
-0.198901
0.583903
-0.172504
0.600404
-0.147336
0.615037
-0.123487
0.627705
-0.0994352
0.638669
-0.0758993
0.647737
-0.0514515
0.654872
-0.0269881
0.660042
-0.00141177
0.663146
0.024061
0.664168
0.0501751
0.663186
0.0743876
0.660303
0.0963843
0.65573
0.112884
0.649596
0.122822
0.641927
0.131195
0.632899
0.140508
0.622559
0.149542
0.610976
0.158785
0.598246
0.168328
0.584374
0.178394
0.569369
0.189289
0.553136
0.201834
0.535585
0.217426
0.516401
0.238512
0.495095
0.271829
0.470694
0.323129
0.443907
0.436329
0.408641
0.582824
-0.173672
-0.383203
-0.136029
-0.399053
-0.0883384
-0.497204
-0.0413867
-0.501463
0.00635554
-0.517276
0.0552724
-0.534267
0.101827
-0.517134
0.142378
-0.466072
0.177247
-0.414161
0.207164
-0.36675
0.231846
-0.315219
0.252226
-0.271578
0.26966
-0.238711
0.284729
-0.211008
0.298161
-0.18993
0.310622
-0.174193
0.322415
-0.161852
0.333804
-0.152458
0.345021
-0.145485
0.356171
-0.139967
0.367265
-0.135498
0.378302
-0.131271
0.389252
-0.126307
0.399888
-0.117544
0.409807
-0.104678
0.418799
-0.0912548
0.426787
-0.0778811
0.433727
-0.0647728
0.439573
-0.0518267
0.444301
-0.0392182
0.447901
-0.0269294
0.450378
-0.0150227
0.451727
-0.00324114
0.451887
0.00880812
0.450739
0.0221808
0.448025
0.0398653
0.443048
0.0660476
0.435557
0.121779
0.42368
0.219432
-0.212803
0.252069
-0.420938
0.291597
-0.426582
0.336921
-0.473885
0.375837
-0.416299
0.413746
-0.404704
0.450676
-0.388708
0.483389
-0.347059
0.51336
-0.316399
0.540646
-0.284186
0.564747
-0.249771
0.586407
-0.22056
0.605786
-0.191883
0.622912
-0.164461
0.638214
-0.138789
0.651636
-0.112856
0.663168
-0.0874311
0.672836
-0.0611191
0.680535
-0.0346874
0.686186
-0.00706219
0.68986
0.0203871
0.691493
0.0485429
0.691026
0.0748551
0.688694
0.0987167
0.684639
0.116939
0.678968
0.128493
0.671695
0.138468
0.662865
0.149339
0.652647
0.159761
0.641104
0.170328
0.628261
0.181173
0.614176
0.192478
0.598828
0.204638
0.582199
0.218462
0.564113
0.235512
0.544293
0.258331
0.522332
0.293789
0.49725
0.34821
0.469841
0.463738
0.435169
0.6175
-0.174065
-0.421941
-0.134548
-0.43857
-0.0841834
-0.547568
-0.0347393
-0.550908
0.0155049
-0.56752
0.0670122
-0.585774
0.115878
-0.566
0.158429
-0.508623
0.194832
-0.450564
0.226041
-0.397959
0.251596
-0.340773
0.272583
-0.292566
0.29038
-0.256507
0.305631
-0.226259
0.319118
-0.203417
0.331512
-0.186587
0.343204
-0.173543
0.354518
-0.163772
0.365649
-0.156616
0.376741
-0.151059
0.38785
-0.146607
0.398995
-0.142416
0.410112
-0.137424
0.420978
-0.12841
0.431202
-0.114901
0.440512
-0.100565
0.448833
-0.0862023
0.456096
-0.0720365
0.462273
-0.0580034
0.467301
-0.0442463
0.471186
-0.0308143
0.473915
-0.0177518
0.475436
-0.00476293
0.475745
0.00849904
0.474678
0.0232488
0.471988
0.0425552
0.467027
0.0710088
0.459691
0.129116
0.448536
0.230586
-0.215598
0.257026
-0.462365
0.29868
-0.468236
0.34651
-0.521715
0.387485
-0.457273
0.42751
-0.44473
0.466385
-0.427582
0.500794
-0.381468
0.53231
-0.347915
0.560879
-0.312755
0.586069
-0.274961
0.60871
-0.243201
0.628956
-0.212128
0.646955
-0.18246
0.662882
-0.154716
0.67688
-0.126855
0.688989
-0.0995398
0.699208
-0.0713377
0.707459
-0.0429377
0.713752
-0.0133555
0.71794
0.0161994
0.720064
0.0464192
0.720179
0.0747408
0.718339
0.100557
0.714777
0.120502
0.709538
0.133732
0.702629
0.145376
0.694095
0.157873
0.68403
0.169825
0.67251
0.181848
0.659588
0.194094
0.645322
0.206744
0.629689
0.220271
0.612625
0.235525
0.594023
0.254115
0.57361
0.278746
0.551011
0.31639
0.525246
0.373978
0.497294
0.491693
0.463201
0.651601
-0.174689
-0.46285
-0.13302
-0.480238
-0.0799479
-0.60064
-0.0278607
-0.602994
0.0250389
-0.62042
0.0792462
-0.639981
0.130638
-0.617391
0.175287
-0.553271
0.213407
-0.488684
0.245956
-0.430508
0.272529
-0.367346
0.294178
-0.314215
0.312388
-0.274716
0.327884
-0.241756
0.341457
-0.216989
0.353853
-0.198984
0.365455
-0.185144
0.376663
-0.17498
0.387706
-0.167659
0.39874
-0.162093
0.409828
-0.157694
0.421017
-0.153605
0.432283
-0.148689
0.443385
-0.139512
0.45386
-0.125376
0.46346
-0.110165
0.472101
-0.0948435
0.479693
-0.0796278
0.486191
-0.0645018
0.49154
-0.0495962
0.495709
-0.0349835
0.498662
-0.0207047
0.500405
-0.00650641
0.500852
0.00805197
0.499882
0.024218
0.497241
0.0451964
0.492311
0.0759376
0.485193
0.136234
0.474793
0.240986
-0.218626
0.26227
-0.506008
0.306257
-0.512223
0.356768
-0.572226
0.399968
-0.500474
0.442146
-0.486907
0.483041
-0.468478
0.519299
-0.417726
0.552415
-0.38103
0.582346
-0.342686
0.608758
-0.301372
0.63253
-0.266973
0.653615
-0.233213
0.672365
-0.20121
0.689018
-0.171369
0.70361
-0.141446
0.716307
-0.112237
0.727055
-0.0820859
0.73587
-0.0517521
0.742624
-0.0201096
0.747362
0.0114614
0.749984
0.0437982
0.750564
0.0741606
0.749252
0.10187
0.74616
0.123593
0.741397
0.138495
0.734851
0.151923
0.726596
0.166128
0.716714
0.179707
0.70525
0.193313
0.6923
0.207045
0.677869
0.221175
0.661965
0.236175
0.644525
0.252965
0.625429
0.273211
0.604444
0.29973
0.581161
0.339673
0.554781
0.400355
0.526343
0.520132
0.492796
0.685149
-0.175495
-0.505981
-0.131613
-0.52412
-0.0756643
-0.656588
-0.0207295
-0.657929
0.0349606
-0.67611
0.0919905
-0.697011
0.146108
-0.671509
0.192967
-0.60013
0.232951
-0.528668
0.266954
-0.46451
0.294588
-0.394981
0.316996
-0.336622
0.33574
-0.293461
0.351517
-0.257533
0.365227
-0.230698
0.377664
-0.211421
0.389225
-0.196705
0.400333
-0.186087
0.411274
-0.1786
0.422225
-0.173044
0.433286
-0.168755
0.444496
-0.164815
0.455872
-0.160065
0.467157
-0.150798
0.477867
-0.136085
0.48775
-0.120048
0.496685
-0.103779
0.504606
-0.0875488
0.511409
-0.0713055
0.517063
-0.0552504
0.521515
-0.0394359
0.524743
-0.0239323
0.526682
-0.00844535
0.527278
0.00745591
0.526428
0.0250687
0.523847
0.047777
0.519012
0.0807736
0.512101
0.143146
0.502435
0.250651
-0.222012
0.268055
-0.552051
0.314481
-0.558648
0.367667
-0.625412
0.413335
-0.546142
0.457663
-0.531236
0.500819
-0.511634
0.53891
-0.455817
0.57373
-0.415851
0.60519
-0.374146
0.632894
-0.329076
0.657631
-0.29171
0.679748
-0.25533
0.699245
-0.220707
0.716599
-0.188722
0.73192
-0.156766
0.745149
-0.125466
0.756462
-0.093399
0.765768
-0.0610572
0.773075
-0.0274163
0.778258
0.00627837
0.781341
0.0407155
0.782439
0.0730633
0.78154
0.102769
0.778908
0.126225
0.774553
0.142851
0.768383
0.158093
0.760443
0.174068
0.750771
0.189378
0.739445
0.204638
0.726467
0.220022
0.711905
0.235736
0.695748
0.252332
0.677946
0.270766
0.658398
0.292759
0.63681
0.321319
0.612928
0.363556
0.585929
0.427356
0.556992
0.549072
0.524017
0.718129
-0.176536
-0.551456
-0.130266
-0.57039
-0.0712257
-0.715629
-0.0133766
-0.715778
0.0453256
-0.734812
0.105391
-0.757076
0.162265
-0.728383
0.211574
-0.649439
0.253492
-0.570585
0.289115
-0.500134
0.317924
-0.423791
0.341171
-0.359869
0.360492
-0.312782
0.376632
-0.273672
0.390526
-0.244592
0.403007
-0.223902
0.414571
-0.208268
0.425592
-0.197107
0.436422
-0.18943
0.447281
-0.183902
0.458292
-0.179766
0.469508
-0.17603
0.480966
-0.171523
0.492415
-0.162246
0.503351
-0.147021
0.513474
-0.130171
0.522676
-0.112981
0.530878
-0.0957515
0.538005
-0.0784324
0.543951
-0.0611962
0.548696
-0.0441817
0.552163
-0.0273996
0.55434
-0.0106226
0.555128
0.00666811
0.554373
0.0258236
0.551918
0.0502311
0.54717
0.0855209
0.540545
0.149771
0.53163
0.259566
-0.22565
0.274226
-0.600626
0.323115
-0.607537
0.379366
-0.681663
0.427329
-0.594105
0.474178
-0.578084
0.519584
-0.557041
0.55977
-0.496004
0.5963
-0.452381
0.629331
-0.407177
0.658349
-0.358093
0.684348
-0.317708
0.707376
-0.278359
0.72781
-0.24114
0.745901
-0.206813
0.761831
-0.172697
0.775674
-0.139309
0.787499
-0.105223
0.797271
-0.0708291
0.804999
-0.0351437
0.810657
0.000620639
0.814233
0.0371395
0.815693
0.0716041
0.815236
0.103226
0.813057
0.128405
0.809116
0.146792
0.803361
0.163849
0.79573
0.1817
0.78627
0.198838
0.775046
0.215864
0.762109
0.232959
0.747452
0.250393
0.731076
0.268709
0.712946
0.288897
0.692949
0.312755
0.670847
0.343421
0.646355
0.388048
0.618776
0.454933
0.589386
0.578462
0.556939
0.750578
-0.177704
-0.599402
-0.128926
-0.619167
-0.06666
-0.777895
-0.00573424
-0.776704
0.0561204
-0.796666
0.119395
-0.82035
0.179307
-0.788294
0.231111
-0.701244
0.275119
-0.614594
0.312425
-0.53744
0.342529
-0.453895
0.3667
-0.384039
0.386658
-0.332741
0.403238
-0.290252
0.41738
-0.258733
0.429967
-0.236489
0.441521
-0.219822
0.452499
-0.208085
0.463238
-0.200169
0.474013
-0.194677
0.484937
-0.19069
0.496159
-0.187252
0.507673
-0.183037
0.519251
-0.173824
0.530377
-0.158147
0.540715
-0.140509
0.55019
-0.122456
0.558664
-0.104225
0.566057
-0.0858257
0.572327
-0.0674665
0.577345
-0.0491992
0.581077
-0.0311326
0.583459
-0.0130042
0.584433
0.00569384
0.583848
0.0264094
0.581491
0.0525885
0.57691
0.090102
0.570545
0.156137
0.562398
0.267712
-0.229605
0.280796
-0.651817
0.332358
-0.659098
0.391654
-0.740959
0.442333
-0.644784
0.491607
-0.627359
0.539535
-0.604968
0.581718
-0.538187
0.620184
-0.490846
0.654892
-0.441885
0.685384
-0.388585
0.712539
-0.344863
0.7367
-0.302519
0.757996
-0.262436
0.776874
-0.225691
0.793429
-0.189251
0.807891
-0.153771
0.820215
-0.117547
0.830469
-0.0810822
0.838688
-0.0433631
0.844738
-0.00542879
0.848695
0.0331828
0.850581
0.0697191
0.850517
0.10329
0.848731
0.13019
0.845205
0.150318
0.839798
0.169256
0.832479
0.18902
0.823301
0.208016
0.812237
0.226928