/*--------------------------------*- C++ -*----------------------------------*\
| =========                 |                                                 |
| \\      /  F ield         | OpenFOAM: The Open Source CFD Toolbox           |
|  \\    /   O peration     | Version:  3.0.0                                 |
|   \\  /    A nd           | Web:      www.OpenFOAM.org                      |
|    \\/     M anipulation  |                                                 |
\*---------------------------------------------------------------------------*/
FoamFile
{
    version     2.0;
    format      ascii;
    class       volVectorField;
    location    "100";
    object      U;
}
// * * * * * * * * * * * * * * * * * * * * * * * * * * * * * * * * * * * * * //

dimensions      [0 1 -1 0 0 0 0];

internalField   nonuniform List<vector> 
10720
(
(0.1288 29.4534 4.88374e-18)
(2.01246 31.7077 -4.54112e-18)
(4.33983 33.8555 0)
(6.98503 35.4724 -3.1292e-16)
(9.88321 36.6639 3.47348e-16)
(12.9649 37.3912 2.57583e-16)
(16.0709 37.5519 3.84386e-16)
(19.1084 37.1934 0)
(21.9999 36.3812 0)
(24.6687 35.1556 0)
(27.0875 33.6048 1.19286e-16)
(29.2384 31.8061 0)
(31.0893 29.7737 2.08371e-15)
(32.649 27.562 0)
(33.9097 25.2042 0)
(34.8857 22.7491 0)
(35.5641 20.22 -3.46461e-15)
(35.9505 17.6721 -5.19544e-15)
(36.0281 15.1295 4.59552e-15)
(35.8077 12.6516 0)
(35.2707 10.2709 3.69009e-15)
(34.4555 8.05796 -7.15229e-15)
(33.4085 6.06254 3.50809e-15)
(32.2367 4.34265 -1.04328e-16)
(31.1389 2.94356 0)
(30.2019 1.81182 1.28836e-15)
(29.3292 0.859208 1.966e-17)
(28.4212 0.0443371 -5.2489e-16)
(27.4408 -0.657004 -1.8184e-15)
(26.3831 -1.2585 -6.20052e-15)
(25.2489 -1.76622 2.52595e-15)
(24.0399 -2.18366 4.0617e-15)
(22.7522 -2.51039 2.87991e-15)
(21.3751 -2.74676 6.71486e-15)
(19.8567 -2.88684 -7.76906e-16)
(18.16 -2.92759 4.64371e-18)
(15.9687 -2.81277 -5.69354e-17)
(13.4529 -2.53792 -4.05234e-14)
(7.81192 -2.00132 6.75425e-14)
(-1.38394 27.0291 -5.49121e-18)
(-2.6397 24.2793 -2.31692e-17)
(-3.56619 21.1599 7.86583e-17)
(-4.02354 17.5117 -2.15673e-16)
(-3.85168 13.7206 -6.54398e-16)
(-2.99917 9.90472 1.07309e-15)
(-1.50368 6.33871 5.09951e-15)
(0.402433 3.35128 3.19383e-15)
(2.40636 0.979507 0)
(4.58474 -1.12428 0)
(6.86615 -2.76067 3.20351e-15)
(9.01713 -3.85863 1.19556e-15)
(10.9395 -4.52359 -1.9969e-15)
(12.6317 -4.87767 1.6856e-15)
(14.1172 -5.02685 2.88139e-15)
(15.4277 -5.03929 1.91201e-15)
(16.5916 -4.9633 2.54264e-15)
(17.6408 -4.83147 1.76571e-15)
(18.6059 -4.66454 0)
(19.5101 -4.46675 0)
(20.3716 -4.24101 -2.92506e-15)
(21.2018 -3.9767 -1.56956e-16)
(22.0027 -3.66103 2.46774e-15)
(22.7459 -3.26262 -2.0529e-15)
(23.366 -2.77541 2.338e-17)
(23.8436 -2.23743 0)
(24.2038 -1.67428 7.64164e-16)
(24.4639 -1.10332 0)
(24.6286 -0.534436 0)
(24.7033 0.0211562 6.38753e-16)
(24.6708 0.55351 0)
(24.5318 1.05638 -2.40756e-15)
(24.3025 1.52379 -4.66908e-15)
(24.0009 1.95131 -2.33701e-14)
(23.6251 2.33509 9.48807e-15)
(23.1699 2.67619 -3.71518e-17)
(22.5175 2.96878 0)
(21.6258 3.17813 2.19265e-14)
(18.9885 3.37284 2.62526e-14)
(7.05616 25.6632 -1.51863e-17)
(9.04769 27.3843 9.19694e-18)
(11.4599 28.9229 0)
(14.2152 30.176 0)
(17.1604 31.0885 -9.77549e-17)
(20.2986 31.6006 -2.46697e-16)
(23.51 31.6704 0)
(26.6572 31.3243 0)
(29.6843 30.5765 5.36368e-16)
(32.504 29.4811 0)
(35.0614 28.0988 2.0755e-15)
(37.3331 26.4945 0)
(39.3195 24.7526 7.49438e-16)
(41.0219 22.9033 -7.39114e-16)
(42.4301 20.9697 1.47976e-15)
(43.5216 18.9787 -2.96018e-15)
(44.2985 16.9425 3.2052e-15)
(44.7522 14.8871 2.88782e-15)
(44.8858 12.8235 2.81581e-15)
(44.6845 10.7827 1.69735e-16)
(44.1512 8.79152 -2.92057e-15)
(43.2788 6.90506 2.73603e-15)
(42.0935 5.16463 -1.52782e-16)
(40.634 3.62928 0)
(39.0133 2.34937 0)
(37.3792 1.27299 0)
(35.7884 0.324108 1.01975e-16)
(34.2318 -0.51004 -2.14367e-17)
(32.7084 -1.23263 1.31659e-15)
(31.2095 -1.85124 3.60022e-17)
(29.7168 -2.3691 -2.8387e-17)
(28.2111 -2.78812 -6.27486e-17)
(26.672 -3.11098 1.92847e-15)
(25.0818 -3.33923 -2.21267e-15)
(23.3958 -3.47154 3.18903e-18)
(21.5923 -3.50724 2.78736e-15)
(19.393 -3.40064 0)
(17.0404 -3.15928 1.1298e-14)
(11.4079 -2.36672 3.55182e-14)
(5.36145 23.8181 2.07445e-17)
(3.87404 21.7561 -6.98117e-17)
(2.54183 19.3311 -7.59366e-16)
(1.49736 16.5604 8.9924e-16)
(0.919248 13.537 0)
(0.899353 10.3864 -1.72349e-15)
(1.48358 7.30284 -1.20065e-15)
(2.6109 4.54255 -1.00259e-14)
(4.08636 2.16134 3.53608e-15)
(5.80204 0.147718 -2.68192e-15)
(7.666 -1.36831 3.3518e-15)
(9.52295 -2.40582 -9.59579e-16)
(11.2787 -3.07321 0)
(12.8944 -3.4704 -6.90418e-16)
(14.3585 -3.68211 4.99591e-17)
(15.6796 -3.76363 -1.64071e-15)
(16.8724 -3.76121 0)
(17.9589 -3.70093 0)
(18.9625 -3.60267 -1.95864e-16)
(19.9048 -3.4659 1.87775e-16)
(20.8013 -3.28938 -2.45321e-15)
(21.6643 -3.05793 -2.91219e-16)
(22.4964 -2.7517 1.34962e-16)
(23.2746 -2.33473 1.85297e-15)
(23.945 -1.82017 -1.68051e-15)
(24.4831 -1.27383 -1.45908e-15)
(24.9054 -0.724845 0)
(25.2238 -0.183727 0)
(25.4424 0.343067 0)
(25.5605 0.84661 8.54622e-18)
(25.6051 1.31952 0)
(25.5845 1.75698 0)
(25.4912 2.1588 7.97575e-15)
(25.3173 2.52407 7.798e-15)
(25.0536 2.85485 -7.74988e-15)
(24.7099 3.15732 7.84441e-15)
(24.1853 3.43085 -1.59286e-14)
(23.6882 3.67545 -1.66701e-14)
(21.6937 3.75328 -1.8335e-14)
(8.23121 23.639 -4.04342e-18)
(9.68185 25.1514 -3.69542e-17)
(11.4327 26.6083 2.66385e-17)
(13.4318 27.9342 -2.7237e-18)
(15.6208 29.0124 -1.01897e-16)
(17.9996 29.8183 3.9576e-16)
(20.4908 30.313 -2.88831e-16)
(23.0168 30.4618 -3.63078e-16)
(25.5227 30.2653 2.87852e-18)
(27.9506 29.737 -5.1964e-16)
(30.249 28.8992 4.67701e-16)
(32.3865 27.7811 -1.30621e-15)
(34.3373 26.4152 -6.14303e-16)
(36.0861 24.8341 0)
(37.6292 23.0701 -1.52098e-15)
(38.9795 21.1493 3.04302e-15)
(40.1329 19.0989 0)
(41.0684 16.9642 -5.70166e-15)
(41.7759 14.7744 -2.85041e-15)
(42.2281 12.5808 3.27014e-16)
(42.4122 10.4192 -3.24402e-16)
(42.3068 8.35521 -1.43202e-16)
(41.9126 6.43774 -2.00819e-15)
(41.2376 4.72771 9.88861e-16)
(40.334 3.27081 0)
(39.281 2.01319 8.1809e-16)
(38.1032 0.886193 -9.40298e-17)
(36.7985 -0.111275 0)
(35.3854 -0.977982 1.13411e-15)
(33.8918 -1.71868 1.98181e-15)
(32.3376 -2.33594 -3.18742e-15)
(30.7345 -2.83414 -2.4216e-15)
(29.0826 -3.21755 -6.38783e-17)
(27.375 -3.49103 -1.86106e-15)
(25.5726 -3.65524 -3.6263e-16)
(23.6545 -3.70776 -2.38202e-15)
(21.3644 -3.61207 0)
(18.9442 -3.33207 9.09219e-15)
(13.7859 -2.65241 -5.26039e-14)
(7.03335 22.0351 -2.59232e-17)
(5.97289 20.2708 -7.95848e-17)
(5.06542 18.1829 3.1473e-16)
(4.31578 15.8306 0)
(3.87578 13.2933 5.36361e-16)
(3.79716 10.6317 0)
(4.1167 7.97226 3.5676e-15)
(4.82675 5.49687 2.25428e-15)
(5.86796 3.29336 2.25685e-15)
(7.18073 1.4011 0)
(8.65907 -0.123235 -3.36831e-15)
(10.1876 -1.2852 -7.39606e-16)
(11.6877 -2.13752 3.37422e-15)
(13.1146 -2.73747 0)
(14.4459 -3.13771 -1.65476e-15)
(15.6771 -3.38385 -5.09121e-16)
(16.8131 -3.51557 2.23037e-15)
(17.8659 -3.56066 1.2097e-15)
(18.851 -3.53904 3.57359e-16)
(19.7847 -3.45765 -1.83265e-16)
(20.6794 -3.32035 2.24317e-15)
(21.5442 -3.11937 0)
(22.3793 -2.842 0)
(23.1655 -2.46694 2.28331e-17)
(23.8596 -2.00726 0)
(24.4384 -1.51097 2.92751e-15)
(24.9118 -0.997146 -4.30204e-17)
(25.291 -0.473976 -3.11624e-16)
(25.5797 0.0505568 0)
(25.7797 0.566417 -5.51332e-16)
(25.8953 1.06502 1.07511e-15)
(25.9325 1.54083 0)
(25.8945 1.98834 -4.0132e-15)
(25.7827 2.40245 0)
(25.5867 2.78156 0)
(25.3085 3.12676 3.97062e-17)
(24.8391 3.43951 -1.76425e-18)
(24.3133 3.68198 1.66793e-14)
(22.5439 3.77324 3.56381e-14)
(10.7963 21.6855 -2.22313e-17)
(12.1363 22.9779 -2.89624e-17)
(13.7324 24.226 3.49655e-17)
(15.556 25.3543 2.92071e-17)
(17.5551 26.2736 0)
(19.7355 26.965 0)
(22.0373 27.3858 -4.40072e-16)
(24.3966 27.5037 5.92034e-16)
(26.7659 27.3134 0)
(29.0888 26.8197 -7.74874e-16)
(31.3133 26.0389 -1.05718e-15)
(33.4009 24.9956 -9.81527e-16)
(35.317 23.7232 1.22124e-15)
(37.036 22.257 1.13346e-15)
(38.5412 20.6307 0)
(39.8099 18.8838 1.80718e-15)
(40.8174 17.0572 6.29439e-16)
(41.5615 15.1784 5.07518e-15)
(42.0423 13.2724 3.05087e-16)
(42.2671 11.368 -3.02919e-16)
(42.2447 9.49559 2.51684e-15)
(41.99 7.69963 -4.1009e-16)
(41.5296 6.0208 2.20318e-15)
(40.8974 4.50413 8.85454e-16)
(40.1464 3.18213 -5.1024e-17)
(39.3317 2.01817 -7.38246e-16)
(38.4554 0.958184 5.15751e-18)
(37.4835 -0.00373986 -5.17661e-18)
(36.3967 -0.864598 -1.08233e-15)
(35.189 -1.62445 -2.5649e-17)
(33.8587 -2.27903 1.54198e-15)
(32.4101 -2.82296 -2.28137e-15)
(30.8484 -3.25363 -1.50996e-15)
(29.1786 -3.56937 3.12861e-17)
(27.3758 -3.76721 3.21566e-16)
(25.4286 -3.83994 0)
(23.1054 -3.75565 -4.99171e-15)
(20.6083 -3.43261 -7.89684e-15)
(15.7483 -2.813 2.16884e-14)
(9.66008 20.3252 -3.86335e-17)
(8.63236 18.8416 1.20399e-16)
(7.71626 17.0848 4.67508e-16)
(6.93284 15.0889 0)
(6.4131 12.927 -4.80826e-16)
(6.19753 10.6388 0)
(6.3154 8.32346 -2.93955e-15)
(6.76048 6.1247 -1.0279e-16)
(7.4968 4.11567 1.64812e-15)
(8.48412 2.33836 1.48345e-15)
(9.64422 0.84704 3.87527e-17)
(10.8957 -0.343001 2.53503e-15)
(12.1754 -1.25727 -1.70885e-15)
(13.4366 -1.93453 5.41816e-16)
(14.6496 -2.41399 1.93169e-15)
(15.7996 -2.73493 2.20193e-15)
(16.8821 -2.93224 -2.03376e-15)
(17.8996 -3.03379 4.31498e-18)
(18.8609 -3.05989 0)
(19.7765 -3.02072 2.44821e-15)
(20.6556 -2.92056 1.3368e-16)
(21.5045 -2.75476 -2.13114e-15)
(22.3226 -2.51278 0)
(23.0935 -2.17825 2.15126e-17)
(23.7814 -1.75863 0)
(24.3632 -1.29209 -1.33654e-15)
(24.8444 -0.801226 0)
(25.235 -0.297991 2.9245e-16)
(25.5389 0.207301 -1.27806e-17)
(25.7586 0.70402 8.33327e-18)
(25.8985 1.18352 -9.71387e-16)
(25.9641 1.63835 -3.0949e-17)
(25.9592 2.0639 0)
(25.8865 2.45759 3.75194e-15)
(25.7377 2.81997 5.88602e-17)
(25.5141 3.15164 -7.61357e-15)
(25.1139 3.45607 3.13567e-14)
(24.6369 3.66808 6.03837e-17)
(23.0591 3.75651 0)
(12.3485 20.1916 -3.20345e-17)
(13.4864 21.3381 -2.20646e-17)
(14.8493 22.468 6.83395e-17)
(16.399 23.5162 -1.37972e-16)
(18.0913 24.4012 1.60758e-17)
(19.9475 25.1162 -5.69302e-17)
(21.9179 25.6214 1.77388e-16)
(23.9531 25.8825 0)
(26.022 25.8898 8.16176e-16)
(28.0775 25.6376 4.34505e-16)
(30.0781 25.1277 0)
(31.9897 24.3717 9.43886e-16)
(33.7787 23.3879 -5.02144e-16)
(35.4179 22.1971 1.36763e-15)
(36.8861 20.8214 0)
(38.1623 19.2852 -2.38713e-15)
(39.2405 17.5999 2.21378e-15)
(40.1055 15.7949 -1.68221e-16)
(40.7422 13.9046 0)
(41.1359 11.9736 2.38244e-15)
(41.2785 10.0472 -2.41169e-15)
(41.1706 8.18264 -1.20117e-16)
(40.8312 6.43223 -1.80474e-15)
(40.297 4.84707 -1.6402e-15)
(39.6285 3.46228 0)
(38.8918 2.25093 0)
(38.1114 1.16078 -1.61275e-16)
(37.2752 0.177065 -1.69825e-17)
(36.3721 -0.702987 1.01395e-15)
(35.3922 -1.48402 -2.4228e-17)
(34.3189 -2.1653 2.41829e-17)
(33.1329 -2.74363 2.13005e-15)
(31.8146 -3.21433 0)
(30.3488 -3.57231 3.13958e-15)
(28.7023 -3.81002 -7.22445e-18)
(26.8624 -3.91324 0)
(24.6182 -3.85119 -2.49908e-17)
(22.1397 -3.5054 0)
(17.5086 -2.90199 -1.87529e-14)
(11.3784 18.9915 4.91577e-17)
(10.4989 17.6953 -2.63018e-16)
(9.69445 16.1603 2.82704e-16)
(8.97833 14.4188 3.98864e-16)
(8.4667 12.5389 -1.61966e-15)
(8.19036 10.5399 -2.00982e-15)
(8.18219 8.49979 2.47269e-15)
(8.44501 6.53388 -2.80024e-15)
(8.96122 4.70765 -1.28884e-15)
(9.70507 3.0623 -1.16674e-15)
(10.6175 1.64201 2.2442e-15)
(11.6382 0.465633 -2.16549e-15)
(12.7184 -0.47893 -9.83535e-16)
(13.8164 -1.21595 9.55077e-16)
(14.9015 -1.77089 -2.16621e-15)
(15.9553 -2.17334 4.03713e-16)
(16.9677 -2.44955 0)
(17.9351 -2.62254 -1.68572e-15)
(18.8603 -2.71025 6.21012e-16)
(19.7489 -2.72347 -2.5482e-15)
(20.6065 -2.66679 0)
(21.4367 -2.53818 1.8497e-15)
(22.2375 -2.3304 1.58253e-15)
(22.9941 -2.03267 -1.41008e-15)
(23.6759 -1.65095 0)
(24.2602 -1.21715 -1.27822e-15)
(24.7485 -0.754825 0)
(25.1482 -0.275944 0)
(25.4627 0.209633 0)
(25.6943 0.691458 4.94411e-16)
(25.847 1.16043 0)
(25.926 1.60951 0)
(25.9352 2.03391 -3.62727e-15)
(25.878 2.4294 -3.5557e-15)
(25.7474 2.79475 0)
(25.5461 3.12813 -7.26578e-15)
(25.1809 3.43249 6.57707e-17)
(24.7456 3.62896 0)
(23.3576 3.70751 -1.59018e-14)
(13.8345 18.8842 4.50687e-17)
(14.8652 19.9008 -3.30366e-17)
(16.0955 20.9098 0)
(17.4896 21.85 7.57335e-18)
(19.0046 22.6494 7.42807e-17)
(20.6709 23.3071 5.37275e-17)
(22.4452 23.7852 4.68385e-17)
(24.2874 24.0528 -3.92477e-16)
(26.1757 24.0976 -9.78486e-17)
(28.0707 23.9098 7.792e-16)
(29.9363 23.4866 -2.88402e-16)
(31.7423 22.8323 6.78417e-16)
(33.4549 21.9582 3.39557e-16)
(35.0454 20.8796 2.09318e-16)
(36.4884 19.6155 0)
(37.7612 18.1883 -5.05014e-16)
(38.8402 16.6288 -1.12887e-15)
(39.7022 14.9732 -4.09075e-15)
(40.3328 13.2528 1.19101e-15)
(40.7242 11.4981 -1.53677e-15)
(40.8731 9.74362 -2.37904e-16)
(40.7841 8.03087 0)
(40.4735 6.40355 1.61685e-15)
(39.9732 4.90464 1.01542e-16)
(39.3343 3.56719 -4.32173e-17)
(38.6142 2.37864 -5.90103e-16)
(37.8421 1.3012 1.32548e-16)
(37.0185 0.323113 2.64485e-16)
(36.1437 -0.555601 -9.4747e-16)
(35.2211 -1.33818 -4.51669e-17)
(34.2473 -2.02607 1.35919e-15)
(33.21 -2.61775 1.92143e-15)
(32.0867 -3.11038 0)
(30.8486 -3.49859 -4.93863e-17)
(29.4411 -3.77258 -1.9271e-16)
(27.829 -3.91211 0)
(25.7942 -3.88339 8.87597e-15)
(23.4773 -3.5371 0)
(19.114 -2.95348 1.68926e-14)
(12.9472 17.8238 -4.78551e-17)
(12.1394 16.686 1.1484e-16)
(11.3869 15.3357 0)
(10.7035 13.8002 0)
(10.1922 12.1441 7.11997e-16)
(9.87375 10.3774 3.42862e-15)
(9.77971 8.56143 0)
(9.91626 6.79332 -2.13854e-15)
(10.2734 5.1328 -2.04218e-15)
(10.8327 3.61602 2.02496e-15)
(11.5503 2.27866 -5.69512e-17)
(12.3807 1.14044 9.1229e-16)
(13.2872 0.196061 2.76118e-17)
(14.2357 -0.568108 2.49765e-15)
(15.1977 -1.16705 2.3186e-15)
(16.1542 -1.62241 -2.21217e-15)
(17.0924 -1.95394 3.3065e-16)
(18.0045 -2.1797 -6.26924e-16)
(18.8884 -2.31505 2.96381e-16)
(19.7453 -2.37081 1.85384e-15)
(20.5775 -2.35207 2.48216e-16)
(21.3858 -2.25834 -2.10776e-16)
(22.1667 -2.08462 -1.36646e-15)
(22.9067 -1.82392 0)
(23.5793 -1.48105 7.93597e-17)
(24.1626 -1.08179 2.33427e-15)
(24.6544 -0.648817 -1.69709e-17)
(25.0602 -0.194598 1.68106e-17)
(25.3823 0.270639 0)
(25.6225 0.735829 -4.64044e-16)
(25.7845 1.19115 0)
(25.873 1.62885 0)
(25.8916 2.04317 3.35366e-15)
(25.8436 2.42955 3.43562e-15)
(25.7223 2.78653 0)
(25.5305 3.11082 6.77273e-15)
(25.1814 3.4051 -2.79276e-14)
(24.7627 3.5794 1.06242e-16)
(23.5214 3.63542 1.45957e-14)
(15.0415 17.7732 4.8984e-18)
(15.9695 18.6865 -3.18367e-17)
(17.0771 19.6007 6.88563e-17)
(18.3269 20.4583 -6.72032e-17)
(19.677 21.1952 -4.04437e-17)
(21.1635 21.8162 0)
(22.747 22.2876 -9.87415e-17)
(24.3937 22.5811 1.27735e-17)
(26.0906 22.6855 -2.28707e-16)
(27.804 22.5894 -4.64387e-16)
(29.5049 22.2862 0)
(31.1686 21.7754 -1.21014e-15)
(32.7645 21.0616 -1.08677e-15)
(34.2654 20.1535 -2.66637e-15)
(35.6461 19.0643 0)
(36.8816 17.8114 -1.66273e-15)
(37.9499 16.4148 -1.7515e-15)
(38.8333 14.893 1.91162e-15)
(39.5141 13.2732 -1.87894e-15)
(39.9776 11.5909 1.70938e-15)
(40.2139 9.88589 2.0895e-16)
(40.2207 8.2058 -1.78235e-15)
(40.0079 6.59844 0)
(39.6005 5.10792 -1.47853e-15)
(39.0408 3.76619 8.63205e-17)
(38.3786 2.5668 6.17534e-16)
(37.6441 1.47933 0)
(36.8433 0.492245 -2.14843e-17)
(35.9811 -0.394529 3.93519e-17)
(35.0668 -1.18397 1.41638e-15)
(34.1062 -1.87794 -1.20919e-15)
(33.1004 -2.47633 -1.83542e-15)
(32.0431 -2.97799 1.22022e-15)
(30.9203 -3.38008 -5.73471e-17)
(29.6858 -3.67503 1.80085e-16)
(28.3023 -3.84201 -2.09513e-15)
(26.5428 -3.84675 -4.34828e-15)
(24.5217 -3.51506 9.61781e-17)
(20.5363 -2.96869 -5.27491e-17)
(14.237 16.8229 2.11657e-17)
(13.5017 15.8096 2.22873e-16)
(12.8044 14.6052 2.70017e-16)
(12.1585 13.2343 -5.30168e-16)
(11.6572 11.7585 -1.96973e-15)
(11.3157 10.1811 6.75773e-16)
(11.1629 8.54943 1.67944e-15)
(11.2099 6.94983 4.41346e-15)
(11.4504 5.43815 1.75916e-15)
(11.8696 4.04182 -1.66869e-15)
(12.4342 2.79119 -4.19722e-17)
(13.1096 1.70595 -8.1814e-16)
(13.8681 0.782454 0)
(14.6824 0.0123612 -2.75276e-17)
(15.5282 -0.611691 -1.42155e-15)
(16.3881 -1.1044 6.51275e-16)
(17.2486 -1.48041 -6.3787e-16)
(18.0997 -1.75301 0)
(18.936 -1.93353 1.06989e-15)
(19.7555 -2.03115 -1.969e-15)
(20.5574 -2.05088 0)
(21.3402 -1.99304 1.64696e-15)
(22.099 -1.85407 0)
(22.8209 -1.62976 -8.23418e-17)
(23.4825 -1.32467 8.13876e-17)
(24.0629 -0.959775 -1.11055e-15)
(24.5569 -0.556109 -1.83677e-17)
(24.9676 -0.126828 -1.6112e-17)
(25.2968 0.317305 7.20307e-18)
(25.5455 0.76509 -4.57877e-16)
(25.7165 1.20636 -8.67929e-16)
(25.8141 1.63282 1.63975e-15)
(25.8416 2.03839 5.1448e-17)
(25.8019 2.41788 2.62751e-17)
(25.6884 2.76897 0)
(25.5036 3.0863 1.02403e-16)
(25.166 3.37147 1.28241e-14)
(24.7567 3.52542 -9.38242e-18)
(23.6249 3.55534 1.35937e-14)
(16.0994 16.7964 8.7288e-18)
(16.95 17.6211 5.57e-17)
(17.9639 18.4504 0)
(19.1037 19.2304 -2.6696e-17)
(20.328 19.9033 -8.84716e-17)
(21.6758 20.4776 0)
(23.1113 20.9224 -8.08264e-18)
(24.6049 21.2125 4.26948e-16)
(26.1493 21.3377 -6.95615e-16)
(27.7166 21.2861 2.13445e-16)
(29.2826 21.0494 3.70009e-16)
(30.8274 20.624 1.46141e-15)
(32.3242 20.0101 1.07332e-15)
(33.7477 19.2116 1.36333e-15)
(35.0735 18.2369 3.63191e-16)
(36.2758 17.0989 1.23064e-15)
(37.3317 15.8144 1.68793e-15)
(38.2179 14.4074 1.57779e-15)
(38.9131 12.9073 -1.1599e-15)
(39.4022 11.3449 -3.58289e-15)
(39.6758 9.7543 0)
(39.7322 8.1751 8.44792e-17)
(39.5799 6.64914 1.34885e-15)
(39.2401 5.2163 1.40446e-15)
(38.7476 3.90688 -7.85845e-17)
(38.144 2.72188 -5.45712e-16)
(37.4568 1.64073 3.72861e-18)
(36.6943 0.654739 -2.5894e-16)
(35.8612 -0.234628 2.65559e-17)
(34.966 -1.02847 -2.64054e-15)
(34.0157 -1.72782 -7.95805e-18)
(33.015 -2.33172 -3.05113e-17)
(31.9653 -2.83869 -1.176e-15)
(30.8665 -3.24623 -5.72562e-17)
(29.6931 -3.54873 -9.27462e-17)
(28.4343 -3.72767 4.08345e-15)
(26.892 -3.75352 -4.20168e-15)
(25.206 -3.43834 -5.95003e-15)
(21.7142 -2.94133 1.45526e-14)
(15.3572 15.9401 -8.87952e-17)
(14.6772 15.0307 -3.08578e-16)
(14.0236 13.9482 -2.16076e-16)
(13.4093 12.7139 -5.15215e-16)
(12.9194 11.3871 1.13881e-15)
(12.5652 9.96687 -4.92478e-17)
(12.3725 8.48984 -4.36652e-15)
(12.3548 7.03418 -1.52234e-15)
(12.5084 5.65411 1.10027e-17)
(12.8204 4.3691 0)
(13.2648 3.2039 -1.445e-15)
(13.8142 2.17761 1.38649e-15)
(14.4477 1.28804 -1.35665e-15)
(15.144 0.528692 -6.89852e-16)
(15.8832 -0.104115 6.17127e-16)
(16.6505 -0.619335 6.11092e-16)
(17.4331 -1.02624 2.28573e-15)
(18.2204 -1.33457 -5.49514e-16)
(19.0054 -1.5526 -9.98696e-16)
(19.7836 -1.68688 0)
(20.5516 -1.74147 -1.69569e-15)
(21.3057 -1.7175 -1.35965e-15)
(22.0403 -1.61246 -1.21518e-17)
(22.7425 -1.42364 -1.68469e-16)
(23.3911 -1.15537 -7.23768e-17)
(23.9662 -0.824829 1.18403e-15)
(24.4604 -0.451276 -3.12266e-17)
(24.8745 -0.0479366 2.72892e-16)
(25.2093 0.374054 6.39591e-17)
(25.4654 0.8033 4.21764e-16)
(25.6448 1.2294 -1.00919e-17)
(25.751 1.64363 -3.29055e-15)
(25.787 2.03925 -3.07488e-15)
(25.7554 2.41032 -3.06907e-15)
(25.6497 2.75381 -9.55694e-17)
(25.4719 3.06268 4.69685e-17)
(25.1455 3.33712 -1.23838e-14)
(24.7466 3.47152 -1.24009e-14)
(23.7068 3.47563 -1.24988e-14)
(17.0149 15.9327 -3.04199e-17)
(17.799 16.6818 -2.3835e-17)
(18.7325 17.4381 -1.36248e-16)
(19.7783 18.1511 4.61525e-16)
(20.8951 18.7677 -1.70224e-16)
(22.1232 19.2997 7.45197e-17)
(23.4297 19.7189 4.13412e-17)
(24.7881 20.0029 0)
(26.1951 20.1437 2.04529e-16)
(27.6267 20.1295 9.4077e-18)
(29.0634 19.9514 -2.94686e-16)
(30.49 19.6045 -1.32376e-15)
(31.883 19.0863 -5.82387e-16)
(33.2198 18.3973 0)
(34.478 17.5417 0)
(35.6331 16.5284 0)
(36.6609 15.3714 0)
(37.5394 14.0878 -1.53625e-15)
(38.2481 12.6991 1.51962e-15)
(38.7692 11.2335 1.48589e-15)
(39.0901 9.72501 -1.17082e-15)
(39.2057 8.21341 1.03759e-15)
(39.1207 6.74025 -1.05456e-15)
(38.8519 5.345 -7.59973e-17)
(38.4284 4.05723 -3.30976e-17)
(37.8855 2.88192 5.52061e-16)
(37.2497 1.80502 1.13503e-16)
(36.5318 0.819811 0)
(35.7372 -0.0717863 0)
(34.8739 -0.869703 3.73162e-17)
(33.948 -1.57428 0)
(32.9636 -2.18398 1.51387e-15)
(31.9223 -2.6964 -1.05966e-15)
(30.8271 -3.10814 -1.10452e-15)
(29.6619 -3.41371 1.42176e-16)
(28.4369 -3.59472 -1.97172e-15)
(26.9955 -3.62746 4.02535e-15)
(25.558 -3.31723 1.15861e-14)
(22.6007 -2.86668 -1.39616e-14)
(16.327 15.1558 0)
(15.695 14.3335 9.07584e-17)
(15.0803 13.3531 4.05472e-16)
(14.4954 12.2335 -1.75898e-15)
(14.019 11.0319 1.49501e-15)
(13.6589 9.74388 -1.18032e-15)
(13.4394 8.39889 3.84408e-18)
(13.3746 7.0679 1.20388e-15)
(13.4626 5.80305 1.25163e-15)
(13.6919 4.61951 0)
(14.0415 3.53699 6.16741e-16)
(14.4888 2.5719 -1.88013e-15)
(15.0175 1.72292 3.04995e-15)
(15.6113 0.985678 5.77974e-16)
(16.2544 0.357328 -1.16867e-15)
(16.9349 -0.168262 -1.11766e-15)
(17.6415 -0.595715 -1.05977e-15)
(18.3641 -0.930774 0)
(19.0951 -1.17951 0)
(19.8287 -1.34642 0)
(20.5595 -1.43363 1.59301e-15)
(21.2823 -1.44187 0)
(21.9904 -1.36977 -1.18372e-15)
(22.6713 -1.2158 -1.60235e-16)
(23.3051 -0.983403 -1.14944e-15)
(23.8726 -0.686737 -1.05451e-15)
(24.3651 -0.343471 0)
(24.7813 0.0333184 -2.30096e-16)
(25.1207 0.432582 -6.77184e-17)
(25.3833 0.84273 1.33411e-17)
(25.5705 1.25298 1.60684e-15)
(25.6851 1.65429 -1.73335e-17)
(25.7294 2.03948 2.99719e-15)
(25.7059 2.40186 -2.94166e-15)
(25.608 2.73754 0)
(25.4374 3.03779 -9.31968e-17)
(25.1226 3.30127 3.86649e-17)
(24.7359 3.41782 1.17985e-14)
(23.781 3.39777 -8.65364e-17)
(17.8205 15.1591 3.19973e-17)
(18.5487 15.8423 0)
(19.4145 16.5341 2.79956e-16)
(20.3814 17.1868 -2.41608e-16)
(21.4085 17.7515 7.27518e-17)
(22.5365 18.2421 -7.0007e-17)
(23.7343 18.6327 -3.85967e-18)
(24.9778 18.9039 -4.64534e-17)
(26.2669 19.0486 0)
(27.5805 19.0563 -2.33727e-16)
(28.9029 18.9184 -2.62127e-16)
(30.2225 18.6287 2.59007e-16)
(31.5192 18.1833 1.11534e-15)
(32.7738 17.5802 4.852e-16)
(33.9657 16.8205 -1.46753e-15)
(35.0715 15.9096 -1.08188e-15)
(36.0684 14.8574 8.60711e-16)
(36.9339 13.6787 6.50693e-16)
(37.6459 12.3945 -3.21616e-16)
(38.1853 11.0301 3.21505e-16)
(38.5385 9.61616 8.26995e-16)
(38.6986 8.1882 1.51401e-16)
(38.6681 6.78426 -1.39041e-16)
(38.4602 5.44107 -9.09171e-16)
(38.0985 4.18693 0)
(37.6123 3.03018 -4.55814e-16)
(37.0261 1.96341 -2.11836e-16)
(36.3521 0.982967 -1.86189e-16)
(35.5972 0.091804 -6.5238e-16)
(34.7692 -0.708446 2.28761e-15)
(33.8743 -1.41721 8.46959e-16)
(32.916 -2.03219 -2.21784e-17)
(31.8948 -2.55012 3.71113e-17)
(30.8124 -2.9666 0)
(29.6534 -3.27535 -4.47521e-17)
(28.4332 -3.45626 0)
(27.0183 -3.48937 0)
(25.6927 -3.17193 -5.60194e-15)
(23.2049 -2.75029 8.89211e-17)
(17.1784 14.4506 -1.04751e-16)
(16.5872 13.703 3.24028e-16)
(16.0065 12.8101 9.5965e-18)
(15.4485 11.7887 3.96665e-16)
(14.9865 10.6942 -1.37853e-15)
(14.6251 9.51833 1.02041e-15)
(14.3874 8.28674 4.10059e-17)
(14.2882 7.06593 -1.02552e-15)
(14.3265 5.90281 -1.01649e-15)
(14.4916 4.80976 -1.0622e-15)
(14.7657 3.80489 -2.14182e-15)
(15.1301 2.90174 0)
(15.5716 2.09705 -1.1073e-15)
(16.0773 1.38799 -2.55514e-17)
(16.6349 0.773705 0)
(17.2353 0.248655 -1.00542e-15)
(17.8693 -0.18978 -4.87154e-16)
(18.528 -0.543661 -4.69243e-16)
(19.2039 -0.816026 1.72199e-15)
(19.8905 -1.01005 1.61049e-15)
(20.5816 -1.12657 -1.82279e-16)
(21.2709 -1.16505 1.39424e-15)
(21.9505 -1.12413 3.13779e-16)
(22.6082 -1.00335 -1.52368e-16)
(23.2256 -0.805814 1.02222e-15)
(23.7837 -0.542674 6.59203e-17)
(24.2724 -0.229633 0)
(24.689 0.120217 0)
(25.032 0.495919 -1.2942e-17)
(25.3003 0.886152 3.77257e-17)
(25.4945 1.27982 -1.58098e-15)
(25.617 1.66739 -1.68578e-17)
(25.6695 2.04129 3.03511e-15)
(25.6539 2.39428 2.8252e-15)
(25.5639 2.72149 8.95579e-17)
(25.4009 3.01258 2.93162e-18)
(25.0984 3.2646 2.24403e-14)
(24.7251 3.36457 -1.12329e-14)
(23.8512 3.32265 8.13069e-17)
(18.5324 14.4605 1.38565e-17)
(19.2122 15.0861 0)
(20.0195 15.7208 -1.38756e-16)
(20.918 16.3197 0)
(21.8678 16.8377 1.26733e-16)
(22.9093 17.2897 -1.23006e-16)
(24.0127 17.6525 -3.98574e-17)
(25.1561 17.9087 4.38497e-17)
(26.341 18.0526 0)
(27.5491 18.0747 -9.39894e-17)
(28.7677 17.9674 2.86968e-16)
(29.988 17.7245 -5.94068e-16)
(31.193 17.3406 -3.55463e-16)
(32.3664 16.8122 -3.60089e-16)
(33.4901 16.1388 9.35429e-16)
(34.5425 15.3229 1.03515e-15)
(35.502 14.371 -1.12643e-15)
(36.3468 13.2948 -1.10252e-15)
(37.0553 12.1109 0)
(37.6076 10.8419 2.89398e-16)
(37.9887 9.51462 -5.60011e-16)
(38.1899 8.16253 1.39001e-16)
(38.2102 6.82217 4.70296e-18)
(38.0596 5.52866 2.13768e-15)
(37.7568 4.30889 -1.14482e-16)
(37.3259 3.17301 7.44425e-17)
(36.7886 2.11869 1.93912e-16)
(36.1583 1.14509 1.97542e-16)
(35.4429 0.256187 5.64151e-16)
(34.6504 -0.544987 -1.04696e-15)
(33.7875 -1.25672 -7.81543e-16)
(32.8581 -1.87607 -2.61798e-15)
(31.8627 -2.3991 1.75947e-15)
(30.8021 -2.82046 -2.06922e-17)
(29.6597 -3.13317 -4.07012e-17)
(28.4494 -3.31467 5.02393e-17)
(27.0466 -3.34779 -4.17182e-17)
(25.7384 -3.01892 9.36974e-17)
(23.5934 -2.60348 -1.24682e-14)
(17.9304 13.8119 5.90133e-17)
(17.3753 13.1288 -1.59902e-16)
(16.825 12.3116 3.10392e-16)
(16.2917 11.3753 0)
(15.8443 10.3737 8.23826e-16)
(15.4848 9.29501 0)
(15.2356 8.16135 0)
(15.1113 7.03727 0)
(15.1114 5.9654 1.87021e-15)
(15.2263 4.95398 -9.36278e-16)
(15.4403 4.02003 1.02009e-15)
(15.7371 3.17686 0)
(16.1059 2.41908 0)
(16.5364 1.74245 -9.85379e-16)
(17.0188 1.14774 0)
(17.5465 0.631348 9.36152e-16)
(18.1124 0.190741 1.35696e-17)
(18.7091 -0.174751 0)
(19.3299 -0.464986 -1.22151e-15)
(19.9684 -0.680793 -1.89997e-15)
(20.6179 -0.822554 -1.40495e-15)
(21.2715 -0.889117 -1.3051e-15)
(21.921 -0.878011 2.41395e-15)
(22.5541 -0.788722 0)
(23.1531 -0.62449 9.85543e-16)
(23.6999 -0.394279 1.0442e-15)
(24.1832 -0.111432 4.60203e-16)
(24.5986 0.21145 0)
(24.9438 0.563185 -5.14077e-17)
(25.2169 0.932687 -3.93093e-16)
(25.4176 1.30903 1.50817e-15)
(25.5475 1.68225 -1.63517e-17)
(25.6079 2.04418 -2.79036e-15)
(25.6003 2.38712 2.63546e-15)
(25.5183 2.70537 -1.44072e-18)
(25.3631 2.98698 8.36494e-17)
(25.0737 3.2272 -2.15425e-14)
(24.7146 3.31212 1.05422e-14)
(23.9183 3.25089 2.04639e-14)
(19.1661 13.825 1.01142e-17)
(19.8034 14.3996 -4.54345e-17)
(20.5597 14.9832 0)
(21.3988 15.5336 -2.14033e-16)
(22.2813 16.0091 0)
(23.2476 16.4251 0)
(24.2691 16.7605 1.80639e-17)
(25.3249 16.9999 1.7753e-17)
(26.4183 17.1389 1.02958e-16)
(27.5329 17.1691 4.70816e-16)
(28.6582 17.0836 3.11794e-16)
(29.788 16.8764 4.15055e-16)
(30.9077 16.5424 0)
(32.0039 16.0764 9.63285e-16)
(33.0609 15.4759 -3.51632e-16)
(34.0593 14.742 0)
(34.9786 13.879 8.85434e-16)
(35.7982 12.8952 1.05671e-15)
(36.4975 11.8039 0)
(37.0559 10.6256 9.95024e-16)
(37.457 9.38485 -9.74501e-16)
(37.6912 8.11105 0)
(37.7553 6.83757 -1.14448e-16)
(37.6557 5.59773 8.08211e-18)
(37.4072 4.41714 5.37073e-17)
(37.0289 3.30699 7.76065e-16)
(36.5397 2.26883 -3.92883e-18)
(35.9528 1.30491 -1.86963e-17)
(35.2769 0.420575 -1.36268e-17)
(34.52 -0.379794 3.23594e-17)
(33.6891 -1.09317 7.56865e-16)
(32.789 -1.71584 2.31664e-15)
(31.8205 -2.24325 -5.55567e-18)
(30.7846 -2.66924 -7.47953e-16)
(29.6653 -2.98614 1.72286e-17)
(28.4743 -3.169 1.83113e-15)
(27.0951 -3.20308 3.51106e-15)
(25.7759 -2.86665 -1.49485e-16)
(23.8529 -2.44059 1.17168e-14)
(18.5995 13.2292 -1.2171e-16)
(18.0763 12.6026 -4.18116e-16)
(17.5533 11.8516 8.06941e-16)
(17.043 10.9899 0)
(16.6101 10.069 1.42548e-15)
(16.2549 9.07599 0)
(15.9988 8.02883 -7.70066e-16)
(15.8564 6.98941 3.08669e-15)
(15.8272 5.99859 -2.37479e-15)
(15.9024 5.06215 0)
(16.0682 4.19367 1.73224e-15)
(16.3099 3.40621 1.72094e-15)
(16.6181 2.695 0)
(16.9845 2.05436 -1.73935e-15)
(17.4013 1.48368 4.29833e-16)
(17.8638 0.980672 -4.29746e-16)
(18.3666 0.544638 4.23944e-16)
(18.9043 0.174965 7.87007e-16)
(19.4712 -0.127481 -1.48981e-17)
(20.0613 -0.360875 1.04454e-15)
(20.668 -0.523689 3.28071e-16)
(21.2844 -0.614781 -3.16349e-16)
(21.9022 -0.631613 -1.14223e-15)
(22.5094 -0.572511 1.06727e-15)
(23.0883 -0.439792 -8.72888e-16)
(23.6217 -0.241286 -1.05216e-15)
(24.0979 0.0114781 -4.37605e-16)
(24.5108 0.307132 -6.33813e-18)
(24.8567 0.634681 5.54009e-17)
(25.1336 0.982948 3.7578e-16)
(25.3402 1.34111 8.65112e-18)
(25.4771 1.69923 -1.58066e-17)
(25.545 2.04858 2.83161e-15)
(25.5453 2.38081 -2.70833e-15)
(25.4716 2.68943 8.39179e-17)
(25.3245 2.96116 -5.335e-15)
(25.0488 3.18942 1.03845e-14)
(24.7049 3.26066 0)
(23.9826 3.18233 -1.9621e-14)
(19.7332 13.2432 2.38951e-17)
(20.3327 13.7724 0)
(21.0436 14.3102 0)
(21.8303 14.8167 3.81175e-16)
(22.6539 15.2535 -1.95734e-17)
(23.5538 15.6362 0)
(24.5029 15.9456 0)
(25.4816 16.1676 3.3958e-17)
(26.4938 16.2993 -3.80588e-17)
(27.5248 16.3335 -4.52866e-17)
(28.5659 16.264 -6.95956e-16)
(29.6129 16.0848 -2.37113e-16)
(30.6534 15.7912 4.26334e-16)
(31.6763 15.3782 -7.07921e-17)
(32.6681 14.8417 0)
(33.6119 14.1806 0)
(34.4892 13.3977 -2.37619e-15)
(35.2798 12.4995 -4.4995e-16)
(35.9644 11.4959 4.52758e-16)
(36.5234 10.4034 -9.64522e-16)
(36.9391 9.24448 1.81466e-15)
(37.2003 8.04626 8.47961e-16)
(37.3025 6.83875 -8.15167e-16)
(37.249 5.65303 -9.24286e-16)
(37.0506 4.51371 1.43098e-16)
(36.7224 3.43246 -7.52134e-16)
(36.2802 2.41354 -8.27392e-17)
(35.7367 1.46189 1.70911e-17)
(35.1004 0.584281 -1.70815e-17)
(34.3796 -0.213435 4.93324e-17)
(33.5813 -0.927053 -3.94677e-17)
(32.7107 -1.55201 -1.1315e-15)
(31.7692 -2.08303 -5.29389e-17)
(30.7586 -2.51313 7.06632e-17)
(29.6643 -2.83392 0)
(28.4969 -3.01843 -1.71937e-15)
(27.1523 -3.05339 -3.25225e-15)
(25.832 -2.71608 0)
(24.053 -2.27217 0)
(19.1981 12.6942 0)
(18.7031 12.1176 3.84268e-16)
(18.2054 11.4253 -1.23224e-15)
(17.7165 10.6296 -5.66925e-16)
(17.2981 9.77965 -1.31995e-15)
(16.9488 8.86173 0)
(16.689 7.89227 0)
(16.5336 6.92877 -1.3865e-15)
(16.4821 6.00956 1.43852e-15)
(16.526 5.14061 0)
(16.6528 4.33335 -7.58817e-16)
(16.8494 3.5984 -8.07031e-16)
(17.1072 2.93143 7.89315e-16)
(17.419 2.32753 8.15043e-16)
(17.7788 1.78459 -1.5673e-15)
(18.1832 1.29917 0)
(18.6286 0.871816 -3.72679e-16)
(19.1107 0.503646 1.16882e-17)
(19.6254 0.195271 1.73606e-15)
(20.1677 -0.0511656 -3.34141e-16)
(20.7314 -0.231879 3.24274e-16)
(21.3095 -0.344218 -2.82896e-16)
(21.8943 -0.385988 4.09926e-16)
(22.474 -0.355415 -2.1538e-15)
(23.0317 -0.25307 -8.3832e-16)
(23.55 -0.0848731 8.37878e-16)
(24.017 0.138669 -5.44989e-17)
(24.4258 0.406992 0)
(24.7715 0.709984 -4.79287e-17)
(25.051 1.03675 3.45409e-16)
(25.2626 1.37622 -6.81172e-16)
(25.4061 1.7184 1.37622e-15)
(25.4814 2.05443 -5.47272e-15)
(25.4894 2.37541 5.39639e-15)
(25.424 2.67381 -8.02126e-17)
(25.2856 2.93525 5.0514e-15)