/*--------------------------------*- C++ -*----------------------------------*\
| =========                 |                                                 |
| \\      /  F ield         | OpenFOAM: The Open Source CFD Toolbox           |
|  \\    /   O peration     | Version:  3.0.0                                 |
|   \\  /    A nd           | Web:      www.OpenFOAM.org                      |
|    \\/     M anipulation  |                                                 |
\*---------------------------------------------------------------------------*/
FoamFile
{
    version     2.0;
    format      ascii;
    class       volScalarField;
    location    "6";
    object      p;
}
// * * * * * * * * * * * * * * * * * * * * * * * * * * * * * * * * * * * * * //

dimensions      [0 2 -2 0 0 0 0];

internalField   nonuniform List<scalar> 
4096
(
-0.0149571
-0.0301556
-0.0216489
-0.0108811
-0.00356825
-0.00292952
-0.00899352
-0.0169816
-0.0206013
-0.0161363
-0.00506583
0.00669661
0.0117415
0.00557786
-0.00828312
-0.0068693
-0.00837766
-0.0260842
-0.0167422
-0.0051894
0.00272605
0.00350119
-0.00332898
-0.0134464
-0.0199836
-0.0172882
-0.00520678
0.00914297
0.0162855
0.0109104
-0.00322516
0.000403762
0.0027762
-0.0157497
-0.0052487
0.00700436
0.0147583
0.0143585
0.00538481
-0.00745013
-0.0163955
-0.0145763
-0.0015736
0.0149417
0.024398
0.0204605
0.00674057
0.012158
0.0167731
-0.00111388
0.0108904
0.0240696
0.0315535
0.029429
0.017471
0.00101552
-0.0111281
-0.0107462
0.0033426
0.0228151
0.0354661
0.0335719
0.0204375
0.0267051
0.0326144
0.0163959
0.0302155
0.0445699
0.0518198
0.0477271
0.0323846
0.0119056
-0.00391427
-0.00526267
0.0096913
0.0320966
0.0480099
0.0482641
0.0357631
0.0423884
0.0472563
0.0333316
0.0492053
0.0649924
0.0722583
0.0664451
0.0480458
0.0240252
0.00510007
0.00178402
0.0169156
0.041254
0.0595782
0.0615372
0.049485
0.0561971
0.0566745
0.0452734
0.063234
0.080605
0.0882537
0.0813951
0.0609397
0.0346232
0.0136871
0.00889991
0.0234421
0.0481997
0.067363
0.0699799
0.0581516
0.0645958
0.0575166
0.0485664
0.0683429
0.0872429
0.0956321
0.0886372
0.0675257
0.040647
0.0193068
0.0139367
0.0273353
0.0508895
0.0690686
0.071084
0.0589892
0.0647156
0.0485326
0.0418242
0.0628433
0.0829292
0.0922442
0.0859327
0.0657304
0.0399603
0.0197873
0.0147066
0.0268391
0.0479441
0.063626
0.0639699
0.0511848
0.0553307
0.0313923
0.0267071
0.0481613
0.0686569
0.0787816
0.0737101
0.0554375
0.0322037
0.014391
0.0104555
0.0213979
0.0394687
0.0519288
0.050182
0.0366085
0.0386302
0.0107474
0.00742296
0.0274906
0.0478638
0.0584048
0.0547034
0.038918
0.0190384
0.00447779
0.00211194
0.0122211
0.0275125
0.0370064
0.0335084
0.0193913
0.0187205
-0.00852225
-0.0108716
0.00704357
0.0256497
0.0357766
0.0331683
0.0199715
0.00360796
-0.00750779
-0.00786125
0.00212843
0.0155924
0.0230366
0.0184829
0.00420529
0.000820235
-0.022097
-0.0244507
-0.00965547
0.00644082
0.0155389
0.0136068
0.0026883
-0.0104773
-0.0183337
-0.0164073
-0.0057345
0.00700293
0.0133114
0.00842534
-0.00627837
-0.0113668
-0.0286034
-0.0323321
-0.0206533
-0.00712438
0.000865417
-0.00048881
-0.00958994
-0.0203022
-0.0256612
-0.0216955
-0.00989379
0.00285814
0.00844434
0.0028675
-0.0111328
-0.017273
-0.0287636
-0.0353614
-0.0260693
-0.0144758
-0.00714859
-0.00789136
-0.0157727
-0.0252413
-0.0292945
-0.0238494
-0.0106768
0.00246975
0.00744848
0.00103922
-0.012887
-0.018111
-0.0220467
-0.0324881
-0.024523
-0.0142394
-0.00779079
-0.00875535
-0.0164823
-0.0256339
-0.0280356
-0.0204457
-0.00640183
0.00570332
0.00922968
0.00179894
-0.0119687
-0.0140115
-0.0107743
-0.0321937
-0.0227616
-0.00919224
0.00189272
0.0058558
0.00142288
-0.0068925
-0.012216
-0.00995171
-0.000326462
0.0109369
0.0163489
0.0106461
-0.00366994
0.000488235
-0.00497083
-0.0276682
-0.01756
-0.00392359
0.00675368
0.0100089
0.0046001
-0.0053162
-0.0122385
-0.0101405
0.00108807
0.0142943
0.0206706
0.0149737
0.000362775
0.00622669
0.00424049
-0.0183546
-0.00775672
0.00568697
0.0155104
0.0175137
0.0105793
-0.000900666
-0.00894779
-0.00707091
0.0047661
0.0191435
0.0268789
0.0222296
0.00830129
0.0153888
0.0159443
-0.00497465
0.00642093
0.019751
0.0283891
0.0283503
0.018909
0.0048921
-0.00509915
-0.00396654
0.00864593
0.0248685
0.0346852
0.0317797
0.0189173
0.0266237
0.0296341
0.0113
0.0237745
0.0371457
0.0444951
0.0420164
0.029518
0.0124157
-3.89916e-05
-0.000171334
0.0129837
0.031061
0.043155
0.0422336
0.0307422
0.0389474
0.0427753
0.0272349
0.0409801
0.0546322
0.0609786
0.0562953
0.0409565
0.0209753
0.00595691
0.00436177
0.01726
0.0364013
0.0502936
0.0512273
0.0412297
0.0501667
0.0517458
0.0387223
0.0538102
0.0679992
0.0738307
0.0676807
0.050401
0.0284939
0.0116513
0.00842658
0.0202584
0.0392539
0.0539149
0.0560951
0.0474249
0.0571505
0.0534426
0.0423083
0.0586278
0.0735753
0.0795381
0.0729727
0.0550588
0.032591
0.0150202
0.0105393
0.0206484
0.0382438
0.0523753
0.0548876
0.0470438
0.0573178
0.0464535
0.0365198
0.0538091
0.0696724
0.0764152
0.070509
0.0532675
0.0315941
0.0143793
0.00917641
0.0174034
0.0327719
0.0452987
0.0471821
0.0394458
0.049613
0.0318282
0.0225431
0.040358
0.0571239
0.0651026
0.0606879
0.0451867
0.0252033
0.00918105
0.00391945
0.0105564
0.0235571
0.0340029
0.0346456
0.0263479
0.0354222
0.0131022
0.00403056
0.0214188
0.0387934
0.0481672
0.0456415
0.0324031
0.0146765
0.000455861
-0.0041918
0.00161606
0.0128518
0.0214624
0.0207603
0.0115446
0.0182635
-0.00517227
-0.0144222
0.00177822
0.0190806
0.0295022
0.0288169
0.0178886
0.00257408
-0.00948466
-0.0127713
-0.00670623
0.00384081
0.0112949
0.00945229
-0.000918181
0.00275923
-0.0184758
-0.0283146
-0.0142926
0.00212859
0.013043
0.0138234
0.0049274
-0.00807333
-0.0177911
-0.01906
-0.0116924
-0.000849048
0.00600702
0.0031947
-0.00822264
-0.00749212
-0.0246466
-0.0358721
-0.0242318
-0.00911701
0.00179785
0.00358646
-0.0037624
-0.0149174
-0.0225725
-0.0216439
-0.0123931
-0.000737409
0.00564633
0.00166092
-0.0105389
-0.011559
-0.0239587
-0.0377633
-0.0279547
-0.0140412
-0.00332948
-0.000939849
-0.00739702
-0.0175288
-0.023822
-0.0208309
-0.00946077
0.00303625
0.00875096
0.00363878
-0.0096715
-0.0105513
-0.0168155
-0.0346042
-0.0262123
-0.0133853
-0.00299456
-0.000134506
-0.00576189
-0.0145914
-0.0191438
-0.0139937
-0.0018952
0.00957727
0.013909
0.00768632
-0.00619319
-0.00488864
-0.00914099
-0.03219
-0.0202888
-0.0040557
0.00886861
0.0130596
0.0070847
-0.00417947
-0.0126165
-0.012265
-0.00281907
0.00939648
0.0157886
0.0101818
-0.00482872
0.00063635
-0.00623929
-0.0292325
-0.0171619
-0.00149132
0.0104925
0.0138704
0.00721399
-0.00473237
-0.0134453
-0.0120131
-0.000562028
0.0129034
0.0191012
0.0129474
-0.00233301
0.00371422
-0.00183949
-0.0234473
-0.0114553
0.00360998
0.0147289
0.0172419
0.00988788
-0.00267222
-0.011734
-0.0101583
0.00181216
0.0159657
0.0229508
0.0175283
0.00290195
0.00862016
0.00459747
-0.0142537
-0.00237454
0.0116963
0.0211728
0.0218526
0.0129121
-0.000881559
-0.0107523
-0.00922796
0.00344938
0.0188695
0.0272636
0.0231745
0.00968858
0.0148161
0.0133659
-0.00221959
0.00954792
0.0224848
0.0299837
0.0282752
0.0171524
0.00168887
-0.00927904
-0.00812811
0.00508095
0.0218271
0.0318897
0.029485
0.0175548
0.0224573
0.022666
0.00997978
0.0219195
0.0339159
0.0395335
0.0354827
0.0221965
0.00509105
-0.00707182
-0.00667421
0.00649142
0.0240198
0.0355443
0.0349125
0.0247914
0.0301082
0.0295012
0.019009
0.0312097
0.0425828
0.0468544
0.0411114
0.0263126
0.00814803
-0.00485441
-0.00542836
0.00688237
0.024306
0.0366134
0.0374171
0.0290537
0.0353576
0.0310169
0.0218044
0.0344079
0.0456602
0.0494127
0.0430269
0.027774
0.00945323
-0.00382249
-0.00533981
0.00546354
0.0216979
0.0338076
0.0353666
0.0282092
0.0354212
0.0257984
0.0169835
0.0301788
0.0419332
0.0461338
0.0402522
0.0256299
0.00800469
-0.00501523
-0.00735638
0.00159047
0.0158704
0.0268195
0.0281721
0.021465
0.0293344
0.0145775
0.00540271
0.0193379
0.0321732
0.0376796
0.033248
0.0200321
0.00362294
-0.00881494
-0.0117534
-0.00458281
0.00756066
0.0168726
0.0173154
0.0101551
0.0181108
0.000411048
-0.00992238
0.00459906
0.0187654
0.0260651
0.0234743
0.0121248
-0.00285036
-0.0145148
-0.0176732
-0.0116962
-0.00118532
0.00665478
0.0059057
-0.00250145
0.00430739
-0.0131983
-0.0245063
-0.0100672
0.00517661
0.0142758
0.0136479
0.00398597
-0.00966061
-0.0204309
-0.023231
-0.017425
-0.00751121
-0.00052
-0.00231381
-0.0120651
-0.00720775
-0.0217139
-0.0346803
-0.0210212
-0.00530874
0.00512057
0.00607083
-0.00225315
-0.0148091
-0.0245753
-0.0263432
-0.0195724
-0.00923816
-0.00247653
-0.00513433
-0.0162246
-0.0132455
-0.0236161
-0.0386904
-0.0263027
-0.0106882
0.000463659
0.00238419
-0.00515704
-0.0170537
-0.0258883
-0.0261332
-0.0176461
-0.00616525
0.000475929
-0.00307603
-0.0153395
-0.0132802
-0.0198847
-0.0376996
-0.0264284
-0.0111949
0.000240081
0.00260752
-0.00473733
-0.0165009
-0.0245497
-0.0228577
-0.0121012
0.000430248
0.00637104
0.00182757
-0.0115788
-0.00900655
-0.0123711
-0.0337827
-0.0232446
-0.00792333
0.00438921
0.00787907
0.00123157
-0.0100831
-0.0171438
-0.0140451
-0.0026783
0.00938061
0.0149124
0.00896122
-0.00537918
-0.0015232
-0.0125748
-0.034096
-0.020383
-0.00183032
0.0122897
0.0158286
0.00749111
-0.00714162
-0.0185704
-0.0196259
-0.00912491
0.00555898
0.013826
0.00875358
-0.007204
-0.00567974
-0.0119461
-0.0322207
-0.0189983
-0.00181662
0.0106303
0.0131152
0.00440534
-0.0101415
-0.0208998
-0.0200625
-0.00772749
0.0071567
0.0143913
0.00868036
-0.00686135
-0.00483273
-0.0121988
-0.0295508
-0.0166018
-0.000346032
0.0112423
0.01304
0.00396538
-0.0107738
-0.0215915
-0.0206474
-0.00815894
0.00688174
0.0144087
0.0093061
-0.00528468
-0.00412582
-0.0115097
-0.0249873
-0.0125953
0.00214823
0.0119577
0.0122731
0.00243256
-0.0125122
-0.0233941
-0.0223756
-0.00976673
0.00559532
0.0137416
0.00965485
-0.00350838
-0.00319
-0.00847522
-0.0182433
-0.00650738
0.00640252
0.0139817
0.0123115
0.00132296
-0.0139402
-0.0248152
-0.0238461
-0.0112488
0.00443495
0.0133786
0.0106308
-0.000731432
-0.000611289
-0.0038988
-0.0106379
0.000419472
0.0116413
0.0169633
0.0132629
0.00104488
-0.0145699
-0.0254507
-0.0247007
-0.012491
0.00328033
0.0130446
0.0118122
0.002453
0.00311714
-5.81219e-06
-0.00486301
0.00566532
0.015489
0.0190877
0.0138511
0.000797726
-0.0148901
-0.0256491
-0.025275
-0.0138068
0.00151148
0.0117693
0.0118929
0.00443458
0.00606844
0.000740555
-0.00330783
0.00696398
0.0160531
0.0187956
0.0129387
-0.00020092
-0.0154872
-0.0259436
-0.0260712
-0.0158399
-0.00153019
0.00857371
0.0094521
0.00340738
0.00613395
-0.00311994
-0.00718705
0.00327298
0.0125336
0.0155251
0.0101636
-0.00228622
-0.0167754
-0.0268684
-0.0276438
-0.0189798
-0.00623995
0.00304025
0.00397254
-0.00165802
0.00166155
-0.0112862
-0.0160453
-0.00480674
0.00559683
0.00991217
0.0058523
-0.00525234
-0.0187886
-0.028619
-0.0301275
-0.0230532
-0.0119917
-0.00401775
-0.0038411
-0.010062
-0.0069984
-0.0214167
-0.0273786
-0.0151263
-0.00291187
0.00348224
0.00135723
-0.00835071
-0.0210834
-0.0307542
-0.032862
-0.0269286
-0.017224
-0.0102897
-0.0112283
-0.0189106
-0.0166088
-0.029327
-0.0377269
-0.0247127
-0.0105309
-0.00181796
-0.00195344
-0.0104113
-0.0226169
-0.0322623
-0.0345474
-0.0287825
-0.0193998
-0.0130119
-0.0150788
-0.0246994
-0.023904
-0.0325667
-0.0439438
-0.0307698
-0.0149919
-0.004257
-0.00277757
-0.0104545
-0.0225319
-0.0321497
-0.0340117
-0.0274744
-0.0171051
-0.010557
-0.0135198
-0.0251115
-0.0258422
-0.0298477
-0.0447371
-0.0319309
-0.0153124
-0.00324407
-0.000829921
-0.00835861
-0.0207365
-0.0302909
-0.0310489
-0.022616
-0.0107563
-0.00382437
-0.00753268
-0.0207262
-0.0220518
-0.0226419
-0.0412598
-0.0291287
-0.0122767
0.000350328
0.00300687
-0.00493095
-0.0179029
-0.0271919
-0.026206
-0.0153727
-0.00201534
0.00492155
0.00034888
-0.0140466
-0.0145712
-0.0134848
-0.0355696
-0.0234069
-0.00545254
0.00870262
0.0123134
0.00409902
-0.00982017
-0.0194309
-0.017722
-0.00581948
0.00809918
0.0152519
0.0101489
-0.00528732
-0.00499416
-0.0159683
-0.0321404
-0.0182398
0.00125295
0.0156964
0.0180914
0.00758172
-0.00964845
-0.0234723
-0.0246408
-0.0123939
0.00512117
0.0152251
0.01076
-0.00560576
-0.0122009
-0.0170566
-0.0315286
-0.0187025
-0.0015448
0.0106661
0.0116718
0.000821292
-0.015959
-0.0284369
-0.0280481
-0.0147055
0.00207403
0.0108956
0.00630947
-0.00849564
-0.0133735
-0.0209776
-0.0317918
-0.0190268
-0.00274365
0.00825573
0.00835941
-0.00299465
-0.0200245
-0.0326868
-0.0323928
-0.0194203
-0.00305935
0.00572555
0.00181771
-0.011542
-0.0161965
-0.0251326
-0.0317135
-0.0193326
-0.00465182
0.00458086
0.00353109
-0.00802647
-0.0246387
-0.036948
-0.0369273
-0.024766
-0.00933333
-0.000797206
-0.00392984
-0.0154926
-0.0197223
-0.0270822
-0.030043
-0.0183403
-0.00560054
0.00157354
-0.000829851
-0.0125561
-0.0284338
-0.0400169
-0.0401588
-0.0290193
-0.0146792
-0.0064287
-0.00861847
-0.0181976
-0.0215001
-0.0266449
-0.0270851
-0.0162128
-0.00539604
-0.000239492
-0.00403023
-0.0159634
-0.0310586
-0.0417717
-0.0419098
-0.0318325
-0.0184926
-0.0103435
-0.0114394
-0.0190674
-0.0210674
-0.0252683
-0.0244361
-0.0144467
-0.00526862
-0.00182534
-0.00664987
-0.0185916
-0.032815
-0.0426108
-0.0427654
-0.0335511
-0.021088
-0.0129529
-0.0130426
-0.0188761
-0.0196501
-0.0250601
-0.0239516
-0.0146513
-0.00649134
-0.00393974
-0.00909309
-0.0206047
-0.0338345
-0.0427772
-0.0429698
-0.0346563
-0.0231715
-0.0152153
-0.014697
-0.0193439
-0.0192998
-0.0274668
-0.026757
-0.0176199
-0.00948715
-0.006709
-0.0112769
-0.0218765
-0.0340915
-0.0424479
-0.0429115
-0.0356717
-0.0253203
-0.0179415
-0.0174185
-0.021856
-0.0216855
-0.0327129
-0.032652
-0.0229421
-0.0136987
-0.00954606
-0.0127177
-0.022092
-0.0334754
-0.0415795
-0.042583
-0.036465
-0.0272681
-0.0207848
-0.0209877
-0.0262714
-0.0268572
-0.0386091
-0.0398576
-0.0291176
-0.0178234
-0.0114035
-0.0126533
-0.0207845
-0.0316713
-0.0398886
-0.0414554
-0.0360426
-0.0275787
-0.021989
-0.0234307
-0.0305262
-0.032706
-0.0423283
-0.045863
-0.034039
-0.0202766
-0.0111842
-0.010426
-0.0175786
-0.0284031
-0.0369632
-0.0387869
-0.0333771
-0.0246773
-0.0194034
-0.0221599
-0.031699
-0.0362158
-0.04141
-0.0482295
-0.0358035
-0.0197656
-0.00821956
-0.00581322
-0.0125208
-0.0238027
-0.032795
-0.0343361
-0.0277193
-0.0178095
-0.0121084
-0.0158744
-0.0279273
-0.0348722
-0.0352222
-0.0461282
-0.0338199
-0.016272
-0.00304608
0.000247051
-0.00672625
-0.0188302
-0.0282463
-0.0289204
-0.0201621
-0.00829626
-0.00172816
-0.00609598
-0.0201304
-0.0285839
-0.0255907
-0.0407221
-0.0290687
-0.0110654
0.00278686
0.00609538
-0.001714
-0.0148641
-0.0244374
-0.0235316
-0.0123693
0.00151766
0.00877464
0.00405521
-0.0111074
-0.0195023
-0.0153328
-0.0335406
-0.0214446
-0.00183103
0.0135943
0.0170438
0.00756863
-0.00804006
-0.019163
-0.0179141
-0.00525662
0.0113101
0.0200803
0.0154972
-0.000817355
-0.00921964
-0.0116094
-0.0219669
-0.00844304
0.0101058
0.0237049
0.0249733
0.0134703
-0.00418166
-0.0174821
-0.0173778
-0.00277067
0.0170922
0.0283811
0.0237352
0.00692873
-0.00683082
-0.0148286
-0.0233034
-0.011589
0.00427811
0.0150322
0.0145201
0.00242888
-0.0150007
-0.0275934
-0.0265081
-0.0121089
0.0072551
0.0173529
0.0135965
-0.0004442
-0.011
-0.0217985
-0.0269001
-0.0150197
-2.37549e-05
0.00933023
0.00747399
-0.00563779
-0.0237752
-0.0369054
-0.0364238
-0.0226336
-0.00478105
0.00548316
0.00279523
-0.00917403
-0.0176101
-0.029693
-0.0311668
-0.0191931
-0.00558794
0.00215522
-0.000681275
-0.0138583
-0.0315605
-0.0445278
-0.0450015
-0.0330354
-0.0172239
-0.00784934
-0.009683
-0.0194363
-0.0254926
-0.0355601
-0.0340879
-0.0223532
-0.0103088
-0.00416932
-0.00775629
-0.0204781
-0.0370017
-0.0491918
-0.0503947
-0.0406385
-0.0273128
-0.0191517
-0.020284
-0.0278946
-0.0315002
-0.0383605
-0.0350708
-0.0238534
-0.0133765
-0.00875033
-0.0129892
-0.0251138
-0.0401886
-0.0512172
-0.0527703
-0.0448128
-0.0336183
-0.0264735
-0.0267965
-0.0329822
-0.0342791
-0.0388432
-0.0348721
-0.0245356
-0.0154961
-0.0121448
-0.0168118
-0.0282245
-0.0417775
-0.0514542
-0.0528285
-0.046092
-0.0363509
-0.0298351
-0.0297318
-0.0342201
-0.0342157
-0.0386923
-0.0349472
-0.025512
-0.0174531
-0.0147519
-0.019344
-0.0298514
-0.0419596
-0.0504153
-0.0514551
-0.0453818
-0.036526
-0.0303297
-0.0300291
-0.0335938
-0.0332248
-0.0394142
-0.0364136
-0.027394
-0.019448
-0.0164232
-0.0202438
-0.0296273
-0.0404552
-0.0482096
-0.0489874
-0.0433648
-0.0351325
-0.0293944
-0.0292655
-0.0330025
-0.0332002
-0.0414232
-0.0393402
-0.0299341
-0.0210092
-0.0165735
-0.0189375
-0.0271407
-0.0371738
-0.0443341
-0.0452681
-0.0400738
-0.032369
-0.0272376
-0.0279482
-0.0329065
-0.0345579
-0.043431
-0.0424021
-0.0323073
-0.0212622
-0.0144928
-0.0149454
-0.0219767
-0.0315794
-0.0387258
-0.0398341
-0.0347587
-0.0272413
-0.0227239
-0.0248297
-0.0319688
-0.0360009
-0.0432939
-0.0442148
-0.0330138
-0.019314
-0.00974449
-0.00816872
-0.0142735
-0.023938
-0.0313321
-0.0323847
-0.026759
-0.0186366
-0.0143064
-0.0179617
-0.0279148
-0.035231
-0.0390685
-0.0427669
-0.0309717
-0.0147621
-0.00253416
0.000741088
-0.004877
-0.0153474
-0.0229918
-0.0235204
-0.0163856
-0.00668006
-0.00182247
-0.00671317
-0.0195419
-0.0304109
-0.0306967
-0.0379634
-0.0262897
-0.00840549
0.00564021
0.0097799
0.00372847
-0.00732475
-0.0155054
-0.0149851
-0.00564024
0.0063197
0.0122647
0.00675776
-0.00824342
-0.0219169
-0.0202795
-0.031137
-0.0202923
-0.0019889
0.0126138
0.0166427
0.00965211
-0.00236763
-0.0110753
-0.009066
0.00270488
0.0169236
0.0240739
0.0185998
0.00263373
-0.012218
-0.0108052
-0.0237499
-0.0122079
0.00783008
0.0236626
0.0268835
0.0170449
0.00145082
-0.00919662
-0.00704759
0.00728012
0.025218
0.0350903
0.0301966
0.0130421
-0.00296825
0.00672338
-0.00372314
0.00764846
0.0249444
0.03725
0.0380273
0.0273887
0.0120543
0.00244535
0.00648879
0.0241024
0.045604
0.0572808
0.0517049
0.0328544
0.0185303
0.000567136
-0.00795448
0.00191664
0.0159936
0.0251401
0.0239028
0.0123452
-0.00320354
-0.0129551
-0.00900328
0.00795538
0.0283921
0.0397321
0.0359169
0.0207172
0.0102297
-0.00945412
-0.0150037
-0.00465953
0.00842903
0.0158562
0.0127237
-0.000517771
-0.0174393
-0.0284265
-0.0256794
-0.00998898
0.00942536
0.0208795
0.0187078
0.00614219
-0.00101374
-0.0207508
-0.0230724
-0.0122622
-0.000291479
0.00564169
0.00144214
-0.0121986
-0.029313
-0.0409446
-0.0401138
-0.0269118
-0.00992574
0.000533357
-0.000211172
-0.0102495
-0.0141725
-0.0302018
-0.0297751
-0.0186357
-0.00764518
-0.00283851
-0.00749256
-0.0206637
-0.0369717
-0.0485787
-0.0494368
-0.0396753
-0.0261406
-0.0170837
-0.0172345
-0.0242308
-0.0252886
-0.0358965
-0.0337287
-0.0225803
-0.0124889
-0.00858755
-0.0134069
-0.0257049
-0.0406837
-0.0516072
-0.0535446
-0.0465988
-0.036067
-0.0287626
-0.0285077
-0.0334815
-0.0322048
-0.0380083
-0.035213
-0.0245491
-0.0153928
-0.012227
-0.0170036
-0.0282858
-0.0416025
-0.0513528
-0.0535679
-0.048331
-0.039889
-0.0337718
-0.0333176
-0.0370317
-0.0345329
-0.0377756
-0.0353995
-0.0255147
-0.0170757
-0.0142104
-0.0185921
-0.0287638
-0.0405484
-0.0490112
-0.0508856
-0.0462859
-0.038818
-0.0332882
-0.0328121
-0.0361777
-0.0335744
-0.0367417
-0.0354041
-0.0260845
-0.0176926
-0.014367
-0.0178758
-0.0268606
-0.0373559
-0.0448427
-0.0462287
-0.0416569
-0.0344764
-0.0292585
-0.0291122
-0.0330726
-0.0312774
-0.0356441
-0.0355684
-0.0261692
-0.0168249
-0.0121061
-0.0141995
-0.022002
-0.0316115
-0.03846
-0.0394781
-0.0346833
-0.0274857
-0.0225967
-0.0233505
-0.0289727
-0.0286703
-0.0338818
-0.0352518
-0.0251518
-0.0138454
-0.0068695
-0.00710403
-0.0137809
-0.0228638
-0.0294207
-0.030074
-0.0247841
-0.0172601
-0.0127584
-0.0150638
-0.0232385
-0.0252248
-0.0300235
-0.0333405
-0.0222543
-0.00838236
0.001356
0.00316245
-0.00258884
-0.0114748
-0.0178908
-0.0179342
-0.0116045
-0.00315603
0.00121187
-0.00287946
-0.0141296
-0.0196464
-0.0228655
-0.0287938
-0.0170692
-0.000703127
0.0117271
0.0153341
0.00999725
0.000978122
-0.00531684
-0.00431637
0.00380292
0.0139669
0.0187565
0.01311
-0.00133788
-0.0106225
-0.012894
-0.0218619
-0.0102285
0.00776057
0.0220241
0.0265834
0.021327
0.0118264
0.005623
0.00797382
0.018484
0.0309129
0.0366642
0.030143
0.0132955
0.000800071
-0.00254052
-0.0144186
-0.0034883
0.0148115
0.0295731
0.034141
0.0282828
0.0180035
0.0118175
0.0155813
0.0284868
0.0432115
0.0502276
0.0437055
0.02587
0.0115985
0.00516494
-0.00771243
0.00377046
0.0238043
0.0393562
0.0424566
0.0333739
0.0193932
0.011414
0.0159397
0.0320203
0.0507832
0.0606435
0.0547511
0.0357906
0.0196792
0.0315277
0.0136089
0.0242842
0.0402002
0.0513521
0.0524103
0.0438369
0.032493
0.0277519
0.0357865
0.0554216
0.0770867
0.0883183
0.082054
0.058444
0.0497291
0.0228554
0.00699923
0.016211
0.028855
0.0369708
0.036101
0.0265151
0.014515
0.00915623
0.0163961
0.0352749
0.0560625
0.0675081
0.0631189
0.0441216
0.038296
0.0105314
-0.00230711
0.00708292
0.0185268
0.0246566
0.0215373
0.00989095
-0.00392817
-0.0108333
-0.00512943
0.0121453
0.0324137
0.0443256
0.0418367
0.026669
0.0232049
-0.00316526
-0.0126324
-0.00288802
0.00755241
0.012211
0.00780257
-0.00471471
-0.0196316
-0.0280535
-0.0245751
-0.00988016
0.00809545
0.0194587
0.0185844
0.0068968
0.00623423
-0.0151959
-0.0214727
-0.0111209
-0.00118741
0.0026234
-0.00233011
-0.0149064
-0.0298877
-0.0393965
-0.0384374
-0.0273052
-0.0125445
-0.00247991
-0.0023294
-0.0109788
-0.00902389
-0.0233124
-0.0269819
-0.0160637
-0.00638285
-0.00307314
-0.00813567
-0.0200647
-0.0347858
-0.0444375
-0.0454895
-0.0377278
-0.0262289
-0.0178098
-0.0171096
-0.0234748
-0.0194716
-0.0267335
-0.0290818
-0.018087
-0.0087439
-0.00578009
-0.0107185
-0.0220401
-0.0352392
-0.0446776
-0.0467328
-0.0412587
-0.0321997
-0.0251424
-0.0241998
-0.0291243
-0.0239829
-0.0264221
-0.0288854
-0.0182995
-0.00927931
-0.00637005
-0.0109081
-0.0212712
-0.0333355
-0.0418678
-0.0439678
-0.0394405
-0.0315824
-0.025223
-0.024289
-0.0287644
-0.0234879
-0.0239217
-0.0276222
-0.017461
-0.00833563
-0.00490868
-0.00865961
-0.0180137
-0.0289267
-0.0367388
-0.0384138
-0.0339033
-0.0262862
-0.020191
-0.0194522
-0.0246242
-0.0197786
-0.0203317
-0.0258701
-0.015615
-0.00556536
-0.000853984
-0.00335087
-0.0117031
-0.0218196
-0.0289885
-0.0300562
-0.0250901
-0.01723
-0.0112695
-0.0110561
-0.0186399
-0.0144932
-0.0156152
-0.0233423
-0.0123222
-0.000428297
0.00636467
0.00556154
-0.00176322
-0.0112976
-0.0179737
-0.0182926
-0.0125061
-0.00411374
0.00152338
-2.34347e-05
-0.00989975
-0.00749666
-0.00896534
-0.0193052
-0.00715391
0.00719121
0.0165947
0.0177558
0.0114348
0.00236935
-0.00373121
-0.00308419
0.00401987
0.0133606
0.0187332
0.0151506
0.00184091
0.00194954
0.000166459
-0.01313
-0.000126712
0.0166165
0.0285644
0.0316111
0.0260889
0.017374
0.0119446
0.0140023
0.0230241
0.0338706
0.0393089
0.0338061
0.0168683
0.0142299
0.0109261
-0.00525643
0.00780549
0.0260755
0.0399772
0.0441667
0.0390649
0.030563
0.0258809
0.0296356
0.0409673
0.0537275
0.0596739
0.0528611
0.0331007
0.0278389
0.0207579
0.00258096
0.0146418
0.0330614
0.0474842
0.0520712
0.0469007
0.0383181
0.0342087
0.0395559
0.0531708
0.067964
0.0748352
0.0676377
0.0464954
0.0394306
0.0266602
0.00749324
0.0204669
0.0403476
0.055116
0.0580812
0.0500849
0.0388177
0.0338497
0.0406311
0.0575035
0.0758985
0.0850845
0.0782978
0.0558684
0.0465566
0.0439407
0.0195796
0.0312912
0.0468638
0.0575178
0.0591134
0.0524097
0.044016
0.0421191
0.0512948
0.0694883
0.0883137
0.0973726
0.0899036
0.0654628
0.0615931
0.0349221
0.0126906
0.0222123
0.0346026
0.0426627
0.042688
0.0351123
0.0260199
0.0233664
0.0319724
0.0498639
0.0687222
0.0786461
0.0732907
0.052505
0.0500802
0.0223277
0.00315552
0.0121116
0.0229747
0.0289734
0.0267987
0.0172331
0.00640047
0.00229457
0.00963688
0.0266266
0.0453902
0.0562835
0.0531385
0.0358788
0.0347478
0.00862969
-0.00726807
0.00165241
0.0114826
0.0160447
0.0124669
0.00162852
-0.0106069
-0.0165514
-0.011386
0.00359434
0.0211051
0.0321908
0.030916
0.0170444
0.0177944
-0.00337847
-0.016031
-0.00643881
0.00313381
0.00693422
0.00257321
-0.00887888
-0.0219733
-0.0296046
-0.027043
-0.0150102
0.000236061
0.0106886
0.0106759
-0.00031451
0.00252199
-0.0112199
-0.0211053
-0.0105262
-0.000786408
0.00261236
-0.00217618
-0.0137253
-0.0270792
-0.0358019
-0.0355385
-0.0265141
-0.0138412
-0.00448485
-0.00380329
-0.0126372
-0.00803277
-0.0140329
-0.0223647
-0.0111295
-0.0012778
0.00185371
-0.00308571
-0.0143953
-0.0273859
-0.0364928
-0.0377134
-0.030957
-0.0203426
-0.0119265
-0.0108221
-0.0182097
-0.0123773
-0.0126755
-0.021098
-0.00974788
0.000110261
0.00318806
-0.00161631
-0.0124442
-0.0247431
-0.0337782
-0.0355745
-0.0299721
-0.0204517
-0.0124555
-0.011006
-0.0177106
-0.0111389
-0.0088568
-0.018808
-0.0075001
0.00261082
0.00608022
0.00175876
-0.00853025
-0.0203814
-0.028893
-0.0305928
-0.0252098
-0.0159477
-0.0079995
-0.00643953
-0.0134643
-0.00646553
-0.00391651
-0.0162767
-0.00457902
0.00645427
0.0109656
0.00756932
-0.00206771
-0.0134407
-0.0214724
-0.0227413
-0.0170326
-0.00762458
0.000213265
0.0012475
-0.00740233
-1.90193e-06
0.00187119
-0.0133367
-0.000563433
0.012239
0.0185678
0.0165449
0.00772183
-0.00313846
-0.0105843
-0.0111691
-0.00477345
0.00493116
0.0123158
0.0118789
0.000453348
0.00791734
0.0089086
-0.00929741
0.00494317
0.0200991
0.0287978
0.0285541
0.0207088
0.0104715
0.00377065
0.00431273
0.0118244
0.0220323
0.0287477
0.0261818
0.0110695
0.0178738
0.0175521
-0.00360971
0.0118164
0.0292813
0.040425
0.0420223
0.0352163
0.0257363
0.0201002
0.0221697
0.0312636
0.0423135
0.0484414
0.0435993
0.0247338
0.0299805
0.0269648
0.00335852
0.0190447
0.037953
0.0509708
0.0540569
0.0481799
0.0395121
0.0350952
0.0389642
0.0499252
0.0621254
0.0680041
0.0613461
0.0395722
0.0426558
0.0348738
0.00987872
0.0247118
0.0437217
0.0574963
0.0614032
0.0560882
0.0480095
0.0446586
0.0502194
0.0631023
0.0766919
0.0828168
0.0752193
0.0519864
0.0528129
0.0388966
0.0137849
0.0287503
0.0485146
0.0623076
0.0649428
0.0577856
0.048452
0.0453337
0.0526874
0.0683392
0.0845457
0.0920807
0.0844193
0.0603902
0.0581239
0.0348024
0.0114634
0.0239917
0.0395455
0.0499618
0.0517225
0.045834
0.0385069
0.0369687
0.0441494
0.0584463
0.0725425
0.0784381
0.0706051
0.0478113
0.0468097
0.0271146
0.00567958
0.0153702
0.0280031
0.0363856
0.0369992
0.0305174
0.0227167
0.0205383
0.0281791
0.0429022
0.0578703
0.0650823
0.0592165
0.0394894
0.0375745
0.0166812
-0.00237405
0.0060686
0.0169576
0.0234419
0.0222107
0.0141667
0.00484869
0.00170964
0.0086974
0.0231533
0.0387851
0.0475312
0.0439028
0.027175
0.0252944
0.00577399
-0.0109254
-0.00283755
0.00706443
0.0122919
0.00970922
0.000168233
-0.0106715
-0.0156053
-0.0104342
0.00326758
0.0189742
0.0287685
0.0271436
0.0131466
0.0122371
-0.00312431
-0.017544
-0.00877033
0.00107776
0.00565607
0.00217258
-0.00837999
-0.020562
-0.0273826
-0.0244039
-0.0125113
0.00231886
0.0124863
0.0123105
0.000503409
0.0011124
-0.00788695
-0.0204245
-0.0103387
-2.64477e-05
0.00420601
1.15786e-05
-0.0111568
-0.0241458
-0.0323892
-0.0314619
-0.0216878
-0.00826093
0.00168941
0.00236557
-0.00793954
-0.00565661
-0.00790656
-0.0196441
-0.00836387
0.00239586
0.00628949
0.00162078
-0.00985733
-0.0231281
-0.0321468
-0.0326626
-0.0245891
-0.0123889
-0.00272144
-0.00146333
-0.010856
-0.00697595
-0.00426177
-0.0168099
-0.00483396
0.00617579
0.00984523
0.00491734
-0.00662289
-0.0198608
-0.0291505
-0.0303872
-0.0232431
-0.0116367
-0.00187096
-3.11378e-05
-0.00900994
-0.00359939
0.00103578
-0.0137798
-0.00135777
0.00998654
0.0137674
0.00890643
-0.00254555
-0.015678
-0.024925
-0.026326
-0.0194499
-0.00793087
0.0021352
0.00441618
-0.00480841
0.00228039
0.00631124
-0.0115273
0.00167809
0.0138873
0.0183601
0.0139984
0.00282596
-0.010106
-0.0191336
-0.0203526
-0.013404
-0.0019091
0.00810043
0.0101326
-0.000354981
0.00865256
0.0111113
-0.00979459
0.00482161
0.0186322
0.0245175
0.0211453
0.0105393
-0.00198711
-0.0105291
-0.011241
-0.00401388
0.00727674
0.0165465
0.0172448
0.0043241
0.0150664
0.0160336
-0.00759993
0.0087247
0.0246651
0.0325378
0.0306367
0.0209205
0.00911384
0.00143052
0.0016523
0.00944046
0.0204582
0.0284592
0.0269931
0.0107816
0.022288
0.0215458
-0.00414436
0.0134783
0.0314795
0.041539
0.0413537
0.0328054
0.022051
0.0156164
0.017205
0.025907
0.036797
0.0433596
0.0393355
0.0198995
0.0306625
0.0272708
0.000574711
0.0183303
0.0375638
0.0494164
0.0508816
0.043635
0.0341444
0.0291957
0.0323222
0.0421678
0.0531898
0.058624
0.0523741
0.0305164
0.0390713
0.0317118
0.00518666
0.0217337
0.0409586
0.0537381
0.0563836
0.0502367
0.0418877
0.0383347
0.0430283
0.0541748
0.0657024
0.0705493
0.0628994
0.0399097
0.0453005
0.033341
0.00793388
0.0235803
0.042681
0.0553232
0.0574018
0.0506598
0.0423439
0.0397709
0.0461576
0.0592334
0.0722091
0.0775028
0.0694488
0.0461823
0.0476437
0.0112203
-0.00612156
0.00554288
0.0201752
0.0298567
0.0312489
0.0254052
0.018225
0.0159325
0.0210335
0.0315535
0.0417137
0.0452635
0.0380776
0.019642
0.0177117
0.00547507
-0.0103173
-0.00146482
0.0107173
0.0188743
0.0193582
0.0131321
0.00578841
0.00341219
0.00910409
0.0206186
0.032057
0.0370838
0.0315836
0.015259
0.0112035
-0.00161098
-0.0159222
-0.00857933
0.00192693
0.00850115
0.0075019
-0.000222082
-0.00871577
-0.0117293
-0.00662126
0.00574824
0.0186522
0.0255883
0.0222108
0.00812967
0.00341045
-0.00829623
-0.0213539
-0.0144232
-0.00466912
0.000942003
-0.0012461
-0.0104025
-0.0208084
-0.0256269
-0.0211529
-0.00891504
0.00504632
0.0137864
0.01245
0.000339527
-0.00395409
-0.0126517
-0.0246087
-0.0168886
-0.00689259
-0.00159682
-0.00466694
-0.0151524
-0.0273553
-0.0341772
-0.0312924
-0.0196899
-0.00529961
0.00468893
0.00490218
-0.00581886
-0.00901892
-0.0132555
-0.0244702
-0.0152092
-0.00428015
0.000921406
-0.00285214
-0.014306
-0.0277958
-0.0362757
-0.035095
-0.0246404
-0.0104021
0.000211063
0.00135379
-0.00867303
-0.0103878
-0.00999847
-0.0214236
-0.0104676
0.00134654
0.0063806
0.00200471
-0.0100696
-0.02424
-0.0337259
-0.0338001
-0.0243918
-0.0104941
0.000501476
0.00216733
-0.00776364
-0.00773361
-0.00420873
-0.0173453
-0.0051083
0.00728445
0.0120858
0.00723491
-0.00518701
-0.0196215
-0.0295202
-0.0302177
-0.0213664
-0.0075668
0.00388559
0.00603636
-0.00420257
-0.0021138
0.00197199
-0.0142838
-0.00113072
0.0116897
0.0163897
0.0113326
-0.0012274
-0.015686
-0.0256023
-0.0264149
-0.0177024
-0.00382421
0.00804546
0.0106083
-0.000313192
0.00433936
0.00666532
-0.0132316
0.000959243
0.0144705
0.0194737
0.0145875
0.00214448
-0.0121264
-0.0217876
-0.0224278
-0.0137446