/*--------------------------------*- C++ -*----------------------------------*\
| =========                 |                                                 |
| \\      /  F ield         | OpenFOAM: The Open Source CFD Toolbox           |
|  \\    /   O peration     | Version:  3.0.0                                 |
|   \\  /    A nd           | Web:      www.OpenFOAM.org                      |
|    \\/     M anipulation  |                                                 |
\*---------------------------------------------------------------------------*/
FoamFile
{
    version     2.0;
    format      ascii;
    class       surfaceScalarField;
    location    "6";
    object      phi;
}
// * * * * * * * * * * * * * * * * * * * * * * * * * * * * * * * * * * * * * //

dimensions      [0 3 -1 0 0 0 0];

internalField   nonuniform List<scalar> 
11520
(
-0.000588019
-0.00036273
0.000375544
-0.00056147
-0.000355351
0.000414182
-0.000464067
-0.000353967
0.000423395
-0.000302969
-0.000332797
0.000393199
-9.5418e-05
-0.0002815
0.000327048
0.000129642
-0.000197512
0.000236884
0.000334015
-8.3251e-05
0.000140966
0.000477482
5.49302e-05
5.86139e-05
0.000530708
0.000193541
4.29589e-07
0.000487235
0.000279896
-3.94125e-05
0.000360708
0.000265412
-6.65913e-05
0.000175585
0.000163847
-7.15725e-05
-3.72406e-05
3.61063e-05
-3.85186e-05
-0.000244625
-7.365e-05
3.25866e-05
-0.000418709
-0.000160055
0.000122718
-0.000226317
0.000194808
-0.000644706
-0.00052254
0.000299367
-0.000621517
-0.000515555
0.000340673
-0.000522539
-0.000520015
0.000360584
-0.000357325
-0.00050456
0.000350113
-0.000142552
-0.000457102
0.000310801
9.5578e-05
-0.000373289
0.00024934
0.000322449
-0.00025371
0.000176613
0.000498625
-0.000103408
0.000105057
0.00058481
5.7003e-05
4.16563e-05
0.000559035
0.000171807
-1.70394e-05
0.000428125
0.000180351
-6.77312e-05
0.000222538
8.74964e-05
-9.12273e-05
-1.69355e-05
-4.43879e-05
-7.06901e-05
-0.000249338
-0.000165008
-1.04466e-05
-0.000444499
-0.000263217
7.09676e-05
-0.000332842
0.000138597
-0.000684484
-0.000622976
0.000211696
-0.000668231
-0.000623102
0.000260779
-0.000568489
-0.000637222
0.000293137
-0.000397497
-0.000631219
0.000300584
-0.000173519
-0.000592578
0.00028263
7.72339e-05
-0.000516079
0.000242175
0.000322512
-0.000401184
0.000185381
0.000525924
-0.000250627
0.000120119
0.00064658
-7.82142e-05
5.133e-05
0.000650789
6.6181e-05
-2.19906e-05
0.000530211
0.000111407
-9.07635e-05
0.00031267
4.30452e-05
-0.00013011
4.70967e-05
-8.2859e-05
-0.000121826
-0.000216
-0.000210103
-7.06875e-05
-0.000439962
-0.000318391
3.41042e-06
-0.000393674
7.17718e-05
-0.00070697
-0.000652012
0.000117966
-0.000699138
-0.000664759
0.000176972
-0.000599465
-0.000690623
0.000221956
-0.000422825
-0.000695828
0.000245468
-0.000189683
-0.000668493
0.000244884
7.25815e-05
-0.000603375
0.00021994
0.00033241
-0.000499584
0.000173526
0.000556488
-0.0003583
0.000110722
0.000706231
-0.000186314
3.63785e-05
0.000742399
-2.06803e-05
-4.95915e-05
0.000640606
6.47378e-05
-0.000132174
0.000419362
3.26874e-05
-0.000183938
0.000131729
-7.63832e-05
-0.000185437
-0.000162044
-0.000203547
-0.000141646
-0.000416283
-0.000319226
-7.21427e-05
-0.000402638
-5.57262e-07
-0.000718798
-0.000609157
2.70517e-05
-0.00071858
-0.00063831
9.65037e-05
-0.0006189
-0.000676623
0.000153403
-0.000436933
-0.00069344
0.000190691
-0.000195401
-0.000678262
0.000203579
7.6608e-05
-0.000626392
0.00018919
0.00034711
-0.000537054
0.00014806
0.000584411
-0.000410698
8.39845e-05
0.000753851
-0.000248702
1.76619e-06
0.000815635
-7.40813e-05
-9.48875e-05
0.000734586
4.60808e-05
-0.000188032
0.000516374
5.56864e-05
-0.000248166
0.000213107
-2.70984e-05
-0.000255773
-0.000106523
-0.000146924
-0.000216295
-0.00038766
-0.000266273
-0.000149117
-0.0003587
-7.37062e-05
-0.000724963
-0.000503615
-5.12052e-05
-0.000730029
-0.000551039
2.87045e-05
-0.000629808
-0.000601342
9.59455e-05
-0.00044314
-0.000629068
0.000143654
-0.000194795
-0.000625626
0.000165259
8.43224e-05
-0.000587235
0.000155995
0.000361233
-0.000513454
0.000115089
0.000604675
-0.000404374
4.6194e-05
0.000783326
-0.000257612
-4.56536e-05
0.00085993
-8.45337e-05
-0.000151921
0.000795386
6.01882e-05
-0.000252518
0.000584109
0.000109822
-0.000316731
0.000273239
5.89036e-05
-0.000326163
-6.37247e-05
-4.72394e-05
-0.000287378
-0.00036426
-0.000166563
-0.000219877
-0.000267488
-0.000139662
-0.000726545
-0.000351202
-0.000106399
-0.000734139
-0.000417237
-1.73627e-05
-0.00063289
-0.000478086
5.72405e-05
-0.000442669
-0.000515153
0.000110703
-0.000189937
-0.000522085
0.000135183
9.27889e-05
-0.000496189
0.000124937
0.000371374
-0.000437398
7.90203e-05
0.000614524
-0.000345342
1.90242e-06
0.000792589
-0.000215244
-9.95484e-05
0.000872361
-4.9955e-05
-0.000213793
0.000816289
0.000108554
-0.000318118
0.000612892
0.000191067
-0.000381788
0.000302728
0.000172129
-0.000388465
-4.08097e-05
8.33728e-05
-0.000346365
-0.000350293
-3.26039e-05
-0.000275455
-0.000140594
-0.000189831
-0.000721041
-0.000172468
-0.00012946
-0.000728836
-0.000255928
-3.42408e-05
-0.000626625
-0.000324963
4.30583e-05
-0.000434671
-0.000368985
9.59847e-05
-0.000180709
-0.00038408
0.000116254
0.000101499
-0.000368635
9.82998e-05
0.000376776
-0.000323083
4.22762e-05
0.00061356
-0.00024594
-4.51664e-05
0.00078297
-0.000130968
-0.000155159
0.000855933
2.42318e-05
-0.000273352
0.000799932
0.0001873
-0.000375946
0.000603667
0.000292081
-0.000433609
0.000301739
0.000299842
-0.000432754
-3.68488e-05
0.000228467
-0.000383351
-0.000344205
0.000118192
-0.000306059
5.16309e-06
-0.000215092
-0.000703137
8.72177e-06
-0.000113386
-0.000710042
-8.86608e-05
-1.68461e-05
-0.000607896
-0.000162487
5.67558e-05
-0.000416828
-0.000210104
0.000101462
-0.000165345
-0.000230343
0.000109624
0.000111739
-0.000222512
7.72023e-05
0.000379064
-0.000186991
6.65801e-06
0.000604071
-0.00012174
-9.14448e-05
0.000758564
-1.899e-05
-0.000206763
0.000817328
0.000125609
-0.000322629
0.000755414
0.000285834
-0.000416132
0.000565819
0.000400603
-0.000461339
0.000278818
0.000425563
-0.00044814
-4.40965e-05
0.00036824
-0.000388039
-0.00033906
0.000264795
-0.000302376
0.000150496
-0.00020761
-0.000665682
0.000167864
-5.4914e-05
-0.00067258
6.29292e-05
3.67075e-05
-0.00057287
-1.13928e-05
9.94899e-05
-0.000386399
-5.78909e-05
0.000127873
-0.000141589
-7.95037e-05
0.000116276
0.000126125
-7.56739e-05
6.35263e-05
0.000380927
-4.65922e-05
-2.38021e-05
0.000589928
1.04333e-05
-0.000131777
0.000724783
0.000103669
-0.000247384
0.000765256
0.00023777
-0.000353066
0.000694886
0.000387898
-0.000429263
0.000513493
0.000499143
-0.000455538
0.000247992
0.000529108
-0.000426047
-5.02063e-05
0.000480523
-0.000353281
-0.000324686
0.00038492
-0.000258797
0.000273852
-0.000162528
-0.000602209
0.000281585
4.21873e-05
-0.000611589
0.000179003
0.000123544
-0.000519334
0.000111327
0.000169175
-0.000341786
6.96312e-05
0.000175027
-0.000108025
5.11852e-05
0.000137656
0.00014645
5.52889e-05
6.05803e-05
0.000385005
8.20338e-05
-4.40672e-05
0.00057442
0.000134876
-0.000159461
0.000687465
0.000221436
-0.000269028
0.000707727
0.000343141
-0.000357377
0.000629347
0.000474328
-0.000409451
0.000459842
0.00056709
-0.000412518
0.000222546
0.00058855
-0.000365395
-4.35326e-05
0.000543075
-0.000280296
-0.000291411
0.000457201
-0.000177974
0.00035558
-8.2005e-05
-0.000516792
0.000330187
0.000163767
-0.000530981
0.00024254
0.000233715
-0.000449008
0.000187596
0.000260216
-0.000284962
0.000156391
0.000240162
-6.61772e-05
0.000145955
0.00017439
0.00017217
0.000155242
7.19969e-05
0.000392598
0.000184625
-4.90999e-05
0.000560673
0.000237673
-0.00016791
0.000650087
0.000319627
-0.000266357
0.000649694
0.000425778
-0.000332357
0.000564608
0.000527471
-0.000357907
0.000409766
0.000586408
-0.000338825
0.000204322
0.000586544
-0.000277285
-2.57582e-05
0.000539285
-0.000182842
-0.000242317
0.000464545
-7.43108e-05
0.000378162
2.1725e-05
-0.00043358
0.000302107
0.00028464
-0.000449099
0.000239098
0.000346159
-0.000376927
0.000202094
0.000357085
-0.000227057
0.000185964
0.000314623
-2.39033e-05
0.000188624
0.000223759
0.000198508
0.00020901
9.95884e-05
0.000401606
0.00024759
-3.4179e-05
0.000548872
0.000306794
-0.000152593
0.000614628
0.000387017
-0.000237247
0.00059376
0.000474117
-0.000281146
0.000501354
0.000536651
-0.000285094
0.000357762
0.000550251
-0.000251882
0.000178754
0.000520382
-0.000183421
-1.8771e-05
0.000467131
-8.4692e-05
-0.000203277
0.00040171
2.79042e-05
0.000331248
0.000125242
-0.000392286
0.00019779
0.000376097
-0.00040049
0.000161237
0.00043263
-0.000331029
0.000142833
0.000435737
-0.000189751
0.00014331
0.000381253
3.03084e-06
0.000162713
0.000276485
0.000215301
0.000200286
0.00014062
0.000407588
0.000255834
1.46921e-06
0.000540336
0.000329389
-0.000113197
0.000586786
0.000413769
-0.000185595
0.000546799
0.000482851
-0.000214616
0.000442813
0.00050321
-0.000208918
0.000298766
0.000468706
-0.000173444
0.000130331
0.000406605
-0.000106115
-4.6395e-05
0.000343198
-8.83497e-06
-0.000207742
0.000282481
0.000105084
0.000220833
0.000201253
-0.000413999
3.32126e-05
0.000418419
-0.000408744
1.77441e-05
0.00047016
-0.00033388
1.25816e-05
0.000473066
-0.000192738
2.58916e-05
0.00042021
-1.38531e-06
6.11539e-05
0.000318186
0.000211354
0.000118089
0.000186041
0.000406387
0.00019542
5.1835e-05
0.000540581
0.000290706
-5.63504e-05
0.0005817
0.000389136
-0.000122261
0.000527231
0.00045176
-0.000149029
0.000403875
0.000440313
-0.000147769
0.000242131
0.000365298
-0.000119754
6.38755e-05
0.00027337
-5.86915e-05
-0.000111593
0.000195919
3.45044e-05
-0.000262624
0.000132042
0.000143319
7.15668e-05
0.000232916
-0.00047767
0.000408758
-0.000460495
0.000455681
-0.000377596
0.000463282
-0.000232162
0.00042236
-3.71211e-05
0.000337176
0.000182941
0.000223037
0.000392283
0.00010412
0.000545804
6.6467e-06
0.000603304
-5.9222e-05
0.000547814
-9.43981e-05
0.00040133
-0.000107817
0.000206516
-9.34013e-05
1.3555e-06
-4.22431e-05
-0.000187088
4.24142e-05
-0.000340184
0.000142647
0.000222429
-0.00068881
-0.0003487
0.000620361
-0.000644325
-0.000299256
0.000554068
-0.000514719
-0.000250547
0.000470099
-0.000311868
-0.00018689
0.000355766
-6.04303e-05
-0.000107871
0.00022608
0.000201596
-1.91663e-05
0.000106093
0.000428527
7.45979e-05
2.28315e-05
0.000576794
0.000170898
-2.82818e-06
0.000616554
0.000256534
3.07188e-05
0.000543569
0.00028798
9.70297e-05
0.000379311
0.000227031
0.000164078
0.000157348
9.79223e-05
0.000226473
-8.54852e-05
-3.77357e-05
0.000294948
-0.00031446
-0.000141924
0.00036996
-0.000503972
-0.000212879
0.000437598
-0.000252061
0.000460451
-0.000719586
-0.000500037
0.000512542
-0.000681345
-0.000452314
0.000455489
-0.000554307
-0.00040827
0.00039127
-0.000351078
-0.000347103
0.000307097
-9.41712e-05
-0.000266692
0.000212716
0.000182058
-0.000171257
0.000125201
0.000434945
-6.5616e-05
6.39397e-05
0.000618191
4.75831e-05
4.51263e-05
0.000689924
0.000155779
7.06779e-05
0.000630769
0.000212023
0.000118072
0.000459249
0.000168646
0.000162175
0.000217593
4.44227e-05
0.000203928
-4.80532e-05
-9.78613e-05
0.000255082
-0.000298441
-0.000215767
0.000313784
-0.000506204
-0.00030129
0.000367142
-0.000346783
0.000384862
-0.000732781
-0.000588114
0.000377528
-0.000702435
-0.000550573
0.000328692
-0.000578015
-0.000517785
0.000278232
-0.000373902
-0.000466767
0.000216135
-0.000112549
-0.000394381
0.000148965
0.000173733
-0.000303434
8.80706e-05
0.000445394
-0.000197924
4.60269e-05
0.000658155
-7.91359e-05
3.40775e-05
0.000765813
4.51575e-05
5.42936e-05
0.000734447
0.000131956
8.9443e-05
0.000569727
0.000122485
0.000120117
0.000315063
1.92388e-05
0.000149737
2.55695e-05
-0.000119351
0.000189157
-0.000251107
-0.000245324
0.000235546
-0.000483458
-0.000342735
0.000277206
-0.000396418
0.000292975
-0.000731057
-0.000606412
0.000230143
-0.000709164
-0.000584443
0.000188948
-0.000587403
-0.000566317
0.000148727
-0.000382085
-0.000529495
0.000102878
-0.000116674
-0.000470588
5.56791e-05
0.000176982
-0.000391263
1.41129e-05
0.000460957
-0.000294655
-1.37168e-05
0.000694068
-0.000180625
-2.09006e-05
0.000831561
-5.0757e-05
-5.20064e-06
0.000830467
6.14745e-05
2.19844e-05
0.000681303
9.21844e-05
4.72907e-05
0.000421689
2.22958e-05
7.26195e-05
0.000112686
-0.000101913
0.000106128
-0.000189513
-0.000228867
0.000144096
-0.000446495
-0.000334312
0.000176416
-0.000397537
0.000191245
-0.000723581
-0.000559874
8.71744e-05
-0.000708659
-0.000555936
5.30748e-05
-0.000588789
-0.000553496
2.07105e-05
-0.000381954
-0.0005324
-1.32396e-05
-0.000112961
-0.00048939
-4.66114e-05
0.000185595
-0.000425301
-7.53286e-05
0.000476262
-0.000342306
-9.49565e-05
0.000719842
-0.000239477
-0.000100743
0.000874882
-0.0001136
-9.04315e-05
0.000897425
1.36916e-05
-6.96469e-05
0.000766679
8.11954e-05
-4.6297e-05
0.000509805
5.06291e-05
-1.96259e-05
0.000188738
-5.00509e-05
1.34311e-05
-0.000133045
-0.000170494
4.7116e-05
-0.000410142
-0.00027946
7.3128e-05
-0.000352186
8.77205e-05
-0.000717747
-0.000460643
-3.58443e-05
-0.000707006
-0.000475132
-6.28406e-05
-0.000587901
-0.000487884
-8.87711e-05
-0.00037947
-0.000482075
-0.000115102
-0.000108013
-0.000455025
-0.000140562
0.00019265
-0.000407055
-0.000162914
0.000484601
-0.000339483
-0.000179685
0.000729586
-0.000250672
-0.000187596
0.000889202
-0.000134579
-0.00018429
0.000923938
-2.53642e-06
-0.000170429
0.000808323
9.25373e-05
-0.000148245
0.000559624
0.000100132
-0.000117535
0.000235766
2.84616e-05
-8.08179e-05
-9.63122e-05
-7.8991e-05
-4.68026e-05
-0.000385756
-0.000186805
-2.30888e-05
-0.00026718
-7.26866e-06
-0.000716975
-0.00032468
-0.00012511
-0.000707123
-0.000356543
-0.000145803
-0.000587357
-0.000382635
-0.000167775
-0.000377511
-0.000390428
-0.000190791
-0.000105255
-0.000377989
-0.000214107
0.000194253
-0.00034532
-0.000236306
0.000482312
-0.000292937
-0.000255585
0.000720947
-0.000218446
-0.000268959
0.000874481
-0.000114156
-0.000273506
0.000909168
1.54379e-05
-0.000266454
0.000801815
0.000126982
-0.00024521
0.000563566
0.000165959
-0.000209366
0.000245685
0.000123677
-0.000165801
-8.60791e-05
3.33841e-05
-0.000126975
-0.000378352
-6.90886e-05
-0.000100898
-0.000154516
-8.11232e-05
-0.000720568
-0.000169401
-0.000169631
-0.000708508
-0.000216839
-0.000186005
-0.000586762
-0.000253524
-0.000207799
-0.000375783
-0.000272187
-0.000233235
-0.000104474
-0.000271894
-0.00026115
0.00019071
-0.000252473
-0.000289731
0.000470238
-0.000213626
-0.000316563
0.00069653
-0.000152158
-0.000337747
0.0008361
-5.95199e-05
-0.000349365
0.000861346
6.33299e-05
-0.00034649
0.000754963
0.000181386
-0.000323968
0.000526809
0.000241627
-0.000281123
0.000221255
0.000224407
-0.00022793
-0.000100757
0.000152171
-0.000180126
-0.000386842
5.81308e-05
-0.000147193
-2.91926e-05
-0.000121797
-0.000724348
-1.27972e-05
-0.000160464
-0.000707903
-7.30329e-05
-0.000177097
-0.000583316
-0.000116706
-0.000204649
-0.00037153
-0.000142668
-0.000239843
-0.000102639
-0.000151184
-0.000279978
0.000185718
-0.000142109
-0.000321518
0.000453187
-0.000114434
-0.000360003
0.000663003
-6.3818e-05
-0.0003896
0.000783778
1.81474e-05
-0.000405205
0.000793796
0.000131744
-0.000401061
0.000683229
0.000247781
-0.000371959
0.000463854
0.000318003
-0.000318341
0.000174351
0.000318095
-0.000252324
-0.000131295
0.000261823
-0.000192046
-0.000404365
0.000178122
-0.000149298
9.23166e-05
-0.000118662
-0.000721116
0.000127881
-9.27818e-05
-0.00069999
5.89405e-05
-0.000116392
-0.000572825
1.28148e-05
-0.000157197
-0.000360877
-1.63326e-05
-0.00021041
-9.55696e-05
-2.95809e-05
-0.000270635
0.000184248
-2.73884e-05
-0.000331012
0.000437793
-8.04988e-06
-0.000383731
0.000628772
3.39406e-05
-0.000420514
0.000728439
0.000106062
-0.000434966
0.000720943
0.00020826
-0.000422086
0.000604091
0.000314573
-0.000379203
0.000393143
0.000383151
-0.000309738
0.000122044
0.000390945
-0.000227797
-0.000163318
0.000346799
-0.000152895
-0.000419422
0.000274467
-9.90377e-05
0.000194581
-6.59086e-05
-0.000702038
0.000236003
3.11963e-05
-0.00067842
0.000165519
-6.65253e-06
-0.000550958
0.000121851
-6.73229e-05
-0.000340608
9.45772e-05
-0.000146233
-7.99277e-05
8.06222e-05
-0.000233227
0.000190531
7.97966e-05
-0.000317064
0.000429438
9.42785e-05
-0.000385303
0.000600924
0.000129588
-0.000426595
0.000679256
0.000192536
-0.000433832
0.00065426
0.000280569
-0.000404691
0.000531736
0.000369055
-0.000341409
0.000330849
0.000423728
-0.000252209
8.07948e-05
0.000428616
-0.000153012
-0.000181775
0.000392197
-6.31243e-05
-0.000419231
0.000332645
1.30449e-06
0.000263587
3.4665e-05
-0.000662079
0.000294288
0.000198867
-0.000640531
0.00023287
0.000144817
-0.000516246
0.000198362
5.94188e-05
-0.000309763
0.000178221
-4.99638e-05
-5.49631e-05
0.000168622
-0.00016841
0.000206113
0.000169194
-0.000278477
0.00043097
0.000182491
-0.00036217
0.000583664
0.000213955
-0.00040497
0.000641279
0.000268438
-0.000399875
0.000599747
0.000338968
-0.000349223
0.00047306
0.000400532
-0.000262697
0.000284108
0.000428336
-0.000154481
5.70928e-05
0.000419291
-4.09447e-05
-0.000180773
0.000385797
6.14238e-05
-0.00039884
0.000339527
0.000136873
0.000286112
0.000169054
-0.000610231
0.000285405
0.000381755
-0.000592498
0.00024581
0.000315485
-0.00047413
0.000227994
0.000209084
-0.000273531
0.000221438
7.08062e-05
-2.48389e-05
0.000222521
-7.88319e-05
0.000228231
0.000230523
-0.00021481
0.000441379
0.000247979
-0.000312814
0.00057769
0.000279908
-0.000354858
0.000616173
0.000327715
-0.000335008
0.000558832
0.000377595
-0.000262432
0.000427365
0.000403463
-0.000156558
0.000247702
0.000393028
-3.69111e-05
4.03783e-05
0.00036038
8.28142e-05
-0.000174463
0.00032384
0.000192106
-0.000372002
0.000288274
0.000276696
0.000250691
0.00031066
-0.000574332
0.000197916
0.000541296
-0.00055619
0.000188171
0.000472127
-0.00044183
0.00019306
0.000356312
-0.000245736
0.000206879
0.000199719
-4.81226e-07
0.000226476
2.72748e-05
0.000249525
0.000250184
-0.000129047
0.000457563
0.000279754
-0.000238344
0.000584071
0.000319158
-0.000278956
0.000607625
0.000365
-0.000246432
0.000534597
0.000394162
-0.000158155
0.000393129
0.000379781
-4.37681e-05
0.000212398
0.000325721
7.4594e-05
1.28651e-05
0.000263933
0.000189865
-0.00018759
0.000217102
0.000298359
-0.000367134
0.000184927
0.000387975
0.000156459
0.000424972
-0.000579755
4.0792e-05
0.000639904
-0.000555441
5.87788e-05
0.000575238
-0.000440385
8.55658e-05
0.000465504
-0.000244579
0.000121832
0.000309451
3.30296e-06
0.000165247
0.000131532
0.000259963
0.000212148
-3.25831e-05
0.000476556
0.000261991
-0.000146995
0.00060859
0.000317179
-0.000186405
0.000628063
0.000370477
-0.000147212
0.000539921
0.000387764
-5.44891e-05
0.000378416
0.000339358
5.41593e-05
0.00018051
0.000245169
0.000158703
-2.81796e-05
0.000153176
0.000260756
-0.000227173
8.9741e-05
0.000360859
-0.000397815
5.07159e-05
0.000448171
2.23431e-05
0.000484612
-0.000616792
0.000657587
-0.000587473
0.000600027
-0.000471403
0.000507014
-0.000274935
0.000369194
-2.12591e-05
0.000206148
0.000249972
5.18847e-05
0.000489272
-5.6583e-05
0.000646946
-9.1572e-05
0.000681573
-4.99551e-05
0.000585914
3.75881e-05
0.000395891
0.000128121
0.000165314
0.00020834
-6.55823e-05
0.000288932
-0.000273988
0.000374086
-0.000445116
0.000452003
0.000483551
-0.00072255
-0.000269768
0.000807468
-0.000644717
-0.000183342
0.000619659
-0.000480881
-9.39651e-05
0.000429221
-0.000250864
-5.04935e-07
0.000226468
1.35685e-05
8.92679e-05
3.94965e-05
0.000271648
0.000165604
-9.63647e-05
0.000481802
0.000224176
-0.000151388
0.000608745
0.000267673
-0.000108279
0.000629103
0.000291395
2.5764e-05
0.000537121
0.000264204
0.000208813
0.000350827
0.000159989
0.000382764
0.00010703
9.57011e-06
0.000519212
-0.000150543
-0.000126529
0.000621896
-0.000384651
-0.000214743
0.000694334
-0.000569932
-0.000255069
0.00073116
-0.000252161
0.000701221
-0.000728333
-0.000395408
0.000677597
-0.000662515
-0.00030646
0.000512789
-0.000506962
-0.00021266
0.000354412
-0.000279711
-0.000111399
0.00019074
-9.16657e-06
-1.06415e-05
4.20809e-05
0.000266709
7.95303e-05
-6.46004e-05
0.000506279
0.000153067
-0.000104521
0.000668673
0.000211253
-6.08476e-05
0.000718197
0.000249469
6.30808e-05
0.000637423
0.000234907
0.000228141
0.000444171
0.000136779
0.000378636
0.000184219
-1.64827e-05
0.000489933
-9.1894e-05
-0.000163832
0.000568497
-0.000343634
-0.000268552
0.000619333
-0.000545431
-0.000325249
0.000639118
-0.000329631
0.000605819
-0.000711596
-0.000464427
0.000501509
-0.000658401
-0.000384743
0.00035378
-0.000512529
-0.000298425
0.000218125
-0.000291589
-0.000202443
8.62386e-05
-2.14779e-05
-0.000104182
-2.76053e-05
0.000263162
-1.28364e-05
-0.000104203
0.000522891
6.54446e-05
-0.00012608
0.000716178
0.000131886
-7.98424e-05
0.00080082
0.000184836
3.42839e-05
0.0007461
0.000193765
0.000185306
0.000560042
0.000120134
0.000322822
0.000290329
-1.94674e-05
0.000422434
-4.67554e-06
-0.000167521
0.000487851
-0.000277813
-0.000282661
0.000522793
-0.000499274
-0.000352635
0.000526054
-0.000366901
0.000487605
-0.000680447
-0.000473797
0.00030842
-0.000639095
-0.000410386
0.00017324
-0.000502549
-0.000339052
5.28075e-05
-0.000288561
-0.00025748
-5.60732e-05
-2.19424e-05
-0.000171985
-0.000143137
0.000264761
-8.98962e-05
-0.00019553
0.000534551
-1.61207e-05
-0.000201941
0.000747742
5.09381e-05
-0.000153144
0.000861387
0.000113501
-4.75111e-05
0.000836282
0.000147624
9.32304e-05
0.000667372
0.000109518
0.000226817
0.000397074
-2.32795e-06
0.000325777
8.86499e-05
-0.000139757
0.000386787
-0.000203228
-0.0002578
0.000411113
-0.000442645
-0.000336853
0.000400051
-0.000362393
0.000355633
-0.00064758
-0.000431314
0.000123828
-0.00061542
-0.000386974
-2.49679e-06
-0.000486723
-0.000334766
-0.000112273
-0.000279141
-0.00027247
-0.000205832
-1.74588e-05
-0.000205282
-0.000274996
0.000266738
-0.000138445
-0.000310976
0.000537672
-7.51754e-05
-0.000306836
0.000757832
-1.31347e-05
-0.000256829
0.000887093
5.29308e-05
-0.000159122
0.000885449
0.000107223
-2.7602e-05
0.000737514
0.000105754
0.000105402
0.0004759
3.00358e-05
0.000209625
0.000163392
-8.66072e-05
0.00027279
-0.000139817
-0.00019947
0.000291994
-0.000391592
-0.000282787
0.000270837
-0.000319157
0.000221335
-0.000622803
-0.000349818
-3.2985e-05
-0.000596588
-0.000324944
-0.000151086
-0.000473329
-0.000292463
-0.000254333
-0.000271336
-0.00025094
-0.000338626
-1.57541e-05
-0.000204103
-0.000397323
0.000261963
-0.000154996
-0.000424081
0.000526643
-0.000104986
-0.000414554
0.0007424
-5.09242e-05
-0.000365563
0.000872967
1.4152e-05
-0.000276079
0.000882765
8.12307e-05
-0.000154234
0.00075332
0.000110819
-2.38663e-05
0.00050703
7.24914e-05
8.62999e-05
0.00020105
-1.67939e-05
0.000155349
-0.000102992
-0.000117256
0.000175026
-0.00035873
-0.000199781
0.000149643
-0.000244929
9.82198e-05
-0.000611329
-0.000243756
-0.000146777
-0.000586708
-0.000236857
-0.000258511
-0.000466388
-0.00022292
-0.000357637
-0.000269129
-0.000201117
-0.000437872
-2.06871e-05
-0.000173866
-0.000492785
0.000247214
-0.000142284
-0.000516919
0.000499734
-0.000105922
-0.000507169
0.000702369
-6.06802e-05
-0.000461838
0.000822679
1.03626e-06
-0.0003807
0.000831756
7.44784e-05
-0.000268779
0.000713913
0.000126064
-0.000142611
0.00048533
0.000120366
-2.86569e-05
0.000194641
6.01356e-05
4.79594e-05
-9.97618e-05
-2.31899e-05
7.33609e-05
-0.000350414
-0.000100148
5.01207e-05
-0.000150662
1.12953e-06
-0.000613537
-0.000127611
-0.000206695
-0.000586062
-0.000136206
-0.000314132
-0.000465674
-0.000137821
-0.000413286
-0.000271721
-0.000132703
-0.000495602
-3.07168e-05
-0.000122306
-0.000553715
0.000225283
-0.00010622
-0.000581795
0.0004617
-8.22536e-05
-0.000576649
0.000645577
-4.54098e-05
-0.000536894
0.000748115
1.18496e-05
-0.000462717
0.000747346
8.66312e-05
-0.000357873
0.000633501
0.000150742
-0.000234801
0.00042067
0.000168866
-0.000116792
0.000149448
0.000134423
-3.09955e-05
-0.000127817
6.98987e-05
4.04992e-06
-0.000365882
1.82419e-06
-1.10991e-05
-5.08072e-05
-5.30777e-05
-0.000626077
-1.46164e-05
-0.000203561
-0.000591752
-3.55175e-05
-0.00031211
-0.000467975
-4.83905e-05
-0.000417855
-0.000275021
-5.54684e-05
-0.000510032
-4.03164e-05
-5.78515e-05
-0.000579136
0.000203468
-5.39282e-05
-0.000617595
0.000422208
-4.02109e-05
-0.000620786
0.000584729
-1.08634e-05
-0.000586667
0.000665903
4.10372e-05
-0.000515567
0.000650063
0.000112905
-0.000411496
0.000534019
0.000180674
-0.000285847
0.000332645
0.00021224
-0.000160341
8.04971e-05
0.000196838
-6.2591e-05
-0.000177081
0.000149485
-1.40537e-05
-0.000398666
9.23861e-05
-1.82757e-05
4.10948e-05
-5.30506e-05
-0.00064263
8.4067e-05
-0.000132221
-0.000598961
5.47911e-05
-0.00025037
-0.000468855
3.56394e-05
-0.000371332
-0.000274045
2.17333e-05
-0.000482422
-4.32736e-05
1.14537e-05
-0.000570711
0.000189871
7.20557e-06
-0.00062529
0.000391672
1.3383e-05
-0.000639126
0.000532856
3.61222e-05
-0.000608684
0.00059203
8.14873e-05
-0.00053459
0.0005592
0.000146239
-0.00042259
0.000437252
0.000209279
-0.000285859
0.000243078
0.000243527
-0.000146852
6.9886e-06
0.00023877
-3.36395e-05
-0.000232062
0.000205391
3.02502e-05
-0.000437304
0.000160306
3.82842e-05
0.000114478
6.78995e-06
-0.000654941
0.000160695
3.76475e-06
-0.000602239
0.000126854
-0.000131417
-0.000464215
0.000106857
-0.000276565
-0.000264942
9.18254e-05
-0.000415598
-3.52646e-05
7.9286e-05
-0.000530737
0.000189976
7.11903e-05
-0.00060629
0.000377278
7.2371e-05
-0.000631592
0.000499059
8.92988e-05
-0.000601552
0.000537564
0.000126772
-0.000517622
0.000488048
0.000179949
-0.000388884
0.000359041
0.000229724
-0.000232847
0.000169668
0.00025554
-7.48497e-05
-5.31751e-05
0.00025231
5.62906e-05
-0.000276686
0.00022884
0.000136937
-0.00046812
0.000196336
0.000156709
0.000159866
0.000126902
-0.000657375
0.000205583
0.000198283
-0.000597538
0.00017542
3.64142e-05
-0.000452376
0.000160038
-0.000138924
-0.000247231
0.000149427
-0.000312711
-1.56676e-05
0.000139966
-0.000460653
0.000205317
0.0001326
-0.000560871
0.000381635
0.00013201
-0.000598128
0.000487091
0.000144373
-0.0005655
0.000507238
0.000172803
-0.000466053
0.000442396
0.000209757
-0.000314189
0.00030664
0.00023716
-0.000134377
0.000121085
0.000243032
4.35831e-05
-9.0703e-05
0.000231723
0.000191431
-0.000301586
0.000213996
0.000287151
-0.0004824
0.000194936
0.000319087
0.00017174
0.000287851
-0.000649591
0.000208377
0.000420505
-0.00058654
0.000192274
0.00023558
-0.000435993
0.000188936
2.96398e-05
-0.000224439
0.00018901
-0.000180331
1.17605e-05
0.000188525
-0.000363591
0.000232681
0.0001871
-0.000490231
0.000402839
0.000188599
-0.000539561
0.00049637
0.000198599
-0.000502614
0.000501255
0.000217811
-0.0003849
0.00042234
0.000234454
-0.000208215
0.000279175
0.000231073
-7.30707e-06
9.44215e-05
0.000205719
0.000185156
-0.000110043
0.000176907
0.000342094
-0.000311416
0.000159088
0.000448388
-0.000484078
0.000151663
0.000492631
0.000143655
0.000462715
-0.000645377
0.000155048
0.00063273
-0.000579887
0.000164641
0.000434272
-0.000424903
0.000182145
0.000208118
-0.000205894
0.00020111
-3.13905e-05
3.86063e-05
0.000217181
-0.000245882
0.000265657
0.00022829
-0.000397287
0.000437206
0.000237071
-0.000458365
0.000525965
0.000248479
-0.000417594
0.000520129
0.000260353
-0.000283139
0.000427645
0.000254904
-8.61215e-05
0.000272111
0.000214713
0.000128126
8.02914e-05
0.000151336
0.000320797
-0.000125315
9.76541e-05
0.000474724
-0.000322816
7.16414e-05
0.000583306
-0.000489794
6.91626e-05
0.000637453
7.30963e-05
0.000613009
-0.000661041
4.23494e-05
0.00078698
-0.000592887
8.28082e-05
0.000588917
-0.000433585
0.000127388
0.000360959
-0.000205485
0.000172653
0.000109809
5.30401e-05
0.000213337
-0.000123149
0.000296272
0.000244483
-0.000292008
0.000482279
0.000266623
-0.000362554
0.000579266
0.000284682
-0.000319595
0.000570611
0.000294904
-0.000173108
0.000463264
0.000272263
3.54991e-05
0.000286458
0.000197318
0.000248361
7.52547e-05
9.50935e-05
0.000426148
-0.00014305
1.30979e-05
0.000563617
-0.000344418
-3.04813e-05
0.000664351
-0.000510546
-3.82485e-05
0.00072171
-2.92359e-05
0.000703062
-0.00069076
0.000842762
-0.000625637
0.000657632
-0.000467216
0.000446988
-0.000232462
0.00020688
4.37028e-05
-2.3796e-05
0.000313938
-0.000195093
0.000530714
-0.000266847
0.000654263
-0.000219603
0.000656681
-6.42681e-05
0.000535756
0.00014677
0.000327083
0.000341731
8.40944e-05
0.000487909
-0.000152824
0.000596102
-0.000362957
0.000678215
-0.000532994
0.00073058
0.000715924
-0.000660769
-0.000168652
0.000878929
-0.000541307
-5.89556e-05
0.000576511
-0.000352399
5.56795e-05
0.000288753
-0.000121521
0.00016381
1.77247e-05
0.000116117
0.000251672
-0.000199197
0.000325123
0.000307528
-0.000325875
0.000477072
0.000329089
-0.000337983
0.000553565
0.000322364
-0.000226038
0.00054477
0.000288066
-3.88845e-06
0.000444565
0.000207453
0.00028445
0.000260179
6.81241e-05
0.000563928
2.22761e-05
-9.52387e-05
0.000778955
-0.000224424
-0.000223708
0.000914909
-0.000438597
-0.000287306
0.000976669
-0.000593873
-0.000288557
0.000969237
-0.000239509
0.000879017
-0.00064941
-0.000247183
0.000748177
-0.000548425
-0.000128818
0.000481666
-0.000371479
2.69816e-08
0.000233119
-0.000142582
0.000124599
1.05444e-06
0.000105304
0.000228853
-0.000182986
0.000337146
0.00030028
-0.000289196
0.000520819
0.000334485
-0.00029359
0.000630731
0.000336203
-0.000184599
0.000646886
0.000306401
2.85918e-05
0.000556189
0.000226217
0.000300075
0.00036703
8.16554e-05
0.000554264
0.000116891
-9.21856e-05
0.000737019
-0.000143665
-0.0002362
0.000841545
-0.00037291
-0.000317785
0.000879058
-0.00054503
-0.000334522
0.000857204
-0.000290754
0.000769394
-0.000610314
-0.000288352
0.000555328
-0.000530152
-0.000174677
0.000319477
-0.000370575
-4.6919e-05
0.000105494
-0.00015258
7.85209e-05
-8.56787e-05
9.53343e-05
0.000185648
-0.000232314
0.000339918
0.00026211
-0.000310616
0.000547922
0.000302992
-0.000302591
0.000689228
0.000312358
-0.000197303
0.000736506
0.00029276
6.468e-07
0.00066761
0.000226598
0.00025382
0.000485712
9.58079e-05
0.000490567
0.00023045
-7.20498e-05
0.00065756
-4.26041e-05
-0.000220885
0.000745591
-0.000287547
-0.00031443
0.00076438
-0.000475471
-0.000344584
0.00072404
-0.000310633
0.000629677
-0.000556651
-0.000289404
0.000339938
-0.000495905
-0.000189418
0.000127234
-0.000354369
-7.51043e-05
-6.05423e-05
-0.000150528
3.74843e-05