/*--------------------------------*- C++ -*----------------------------------*\
| =========                 |                                                 |
| \\      /  F ield         | OpenFOAM: The Open Source CFD Toolbox           |
|  \\    /   O peration     | Version:  3.0.0                                 |
|   \\  /    A nd           | Web:      www.OpenFOAM.org                      |
|    \\/     M anipulation  |                                                 |
\*---------------------------------------------------------------------------*/
FoamFile
{
    version     2.0;
    format      ascii;
    class       volVectorField;
    location    "6";
    object      U;
}
// * * * * * * * * * * * * * * * * * * * * * * * * * * * * * * * * * * * * * //

dimensions      [0 1 -1 0 0 0 0];

internalField   nonuniform List<vector> 
4096
(
(-0.159376 -0.0702973 0.0626244)
(-0.148087 -0.0687066 0.0826851)
(-0.134966 -0.0679038 0.0946183)
(-0.101511 -0.0619643 0.0965289)
(-0.0529931 -0.0486096 0.0881632)
(0.00409938 -0.0276287 0.0706602)
(0.0613552 2.54389e-05 0.0468918)
(0.108441 0.0323004 0.0207357)
(0.135348 0.0638163 -0.00449583)
(0.136734 0.0827316 -0.0274147)
(0.114041 0.0782545 -0.0466226)
(0.0722323 0.0531524 -0.0571458)
(0.0185647 0.0217538 -0.0533267)
(-0.0384162 -0.00493261 -0.0350653)
(-0.0915425 -0.0257387 -0.00846291)
(-0.117758 -0.0425943 0.0165596)
(-0.174928 -0.116218 0.0479064)
(-0.162744 -0.113944 0.0687576)
(-0.150281 -0.114045 0.0827399)
(-0.116098 -0.109097 0.0883493)
(-0.0661896 -0.0961443 0.0852411)
(-0.00673725 -0.074205 0.0737903)
(0.0547747 -0.0435405 0.0554326)
(0.108965 -0.00573833 0.0323674)
(0.145207 0.0332573 0.00644152)
(0.154314 0.0587598 -0.0210364)
(0.133497 0.0567013 -0.0464908)
(0.0876827 0.0304353 -0.0620974)
(0.0272803 -0.00354977 -0.0613649)
(-0.0367546 -0.0332555 -0.045054)
(-0.0963678 -0.0568461 -0.0198977)
(-0.124942 -0.0739893 0.00446793)
(-0.184612 -0.151021 0.0319033)
(-0.173928 -0.14968 0.0554654)
(-0.162466 -0.151862 0.0728971)
(-0.127349 -0.148947 0.0827563)
(-0.0754771 -0.137712 0.0843071)
(-0.0133277 -0.11687 0.07727)
(0.051892 -0.086367 0.0622828)
(0.111656 -0.0471542 0.0406427)
(0.156225 -0.00376326 0.0134214)
(0.17488 0.029726 -0.0182271)
(0.16001 0.0360476 -0.0493689)
(0.113646 0.0145242 -0.0702462)
(0.0476829 -0.0191102 -0.073295)
(-0.0243018 -0.0511595 -0.0592195)
(-0.092169 -0.0777097 -0.0349449)
(-0.125998 -0.0961022 -0.00974386)
(-0.188813 -0.167757 0.0152208)
(-0.181154 -0.169036 0.0422903)
(-0.17075 -0.174056 0.0636545)
(-0.134786 -0.17389 0.0778234)
(-0.0809527 -0.16537 0.0835365)
(-0.0161796 -0.147118 0.0798782)
(0.0522217 -0.118908 0.0669282)
(0.116155 -0.0811638 0.0455608)
(0.167038 -0.0364177 0.0165679)
(0.194506 0.00400984 -0.0189357)
(0.187397 0.0209113 -0.055284)
(0.143094 0.00758892 -0.0812424)
(0.073118 -0.0230857 -0.0879799)
(-0.00642922 -0.0560617 -0.0758115)
(-0.0826492 -0.0849244 -0.0518227)
(-0.123041 -0.105157 -0.0249853)
(-0.190021 -0.165463 -0.00089206)
(-0.185654 -0.170594 0.0299181)
(-0.176047 -0.178781 0.0551992)
(-0.139271 -0.181604 0.0733454)
(-0.0836218 -0.176174 0.0825303)
(-0.0165152 -0.161197 0.0812594)
(0.0544427 -0.136432 0.0692001)
(0.121209 -0.102032 0.0471078)
(0.17601 -0.058885 0.0158312)
(0.209712 -0.0146013 -0.0232943)
(0.209811 0.0123095 -0.0641667)
(0.169122 0.00939253 -0.0944351)
(0.0970254 -0.0155905 -0.104157)
(0.0113873 -0.047609 -0.0932378)
(-0.0720896 -0.077912 -0.0690005)
(-0.118978 -0.100412 -0.040153)
(-0.190017 -0.145616 -0.0145544)
(-0.188368 -0.1553 0.0198072)
(-0.179143 -0.166669 0.0485537)
(-0.141584 -0.172421 0.0698974)
(-0.0844165 -0.170101 0.0814914)
(-0.0155005 -0.158614 0.0813937)
(0.0571934 -0.137791 0.0690424)
(0.125481 -0.107679 0.0452966)
(0.181947 -0.0680375 0.0113081)
(0.218664 -0.0230485 -0.0311348)
(0.223608 0.0115601 -0.0754925)
(0.186696 0.0194851 -0.108747)
(0.114341 0.00222683 -0.120249)
(0.0249463 -0.0269908 -0.109684)
(-0.0636345 -0.0577546 -0.0846528)
(-0.11573 -0.0825545 -0.0536946)
(-0.189237 -0.111563 -0.0236841)
(-0.189452 -0.126073 0.0136051)
(-0.180191 -0.14038 0.0448853)
(-0.14196 -0.148768 0.0681718)
(-0.0837462 -0.149317 0.0807161)
(-0.013773 -0.141195 0.0803269)
(0.0596387 -0.124333 0.0664309)
(0.128119 -0.0987006 0.0402259)
(0.184284 -0.0633229 0.00333803)
(0.220985 -0.0197947 -0.0417694)
(0.227626 0.0196325 -0.0881972)
(0.19347 0.0371322 -0.122632)
(0.122404 0.0283574 -0.134343)
(0.0320427 0.00328928 -0.12307)
(-0.0587453 -0.0270071 -0.0965924)
(-0.113879 -0.0538447 -0.063652)
(-0.186968 -0.06802 -0.0263633)
(-0.188316 -0.0872709 0.0127373)
(-0.178735 -0.104042 0.045127)
(-0.140099 -0.114563 0.0686457)
(-0.0814875 -0.117519 0.080334)
(-0.0113841 -0.112361 0.0780139)
(0.0615981 -0.0991433 0.061341)
(0.128912 -0.0776399 0.0321342)
(0.183067 -0.0464098 -0.00739107)
(0.217326 -0.00533576 -0.0539975)
(0.222767 0.0363056 -0.100568)
(0.189875 0.0609667 -0.133985)
(0.121232 0.0599682 -0.144109)
(0.0327176 0.0395395 -0.131019)
(-0.0571248 0.0104548 -0.102605)
(-0.112857 -0.0179431 -0.068019)
(-0.181622 -0.020649 -0.0212097)
(-0.183809 -0.0441204 0.0181167)
(-0.173876 -0.0626351 0.0497988)
(-0.13532 -0.0745675 0.0715402)
(-0.0771302 -0.0792678 0.0803947)
(-0.00795802 -0.0764502 0.0744732)
(0.0634227 -0.0662338 0.054112)
(0.128309 -0.0481741 0.0217159)
(0.179007 -0.0204518 -0.0196531)
(0.209024 0.0179328 -0.0660988)
(0.211194 0.0597221 -0.110321)
(0.178415 0.0885583 -0.140262)
(0.113138 0.0933594 -0.147002)
(0.0290592 0.0771078 -0.131152)
(-0.0568703 0.0496645 -0.100666)
(-0.1111 0.0203632 -0.0650861)
(-0.170938 0.0242929 -0.0078599)
(-0.174421 -0.0021489 0.0299064)
(-0.164495 -0.0212983 0.0589891)
(-0.12682 -0.0337412 0.0769739)
(-0.070068 -0.0393396 0.0811786)
(-0.00289858 -0.038048 0.0703064)
(0.0657701 -0.0299596 0.0456073)
(0.127095 -0.0144895 0.0103568)
(0.173194 0.0104764 -0.031539)
(0.197781 0.0462028 -0.0756775)
(0.195639 0.086384 -0.114935)
(0.162642 0.116132 -0.139077)
(0.101868 0.123909 -0.141026)
(0.0245385 0.110658 -0.121993)
(-0.0550151 0.0850719 -0.0897247)
(-0.106289 0.0558227 -0.0540036)
(-0.153085 0.0606167 0.0122588)
(-0.158752 0.033306 0.0471305)
(-0.149719 0.0148313 0.0721694)
(-0.114141 0.00307869 0.0849517)
(-0.0599618 -0.00234682 0.0832161)
(0.00416597 -0.00158648 0.066584)
(0.0691724 0.00533583 0.0374312)
(0.12602 0.0191975 6.75978e-05)
(0.16669 0.0421164 -0.0407771)
(0.185294 0.0750304 -0.0804332)
(0.178566 0.111645 -0.112561)
(0.145814 0.138721 -0.129391)
(0.0909688 0.146163 -0.126073)
(0.0224471 0.134465 -0.104184)
(-0.0487868 0.111082 -0.0707859)
(-0.0963324 0.0833261 -0.0355744)
(-0.12927 0.0826865 0.0354658)
(-0.137719 0.0575452 0.0671994)
(-0.130251 0.0413356 0.0877711)
(-0.0977778 0.0316031 0.0948281)
(-0.0472806 0.0275438 0.0868302)
(0.0129406 0.0289119 0.0644951)
(0.0737026 0.0357754 0.0314384)
(0.125612 0.0490729 -0.00694287)
(0.160366 0.0705639 -0.0452602)
(0.172617 0.100026 -0.0789601)
(0.161443 0.130584 -0.103148)
(0.129514 0.150996 -0.112842)
(0.0814033 0.15457 -0.105148)
(0.0227692 0.143049 -0.0814139)
(-0.0389162 0.122429 -0.0475861)
(-0.0818013 0.0979997 -0.0129699)
(-0.10697 0.0860627 0.0564702)
(-0.116524 0.0663765 0.085543)
(-0.110283 0.054244 0.102326)
(-0.0810318 0.0478301 0.104596)
(-0.0344428 0.046426 0.091481)
(0.0218022 0.0497625 0.064744)
(0.0784792 0.057991 0.0291482)
(0.125654 0.0719696 -0.00898029)
(0.154521 0.0925895 -0.043818)
(0.160434 0.117608 -0.0715292)
(0.144967 0.139222 -0.0891096)
(0.113441 0.149085 -0.0938664)
(0.0706554 0.145679 -0.0837281)
(0.0204292 0.133103 -0.0593337)
(-0.0321268 0.115414 -0.0256999)
(-0.069073 0.0955222 0.00832657)
(-0.0976244 0.0687133 0.0703819)
(-0.104575 0.0561546 0.0969169)
(-0.0977963 0.0491818 0.111055)
(-0.070218 0.047185 0.110626)
(-0.0262103 0.0498442 0.0951352)
(0.0274207 0.0569205 0.0668463)
(0.0815948 0.0684919 0.0310377)
(0.125745 0.0849435 -0.00550624)
(0.150177 0.105508 -0.036985)
(0.150633 0.125178 -0.0604542)
(0.130793 0.135654 -0.07466)
(0.097595 0.132854 -0.0776526)
(0.05614 0.12104 -0.0669168)
(0.00992565 0.106347 -0.042673)
(-0.0364565 0.0906919 -0.00989345)
(-0.0673071 0.0743375 0.0227209)
(-0.106531 0.0325246 0.0747859)
(-0.107721 0.0262641 0.098435)
(-0.0988376 0.0237456 0.110864)
(-0.0708059 0.0259832 0.110017)
(-0.0271589 0.0333659 0.0955136)
(0.0262438 0.0456636 0.0693087)
(0.0808699 0.0625919 0.0361708)
(0.125855 0.0837076 0.00237264)
(0.150177 0.10606 -0.0269302)
(0.148115 0.121577 -0.0494683)
(0.123501 0.121743 -0.0640635)
(0.084964 0.107253 -0.0677268)
(0.0396078 0.087429 -0.0573532)
(-0.00778141 0.0696239 -0.0337238)
(-0.0525265 0.0540999 -0.00247495)
(-0.079085 0.0388023 0.0275209)
(-0.127096 -0.0142869 0.0701796)
(-0.121721 -0.016048 0.091384)
(-0.110779 -0.0163907 0.103107)
(-0.0813428 -0.0120747 0.103563)
(-0.0368478 -0.00176628 0.0923836)
(0.0177023 0.014641 0.0709054)
(0.0748915 0.0368721 0.0425892)
(0.124431 0.0643353 0.0122359)
(0.154426 0.0930751 -0.0163039)
(0.155291 0.110815 -0.0409224)
(0.126971 0.105375 -0.0586633)
(0.0798977 0.0809757 -0.0643876)
(0.0262874 0.0529882 -0.054984)
(-0.0262663 0.0307187 -0.0324632)
(-0.0731919 0.0135931 -0.00307014)
(-0.09739 -0.00175358 0.0239835)
(-0.18948 -0.0669614 0.130343)
(-0.17161 -0.05451 0.128515)
(-0.15278 -0.0420013 0.120439)
(-0.109437 -0.0260844 0.102765)
(-0.0493249 -0.00696727 0.0777038)
(0.0185993 0.0137407 0.0500555)
(0.0837174 0.0348049 0.0259279)
(0.134344 0.0559393 0.0107616)
(0.160086 0.0744087 0.00623065)
(0.155726 0.0806282 0.00830656)
(0.123854 0.0654379 0.0122497)
(0.0719656 0.0337171 0.0189918)
(0.0096476 0.000400156 0.0319147)
(-0.0539994 -0.0246104 0.0508501)
(-0.112557 -0.0409503 0.0716272)
(-0.138637 -0.050348 0.0847132)
(-0.197643 -0.112074 0.10612)
(-0.180035 -0.0991 0.105216)
(-0.162717 -0.0867637 0.100606)
(-0.119787 -0.0701989 0.0891972)
(-0.0591056 -0.0490325 0.0723347)
(0.011107 -0.0245377 0.053025)
(0.0812294 0.00193242 0.035224)
(0.139961 0.0296507 0.0227002)
(0.175388 0.05485 0.0165698)
(0.177921 0.0653536 0.0138176)
(0.146627 0.0504028 0.0119722)
(0.0903545 0.0165639 0.0139489)
(0.0220918 -0.0197195 0.0231923)
(-0.0474273 -0.0483803 0.0387204)
(-0.111384 -0.0684536 0.0562724)
(-0.140122 -0.0791248 0.067761)
(-0.199965 -0.14383 0.0772587)
(-0.184601 -0.13239 0.0778639)
(-0.168678 -0.12224 0.0760787)
(-0.125959 -0.107518 0.0693759)
(-0.0646714 -0.0874992 0.0585328)
(0.00722314 -0.0630669 0.0454004)
(0.0807945 -0.0353701 0.0324169)
(0.145613 -0.00491042 0.0219901)
(0.190096 0.0254944 0.0148427)
(0.202061 0.0438148 0.008963)
(0.175608 0.0362733 0.0034036)
(0.118002 0.0062211 0.00208306)
(0.0444489 -0.0303831 0.00843261)
(-0.0319574 -0.0619723 0.021186)
(-0.102792 -0.0855867 0.0363057)
(-0.136643 -0.0981916 0.0474258)
(-0.197555 -0.157205 0.0459929)
(-0.185695 -0.149247 0.0483857)
(-0.171 -0.142585 0.0490164)
(-0.128402 -0.131187 0.0459983)
(-0.0664596 -0.114187 0.0396223)
(0.00681703 -0.0921351 0.030876)
(0.0827438 -0.0659317 0.0211556)
(0.151475 -0.0356753 0.0119843)
(0.202493 -0.00249191 0.00392825)
(0.22325 0.0235901 -0.00398737)
(0.20364 0.0263285 -0.0115935)
(0.147249 0.00363832 -0.0146853)
(0.0699085 -0.0306119 -0.0101217)
(-0.012834 -0.0634351 0.000664258)
(-0.0903366 -0.0896531 0.0139331)
(-0.130198 -0.104612 0.0251378)
(-0.193623 -0.15278 0.0155203)
(-0.185191 -0.149308 0.0197782)
(-0.171337 -0.146646 0.0224999)
(-0.128712 -0.139209 0.0223328)
(-0.0661098 -0.12613 0.0191233)
(0.00824284 -0.107714 0.0132031)
(0.0855986 -0.0846199 0.00528098)
(0.156312 -0.0566753 -0.00363089)
(0.21066 -0.0235252 -0.012934)
(0.23719 0.00782315 -0.0225684)
(0.224052 0.0209183 -0.0311836)
(0.170695 0.00796665 -0.0347146)
(0.0917031 -0.02125 -0.0307312)
(0.00436712 -0.0533402 -0.020981)
(-0.0784439 -0.0810536 -0.00890616)
(-0.12383 -0.0985242 0.00262386)
(-0.190597 -0.133148 -0.0108003)
(-0.184659 -0.134475 -0.00467237)
(-0.171161 -0.135854 -0.000254724)
(-0.128355 -0.132475 0.00153843)
(-0.0652114 -0.123574 0.000203992)
(0.00975521 -0.109286 -0.00438642)
(0.0875638 -0.0900436 -0.0119125)
(0.158525 -0.065504 -0.0215653)
(0.213281 -0.0343688 -0.0325631)
(0.241846 -0.000665351 -0.0438804)
(0.232942 0.0208547 -0.052991)
(0.183216 0.0182215 -0.0560002)
(0.104806 -0.00399423 -0.0514806)
(0.015421 -0.0334754 -0.0417405)
(-0.0704742 -0.0614772 -0.0300413)
(-0.119735 -0.0811911 -0.0178866)
(-0.189588 -0.102074 -0.0298181)
(-0.184835 -0.108074 -0.0219817)
(-0.171157 -0.113171 -0.0164459)
(-0.128021 -0.113563 -0.0137904)
(-0.0645577 -0.108644 -0.0147168)
(0.0104144 -0.098439 -0.0195551)
(0.0876253 -0.0831765 -0.0280768)
(0.157259 -0.0623453 -0.0393809)
(0.210105 -0.0341231 -0.0523583)
(0.237399 -0.000335508 -0.065131)
(0.229732 0.0267767 -0.0742735)
(0.183073 0.0332933 -0.0760501)
(0.107037 0.0188425 -0.0700338)
(0.0183527 -0.00661191 -0.059233)
(-0.0679764 -0.0337371 -0.0469217)
(-0.118838 -0.0551058 -0.0337758)
(-0.190393 -0.0638845 -0.0387599)
(-0.18557 -0.074176 -0.0297623)
(-0.171216 -0.0823977 -0.0240834)
(-0.127621 -0.0859766 -0.022031)
(-0.0640832 -0.0845217 -0.0242804)
(0.0102768 -0.0780001 -0.0310589)
(0.0858977 -0.0664389 -0.0418998)
(0.15286 -0.0491259 -0.0555136)
(0.202075 -0.0239587 -0.0703127)
(0.225747 0.00851877 -0.0837889)
(0.216724 0.038451 -0.0921256)
(0.171964 0.0517942 -0.0918781)
(0.0993182 0.0445426 -0.0834876)
(0.0136418 0.0237685 -0.0706008)
(-0.0706422 -0.00152668 -0.0566853)
(-0.120838 -0.0238142 -0.0422595)
(-0.191681 -0.0230856 -0.0354602)
(-0.185979 -0.0371072 -0.0264002)
(-0.170592 -0.0476296 -0.0220265)
(-0.12646 -0.0535696 -0.0224216)
(-0.0630635 -0.0548251 -0.0279459)
(0.0101805 -0.0513394 -0.0383777)
(0.0834327 -0.0429478 -0.0526081)
(0.146726 -0.0286872 -0.0687665)
(0.191178 -0.00636966 -0.0846744)
(0.209861 0.0240231 -0.09751)
(0.197839 0.0544322 -0.103642)
(0.153917 0.0717821 -0.100304)
(0.0850602 0.0700866 -0.088658)
(0.00394629 0.0537996 -0.07281)
(-0.076442 0.0309536 -0.0565767)
(-0.12429 0.0085727 -0.041006)
(-0.191108 0.015842 -0.0187559)
(-0.184574 -0.00105039 -0.0111552)
(-0.168116 -0.0128091 -0.00983504)
(-0.123545 -0.0200856 -0.0147072)
(-0.0605084 -0.0231306 -0.0254808)
(0.0112633 -0.0218733 -0.0410884)
(0.0816731 -0.0159742 -0.0594536)
(0.140726 -0.00423459 -0.0778822)
(0.179811 0.0154716 -0.0936935)
(0.192944 0.0432372 -0.104113)
(0.177289 0.0721408 -0.106336)
(0.133736 0.0905892 -0.0987068)
(0.0689334 0.092183 -0.0830538)
(-0.00666109 0.0795566 -0.0636945)
(-0.0820205 0.0594859 -0.0447997)
(-0.126754 0.0379638 -0.0285881)
(-0.185831 0.0486679 0.0107279)
(-0.179528 0.0302604 0.0154532)
(-0.162489 0.0184303 0.0120861)
(-0.117966 0.010953 0.00099313)
(-0.0556274 0.00718645 -0.0166631)
(0.0144411 0.00714606 -0.0386026)
(0.0818112 0.0113246 -0.0614503)
(0.136429 0.0210862 -0.0815024)
(0.170017 0.0383617 -0.0957531)
(0.177601 0.0629103 -0.102042)
(0.158386 0.0883786 -0.0988886)
(0.115435 0.104953 -0.0861562)
(0.0552458 0.107269 -0.0662627)
(-0.0140686 0.0972277 -0.0433507)
(-0.0837287 0.0802171 -0.0217748)
(-0.125446 0.060716 -0.0053929)
(-0.174233 0.0712305 0.0493729)
(-0.169898 0.0535369 0.0508971)
(-0.153204 0.043021 0.0422924)
(-0.109471 0.0365712 0.0240131)
(-0.04827 0.0332279 -0.00148984)
(0.0199565 0.0329089 -0.0303188)
(0.0843774 0.0362252 -0.0575537)
(0.13474 0.0446057 -0.0784776)
(0.163 0.0596127 -0.0899664)
(0.165241 0.0801751 -0.0909648)
(0.142817 0.100039 -0.0819262)
(0.100893 0.111497 -0.0644419)
(0.0457776 0.111724 -0.0411505)
(-0.0167319 0.103133 -0.0153762)
(-0.080192 0.0895647 0.00864305)
(-0.119037 0.0735099 0.0253472)
(-0.159363 0.0789689 0.0898111)
(-0.157402 0.065266 0.0895205)
(-0.141705 0.0579389 0.0767932)
(-0.0994321 0.0539823 0.052121)
(-0.039687 0.0523953 0.0192803)
(0.0268599 0.0530385 -0.0160039)
(0.0888711 0.0565862 -0.0470891)
(0.13565 0.0644145 -0.0682331)
(0.159121 0.0774229 -0.0764125)
(0.156358 0.0930966 -0.0721987)
(0.130839 0.104878 -0.0584561)
(0.0894872 0.107777 -0.0382302)
(0.0384517 0.10301 -0.0135824)
(-0.0180517 0.0944963 0.0136313)
(-0.075283 0.0843575 0.0395799)
(-0.110589 0.0728011 0.0571856)
(-0.150023 0.0671713 0.12254)
(-0.148057 0.0606691 0.122397)
(-0.132866 0.0587082 0.108431)
(-0.0917905 0.0591918 0.0804861)
(-0.0330462 0.0612743 0.0430806)
(0.0327829 0.0647229 0.00343472)
(0.0939111 0.0701652 -0.0302462)
(0.138929 0.0787799 -0.0512175)
(0.159143 0.0903569 -0.0566745)
(0.152074 0.100311 -0.0490423)
(0.122906 0.101875 -0.033515)
(0.0799601 0.0937552 -0.0136473)
(0.0297803 0.0818808 0.0099915)
(-0.0236516 0.0716619 0.036879)
(-0.076236 0.0636299 0.0636087)
(-0.107212 0.055779 0.081815)
(-0.153513 0.0343257 0.139911)
(-0.148055 0.035871 0.140571)
(-0.132423 0.0403388 0.128433)
(-0.0915769 0.0468902 0.101845)
(-0.032638 0.0547859 0.0648091)
(0.0344124 0.0633869 0.0248076)
(0.0976593 0.0729451 -0.00919035)
(0.144864 0.0842947 -0.0297202)
(0.165707 0.095993 -0.0340593)
(0.15614 0.100994 -0.0261258)
(0.12187 0.0924587 -0.0124086)
(0.0735197 0.073287 0.00440134)
(0.0196895 0.0536025 0.0253378)
(-0.0346723 0.0397848 0.0503459)
(-0.0857676 0.0312081 0.0760722)
(-0.112983 0.0244675 0.0933511)
(-0.166238 -0.011969 0.139641)
(-0.156042 -0.00473375 0.140633)
(-0.14032 0.00407261 0.131772)
(-0.09964 0.0157713 0.110052)
(-0.0401285 0.0299121 0.0781869)
(0.0294124 0.0452288 0.0425211)
(0.0975284 0.0611598 0.0114321)
(0.151478 0.0783107 -0.00766035)
(0.178795 0.0945867 -0.0120266)
(0.170811 0.0994522 -0.0063535)
(0.130798 0.0834988 0.00286179)
(0.0732801 0.0538827 0.0147489)
(0.0120356 0.0258478 0.0316107)
(-0.0462557 0.00690846 0.0534183)
(-0.0986809 -0.00443669 0.0765462)
(-0.123492 -0.0119865 0.091575)
(-0.204088 -0.0498361 0.187881)
(-0.175674 -0.0289371 0.156037)
(-0.14818 -0.00776234 0.121522)
(-0.096488 0.0137636 0.0806716)
(-0.0308923 0.0338305 0.0390437)
(0.0380844 0.0502468 0.00479868)
(0.100008 0.06228 -0.0141754)
(0.145074 0.0709901 -0.012557)
(0.165447 0.0757148 0.00888083)
(0.156684 0.0693014 0.0406724)
(0.119721 0.0446461 0.071052)
(0.0617232 0.00803148 0.0962218)
(-0.00569135 -0.0251949 0.118306)
(-0.0719989 -0.0458397 0.137614)
(-0.131044 -0.0539975 0.151491)
(-0.15364 -0.0523412 0.150908)
(-0.204222 -0.088448 0.156275)
(-0.178656 -0.0651621 0.128289)
(-0.154059 -0.0408096 0.100396)
(-0.104036 -0.0148242 0.0687856)
(-0.0382201 0.0106909 0.037186)
(0.0337415 0.0330436 0.0114036)
(0.101829 0.0507321 -0.00251721)
(0.155673 0.0641569 7.16176e-05)
(0.185343 0.0718806 0.0190613)
(0.182508 0.0653914 0.046086)
(0.145599 0.0377895 0.0705887)
(0.0837413 -0.00239768 0.0900159)
(0.0115861 -0.0392547 0.106825)
(-0.0593646 -0.0641624 0.12116)
(-0.122802 -0.0766742 0.130788)
(-0.148898 -0.0767368 0.128815)
(-0.197385 -0.114172 0.115361)
(-0.176313 -0.0918776 0.0901062)
(-0.154421 -0.0681898 0.0663896)
(-0.10657 -0.0422169 0.0414568)
(-0.0418236 -0.0159526 0.0179062)
(0.0310257 0.0080685 -0.000280179)
(0.102721 0.0281892 -0.00903862)
(0.163221 0.0446607 -0.00495477)
(0.202061 0.0565284 0.0123105)
(0.208101 0.0553563 0.0362309)
(0.175675 0.0323369 0.0576909)
(0.112995 -0.0061664 0.0743216)
(0.0366879 -0.0446639 0.08806)
(-0.0397666 -0.0732223 0.0987956)
(-0.108505 -0.0896612 0.104754)
(-0.139632 -0.0919739 0.101738)
(-0.18625 -0.123705 0.0706455)
(-0.170403 -0.10498 0.0475227)
(-0.150825 -0.0844588 0.0264998)
(-0.105094 -0.0613295 0.00616565)
(-0.0418362 -0.0373691 -0.0115856)
(0.0306989 -0.0147178 -0.024087)
(0.10383 0.00517507 -0.0288061)
(0.168036 0.0226646 -0.0234693)
(0.213331 0.037851 -0.00750636)
(0.227809 0.0435722 0.0146009)
(0.202174 0.0289559 0.0353905)
(0.141507 -0.00392871 0.0517851)
(0.0628711 -0.0411637 0.0643813)
(-0.018144 -0.0715082 0.0727224)
(-0.0915621 -0.0908565 0.0756152)
(-0.128044 -0.0959595 0.0716293)
(-0.174948 -0.118533 0.0275588)
(-0.163712 -0.104579 0.00621087)
(-0.145876 -0.088622 -0.0129606)
(-0.101958 -0.0700343 -0.0302188)
(-0.0402371 -0.0503084 -0.0441593)
(0.0312804 -0.0310596 -0.0529886)
(0.104173 -0.0133314 -0.0551597)
(0.169256 0.00339215 -0.0492556)
(0.217215 0.0201685 -0.0347007)
(0.237067 0.0319376 -0.0140834)
(0.218074 0.0270972 0.00703966)
(0.161586 0.00281959 0.0247692)
(0.0831995 -0.0302233 0.0378055)
(-0.000196609 -0.060251 0.0449923)
(-0.0766198 -0.0813253 0.0457228)
(-0.117458 -0.0893375 0.0409795)
(-0.166583 -0.101696 -0.00932484)
(-0.158513 -0.092848 -0.0290626)
(-0.141771 -0.082016 -0.0468984)
(-0.09924 -0.0687383 -0.0622677)
(-0.0390498 -0.0541559 -0.0740313)
(0.0308398 -0.0393161 -0.0809352)
(0.102085 -0.0247944 -0.0820017)
(0.165695 -0.00988499 -0.0763502)
(0.212864 0.00705989 -0.0635021)
(0.234123 0.0230316 -0.0446309)
(0.219598 0.027157 -0.02336)
(0.168158 0.0127241 -0.00387112)
(0.0926197 -0.0138633 0.0106452)
(0.00972025 -0.041528 0.017961)
(-0.0673137 -0.0630321 0.0177669)
(-0.110475 -0.0736061 0.0128822)
(-0.162709 -0.0768305 -0.0362746)
(-0.155929 -0.0728859 -0.0545042)
(-0.139535 -0.0670903 -0.0715428)
(-0.0979491 -0.0591385 -0.0861703)
(-0.0392806 -0.0498009 -0.0973159)
(0.0284446 -0.0395846 -0.103932)
(0.0968724 -0.0285923 -0.105273)
(0.157171 -0.0158974 -0.100687)
(0.200952 0.000408088 -0.0897333)
(0.220226 0.0187381 -0.0727159)
(0.207232 0.029723 -0.0517121)
(0.160298 0.0245512 -0.0306181)
(0.0894055 0.00549678 -0.0140076)
(0.00972026 -0.018205 -0.00532382)
(-0.0654134 -0.0388458 -0.00501905)
(-0.108437 -0.0512609 -0.00916108)
(-0.163492 -0.0476876 -0.0502259)
(-0.156063 -0.0481049 -0.0674402)
(-0.139179 -0.0467712 -0.0846106)
(-0.0979616 -0.0435801 -0.0999478)
(-0.0406409 -0.0389877 -0.112193)
(0.024626 -0.0330538 -0.120186)
(0.0894551 -0.0254269 -0.123077)
(0.145207 -0.0149439 -0.120136)
(0.183949 0.000352277 -0.110853)
(0.199013 0.0196002 -0.0951017)
(0.185031 0.0349595 -0.0740961)
(0.141181 0.0371418 -0.0513521)
(0.0754143 0.0253417 -0.0321594)
(0.000677121 0.00642696 -0.020992)
(-0.0706102 -0.012291 -0.0188824)
(-0.111365 -0.0256835 -0.0215573)
(-0.167853 -0.0178166 -0.0487842)
(-0.158188 -0.0218321 -0.066224)
(-0.139957 -0.0239825 -0.0850567)
(-0.0983683 -0.0245415 -0.102991)
(-0.0419402 -0.0237856 -0.118285)
(0.0209804 -0.0214205 -0.129316)
(0.0819625 -0.0167032 -0.134775)
(0.1326 -0.00824307 -0.133596)
(0.165535 0.00581749 -0.12515)
(0.17531 0.024841 -0.109268)
(0.15872 0.0422125 -0.0870298)
(0.116372 0.0491837 -0.0618735)
(0.0551228 0.0432466 -0.0394346)
(-0.0142545 0.0290704 -0.0249166)
(-0.0808436 0.0129556 -0.0201126)
(-0.117988 -0.000541083 -0.0212147)
(-0.173746 0.00971351 -0.0305579)
(-0.160999 0.00300833 -0.050171)
(-0.140747 -0.0013842 -0.0726837)
(-0.098007 -0.00437713 -0.0954121)
(-0.0417653 -0.00625517 -0.115805)
(0.019319 -0.00651865 -0.131375)
(0.076725 -0.00412071 -0.140051)
(0.122316 0.00252176 -0.140261)
(0.14938 0.0150715 -0.131278)
(0.153631 0.0328152 -0.113295)
(0.133702 0.0500364 -0.0879598)
(0.0916752 0.0590824 -0.059116)
(0.0339206 0.0570037 -0.0326448)
(-0.0306082 0.0468648 -0.0141817)
(-0.0926665 0.0337058 -0.00633064)
(-0.125949 0.0210339 -0.00648974)
(-0.178541 0.0325606 0.00407747)
(-0.162895 0.0241222 -0.019799)
(-0.1404 0.0188107 -0.0480632)
(-0.0959246 0.0148103 -0.0777243)
(-0.0391276 0.011629 -0.105081)
(0.020847 0.00980959 -0.126429)
(0.0753318 0.0105797 -0.138627)
(0.11642 0.0156123 -0.139504)
(0.138052 0.0263087 -0.128387)
(0.137065 0.041684 -0.106297)
(0.113729 0.0566553 -0.0760738)
(0.0715032 0.065044 -0.0424481)
(0.0164988 0.0645954 -0.0115306)
(-0.0439457 0.0575395 0.0110201)
(-0.102194 0.0474967 0.0219758)
(-0.132395 0.0366243 0.021859)
(-0.179922 0.0488004 0.0518399)
(-0.162702 0.040034 0.022627)
(-0.13827 0.0351053 -0.0125769)
(-0.0919131 0.0314812 -0.0506571)
(-0.0339477 0.0283495 -0.0863835)
(0.0257965 0.0261032 -0.114397)
(0.0782869 0.0259952 -0.130227)
(0.115732 0.0296692 -0.131056)
(0.132647 0.0381762 -0.116472)
(0.126945 0.0500232 -0.0888426)
(0.100467 0.0605249 -0.0528699)
(0.0579292 0.0653783 -0.0145181)
(0.00520224 0.0641865 0.0202453)
(-0.0518424 0.0592214 0.0464256)
(-0.107005 0.0525655 0.0604658)
(-0.135051 0.0445662 0.0601601)
(-0.17809 0.056109 0.105909)
(-0.160541 0.0493781 0.0722025)
(-0.1349 0.0463713 0.0305432)
(-0.0868273 0.0445416 -0.015999)
(-0.0272409 0.0428543 -0.0604404)
(0.0332052 0.0413828 -0.0954011)
(0.0849113 0.0412434 -0.114823)
(0.119952 0.0439577 -0.115164)
(0.13317 0.0500656 -0.0964975)
(0.123388 0.0572005 -0.0630927)
(0.09389 0.0608457 -0.0221459)
(0.0504853 0.0590688 0.0190549)
(-0.000994472 0.0545816 0.0555811)
(-0.0555907 0.0505097 0.0840328)
(-0.108289 0.0473639 0.101031)
(-0.134659 0.0432654 0.101331)
(-0.177454 0.0507475 0.155622)
(-0.159257 0.0492669 0.120278)
(-0.132849 0.0504169 0.0751392)
(-0.0831386 0.052217 0.0225361)
(-0.0213275 0.0536189 -0.029084)
(0.041124 0.0543493 -0.0701922)
(0.0938738 0.0552735 -0.0929241)
(0.12852 0.0577162 -0.0928638)
(0.139705 0.0614809 -0.0706279)
(0.126624 0.0629087 -0.0328292)
(0.0935476 0.0575918 0.0104481)
(0.047387 0.0465909 0.0512185)
(-0.00522237 0.0364582 0.0864889)
(-0.0592985 0.0314234 0.115019)
(-0.110554 0.0307719 0.134049)
(-0.135082 0.0306445 0.135744)
(-0.182935 0.0290768 0.189105)
(-0.162668 0.0354844 0.155325)
(-0.135879 0.0432041 0.111558)
(-0.0845455 0.0509185 0.0579309)
(-0.0196236 0.0575012 0.00318745)
(0.046889 0.0622024 -0.041567)
(0.103747 0.0655615 -0.0666828)
(0.141585 0.0688135 -0.066604)
(0.153846 0.0711001 -0.0422107)
(0.138528 0.0671338 -0.00255393)
(0.100227 0.0523715 0.0394319)
(0.048155 0.0312065 0.0761099)
(-0.00881131 0.0137357 0.107227)
(-0.0648772 0.00543528 0.133423)
(-0.116424 0.00477525 0.152475)
(-0.139262 0.00702151 0.155025)
(-0.192116 -0.00575945 0.198164)
(-0.170132 0.00792307 0.167833)
(-0.14468 0.0227056 0.129506)
(-0.0929562 0.0381226 0.0805616)
(-0.0249215 0.0525675 0.0285097)
(0.0475309 0.0640514 -0.0153781)
(0.112104 0.0721511 -0.0403408)
(0.157866 0.078315 -0.0396468)
(0.176007 0.0818109 -0.0140865)
(0.160686 0.0748876 0.025)
(0.115247 0.0513948 0.0621009)
(0.0537722 0.0197113 0.0912761)
(-0.00980219 -0.00597741 0.115602)
(-0.0690759 -0.0194188 0.137168)
(-0.122181 -0.0227638 0.154037)
(-0.14415 -0.0205579 0.156303)
(-0.194281 -0.0306013 0.224451)
(-0.15406 -0.00501658 0.160036)
(-0.116972 0.0208224 0.0972581)
(-0.0615826 0.0446238 0.0345124)
(0.000547298 0.0634104 -0.0195141)
(0.0591176 0.074677 -0.0549291)
(0.106206 0.0782254 -0.0643313)
(0.13618 0.0758128 -0.0441155)
(0.14582 0.0678426 0.00301589)
(0.132992 0.0497484 0.0647273)
(0.0962233 0.0172076 0.123506)
(0.0392099 -0.0223435 0.168441)
(-0.0265456 -0.0535093 0.199103)
(-0.0889529 -0.0676379 0.216945)
(-0.141386 -0.0657334 0.221755)
(-0.157606 -0.0524386 0.206753)
(-0.188207 -0.0554583 0.189566)
(-0.153859 -0.0252405 0.133188)
(-0.120901 0.00709579 0.0801498)
(-0.0675521 0.0381166 0.0281665)
(-0.0044335 0.0638226 -0.0163327)
(0.0585473 0.0809018 -0.0452498)
(0.11296 0.0883715 -0.051916)
(0.151769 0.0875989 -0.0323148)
(0.169635 0.0787315 0.0120269)
(0.161706 0.0568558 0.0694563)
(0.124987 0.0189506 0.122103)
(0.0650318 -0.0252645 0.159792)
(-0.00414575 -0.0605818 0.183324)
(-0.0701142 -0.0793367 0.195047)
(-0.126412 -0.0817202 0.195427)
(-0.147293 -0.0696755 0.180049)
(-0.173653 -0.0715124 0.140155)
(-0.147048 -0.0409172 0.0900028)
(-0.118804 -0.00712082 0.0444123)
(-0.0693164 0.0258965 0.00198393)
(-0.00781538 0.0539205 -0.0326777)
(0.0567872 0.0736289 -0.0537679)
(0.116146 0.0837228 -0.0563553)
(0.162441 0.0852828 -0.0369508)
(0.188895 0.0786891 0.00412312)
(0.188349 0.0591249 0.0574073)
(0.155384 0.0226636 0.106424)
(0.0953591 -0.022164 0.140923)
(0.0236349 -0.0603763 0.160782)
(-0.0461416 -0.0832271 0.167969)
(-0.106236 -0.0894132 0.163578)
(-0.132098 -0.0793218 0.146486)
(-0.155084 -0.0764475 0.0857296)
(-0.136416 -0.0485684 0.040034)
(-0.112576 -0.0169669 -0.000461664)
(-0.0673758 0.0141978 -0.0357453)
(-0.00881518 0.0409383 -0.0624959)
(0.0551466 0.0603161 -0.0768231)
(0.116516 0.0711359 -0.0755112)
(0.167253 0.0743669 -0.056029)
(0.2 0.0708881 -0.0180035)
(0.206585 0.0565584 0.0318615)
(0.17958 0.0260575 0.0794796)
(0.122463 -0.0150461 0.113863)
(0.0504342 -0.0530095 0.132599)
(-0.0216793 -0.078045 0.136746)
(-0.0844295 -0.0872496 0.128113)
(-0.114831 -0.0800643 0.108829)
(-0.137543 -0.0715881 0.0340289)
(-0.125518 -0.0481282 -0.00858465)
(-0.105303 -0.0212022 -0.0457674)
(-0.0640561 0.00519918 -0.0763171)
(-0.00891352 0.0277328 -0.0977049)
(0.0528088 0.0442435 -0.107281)
(0.113447 0.053993 -0.103062)
(0.165068 0.0579316 -0.0834812)
(0.200359 0.0573392 -0.0481201)
(0.211494 0.0492373 -0.00137659)
(0.190587 0.027465 0.0455351)
(0.138772 -0.00624505 0.0812535)
(0.0693747 -0.0407361 0.100638)
(-0.00248365 -0.0657604 0.103321)
(-0.0658929 -0.0768766 0.0917073)
(-0.0992913 -0.072859 0.0705183)
(-0.124581 -0.0594238 -0.00954842)
(-0.11707 -0.0410734 -0.0498491)
(-0.0995165 -0.020129 -0.0848466)
(-0.0616425 -8.93875e-05 -0.112539)
(-0.0100828 0.0166023 -0.130759)
(0.048186 0.0287638 -0.13752)
(0.105811 0.0362577 -0.13161)
(0.155167 0.0400992 -0.112253)
(0.189315 0.041764 -0.0793685)
(0.201529 0.0393895 -0.0359045)
(0.185064 0.0268417 0.00970676)
(0.139595 0.00253046 0.0466113)
(0.0755854 -0.0258919 0.0675051)
(0.00706117 -0.0487199 0.0702968)
(-0.0544862 -0.0604509 0.0574699)
(-0.088549 -0.0592702 0.0354527)
(-0.117793 -0.0428865 -0.0412204)
(-0.112312 -0.0295662 -0.0796061)
(-0.0963218 -0.0148319 -0.113316)
(-0.0611365 -0.00147994 -0.139698)
(-0.013173 0.00898704 -0.156592)
(0.0408105 0.0163346 -0.162287)
(0.0937668 0.0210305 -0.155971)
(0.138535 0.0242353 -0.137392)
(0.168766 0.027448 -0.106854)
(0.179043 0.0295347 -0.0665932)
(0.164618 0.024947 -0.0229521)
(0.125022 0.0100398 0.0144274)
(0.0679466 -0.0109539 0.0371273)
(0.00524824 -0.0298716 0.0414327)
(-0.0520759 -0.0409092 0.0292656)
(-0.0843011 -0.0418226 0.00792523)
(-0.117265 -0.0249423 -0.0581203)
(-0.111281 -0.015998 -0.0952716)
(-0.0955485 -0.00678682 -0.128875)
(-0.0621014 0.00054523 -0.155628)
(-0.0173465 0.00534421 -0.173067)
(0.0321155 0.00815216 -0.179404)
(0.0795791 0.0100056 -0.173889)
(0.118451 0.0122573 -0.156495)
(0.143143 0.0163199 -0.127823)
(0.14955 0.0213705 -0.0899012)
(0.134934 0.0226027 -0.047857)
(0.0995686 0.0155495 -0.0100836)
(0.0492543 0.00186587 0.0147375)
(-0.00662639 -0.0122933 0.0216907)
(-0.0583258 -0.0215493 0.0116972)
(-0.0867424 -0.0236044 -0.00781532)
(-0.122042 -0.00820852 -0.0580364)
(-0.113221 -0.00255082 -0.0954786)