/*--------------------------------*- C++ -*----------------------------------*\
| =========                 |                                                 |
| \\      /  F ield         | OpenFOAM: The Open Source CFD Toolbox           |
|  \\    /   O peration     | Version:  3.0.0                                 |
|   \\  /    A nd           | Web:      www.OpenFOAM.org                      |
|    \\/     M anipulation  |                                                 |
\*---------------------------------------------------------------------------*/
FoamFile
{
    version     2.0;
    format      ascii;
    class       surfaceScalarField;
    location    "10";
    object      phi;
}
// * * * * * * * * * * * * * * * * * * * * * * * * * * * * * * * * * * * * * //

dimensions      [0 3 -1 0 0 0 0];

internalField   nonuniform List<scalar> 
11520
(
0.000141967
0.000159662
-4.78828e-05
5.07839e-05
0.000149517
-8.17828e-05
-8.02526e-05
0.000128516
-0.000119895
-0.00021864
9.77441e-05
-0.000159163
-0.000333847
5.99521e-05
-0.000190018
-0.000407145
1.98463e-05
-0.000202945
-0.000434627
-1.69782e-05
-0.000193296
-0.00042302
-4.37372e-05
-0.000162423
-0.000381834
-5.49608e-05
-0.000116713
-0.000318552
-4.74488e-05
-6.60954e-05
-0.000237389
-2.23818e-05
-2.14585e-05
-0.000141736
1.45375e-05
8.10808e-06
-3.83337e-05
5.56085e-05
1.81697e-05
5.97924e-05
9.31711e-05
1.09058e-05
0.000134337
0.00012452
-5.99048e-06
0.000153253
-2.43468e-05
1.35919e-05
0.000221886
-0.000114101
-8.85938e-05
0.00020839
-0.000120367
-0.000214658
0.000166807
-0.000127699
-0.000333742
0.000101591
-0.000135561
-0.000422285
2.32253e-05
-0.000139876
-0.000469921
-5.31502e-05
-0.000137252
-0.000478699
-0.000112566
-0.00012668
-0.000456905
-0.000144323
-0.000109339
-0.000412937
-0.000144476
-8.84293e-05
-0.000351613
-0.000115423
-6.87712e-05
-0.000274879
-6.43724e-05
-5.59335e-05
-0.000185382
-1.27469e-06
-5.43021e-05
-9.04919e-05
6.36231e-05
-6.45605e-05
-5.13804e-06
0.000122079
-8.21938e-05
5.12532e-05
0.000169687
-9.86772e-05
0.000204716
-0.000108373
-6.9628e-05
0.000283849
-0.000137874
-0.000168553
0.000257828
-0.000115844
-0.000280322
0.000188964
-9.58546e-05
-0.000378864
8.60996e-05
-8.12601e-05
-0.000447536
-3.15302e-05
-7.19509e-05
-0.000482018
-0.0001388
-6.73017e-05
-0.000486557
-0.000214072
-6.65246e-05
-0.000468038
-0.00024493
-6.88146e-05
-0.000431194
-0.000230686
-7.38554e-05
-0.000377444
-0.000179268
-8.2459e-05
-0.000307044
-0.00010283
-9.61777e-05
-0.00022288
-1.44309e-05
-0.000115629
-0.000134007
7.41274e-05
-0.000138255
-5.68347e-05
0.00015368
-0.000157249
-1.10215e-05
0.00021783
-0.000163685
0.000260399
-0.00015376
-9.46137e-05
0.000335955
-0.000123291
-0.000179144
0.000293027
-7.80987e-05
-0.000271714
0.000195489
-3.90672e-05
-0.000351993
5.73235e-05
-1.31561e-05
-0.000409375
-9.35068e-05
-2.55407e-06
-0.000442801
-0.000223928
-6.62555e-06
-0.000456234
-0.000307425
-2.27062e-05
-0.000452729
-0.000332325
-4.67066e-05
-0.000431853
-0.000302385
-7.50035e-05
-0.000390981
-0.00023059
-0.000105515
-0.000328768
-0.000132559
-0.000137157
-0.000248831
-2.28774e-05
-0.000168027
-0.000162199
8.60764e-05
-0.00019337
-8.68028e-05
0.000184321
-0.000205199
-4.24417e-05
0.00026335
-0.000195295
0.000313288
-0.000162476
-5.8811e-05
0.000369419
-7.72037e-05
-0.000121415
0.000311335
-1.75734e-05
-0.000193334
0.00018851
2.96766e-05
-0.000259514
2.14393e-05
5.58167e-05
-0.000313825
-0.000153915
5.78555e-05
-0.00035677
-0.000297893
3.77316e-05
-0.000389844
-0.00038145
1.4342e-06
-0.000410665
-0.00039574
-4.31024e-05
-0.000412633
-0.000349909
-8.94505e-05
-0.000388747
-0.000261444
-0.000133538
-0.000336095
-0.00014792
-0.000172837
-0.00025913
-2.38534e-05
-0.000204228
-0.000170751
9.90362e-05
-0.000222317
-9.04517e-05
0.000210586
-0.000219726
-3.84521e-05
0.000300513
-0.000190489
0.000355926
-0.000136959
3.08622e-05
0.000378546
-7.31149e-06
-5.03976e-06
0.00031102
5.7568e-05
-5.69911e-05
0.000170272
0.000102603
-0.000113888
-1.63783e-05
0.000119511
-0.000172719
-0.000205404
0.000105348
-0.000233914
-0.00035215
6.43058e-05
-0.000294871
-0.000427143
6.63241e-06
-0.000346454
-0.000426453
-5.56417e-05
-0.000375449
-0.000365382
-0.000113523
-0.000370615
-0.00026516
-0.000161911
-0.00032775
-0.00014388
-0.000197983
-0.000252147
-1.45365e-05
-0.000218908
-0.000158314
0.000112965
-0.000220547
-6.71445e-05
0.000229572
-0.000198093
2.60016e-07
0.000324127
-0.000149273
0.000381028
-8.00288e-05
0.000160804
0.000358901
7.97865e-05
0.000153165
0.000291264
0.000142897
0.000119331
0.000142651
0.000177124
6.6798e-05
-5.19177e-05
0.000177117
-3.20596e-06
-0.000242376
0.000140657
-8.95883e-05
-0.000380161
7.5017e-05
-0.000183951
-0.000438088
-4.27706e-06
-0.00026946
-0.000418951
-8.07277e-05
-0.000326402
-0.000344481
-0.000143203
-0.000340017
-0.000238531
-0.000186502
-0.000305464
-0.000118295
-0.000208781
-0.000229089
6.00834e-06
-0.000209158
-0.000126582
0.000127111
-0.000186639
-1.99733e-05
0.000238633
-0.000140737
6.84221e-05
0.00033004
-7.35065e-05
0.000382289
6.72403e-06
0.000309282
0.000313439
0.00017948
0.000330099
0.000252892
0.000234789
0.000312254
0.000107691
0.000252038
0.000259726
-8.19106e-05
0.000229
0.00017299
-0.000260481
0.000165039
5.67918e-05
-0.000377784
7.19579e-05
-7.31891e-05
-0.000411356
-2.82771e-05
-0.000191957
-0.000372281
-0.000114614
-0.000274112
-0.000288088
-0.000174563
-0.000302716
-0.000183601
-0.000203862
-0.000273351
-7.36057e-05
-0.00020302
-0.00019352
3.51739e-05
-0.000174688
-8.02176e-05
0.000139396
-0.00012272
4.42966e-05
0.000235874
-5.17185e-05
0.000156355
0.000316233
3.24624e-05
0.000357651
0.000121828
0.000453232
0.0002517
0.000282987
0.000499323
0.000200079
0.000325195
0.00049501
6.82616e-05
0.000321722
0.000438798
-0.000103491
0.000271499
0.000331568
-0.000257163
0.000176726
0.000183856
-0.000343836
5.563e-05
2.0169e-05
-0.000348525
-6.27838e-05
-0.000126785
-0.000291091
-0.000153457
-0.000227637
-0.00020317
-0.000203617
-0.000265124
-0.000108313
-0.000211193
-0.000236428
-1.73121e-05
-0.000180452
-0.000150923
6.75137e-05
-0.000118968
-2.61225e-05
0.000146803
-3.59126e-05
0.000115987
0.000220809
5.90073e-05
0.000251298
0.000284265
0.000158213
0.000311323
0.000257636
0.000571631
0.000187677
0.000374323
0.000635464
0.000140869
0.00039797
0.000640335
2.86753e-05
0.000372511
0.000576907
-0.000114312
0.000294498
0.000447496
-0.000232018
0.000169946
0.000270607
-0.000281124
2.48635e-05
8.01044e-05
-0.000256539
-0.00010538
-8.52834e-05
-0.000186061
-0.000192971
-0.000194827
-0.00010254
-0.000226277
-0.00023313
-2.55801e-05
-0.000206704
-0.000200175
3.95978e-05
-0.000143466
-0.000107381
9.55556e-05
-4.96955e-05
2.74141e-05
0.000146495
6.0331e-05
0.000183722
0.000195189
0.000173492
0.00033898
0.000239169
0.000283347
0.000253618
0.000393235
0.000649498
0.000133443
0.000433182
0.000718938
8.50301e-05
0.000433004
0.000724484
-5.54021e-06
0.000386074
0.00064929
-0.000112611
0.000284248
0.000498336
-0.000187393
0.000137327
0.00029946
-0.000197119
-2.15866e-05
9.43473e-05
-0.000148086
-0.000152887
-7.54399e-05
-7.33572e-05
-0.000228335
-0.000181152
-3.23043e-06
-0.00023889
-0.000211406
4.92363e-05
-0.000190483
-0.000169797
8.54592e-05
-9.78031e-05
-6.94247e-05
0.000112598
2.09683e-05
7.21058e-05
0.000137264
0.000147913
0.000236774
0.000162724
0.000268686
0.00040555
0.000188073
0.000380535
0.000196198
0.000495635
0.000677446
9.4427e-05
0.000443
0.000737926
4.13358e-05
0.000416148
0.000731311
-2.81523e-05
0.000349485
0.000638448
-9.68637e-05
0.000231672
0.000469381
-0.00012849
7.56273e-05
0.000260526
-0.000104007
-8.17178e-05
5.7473e-05
-4.07655e-05
-0.000200285
-0.000100031
2.74216e-05
-0.000254463
-0.000188797
7.66223e-05
-0.000239132
-0.000203018
0.000102002
-0.000165093
-0.000149881
0.000111325
-5.17215e-05
-4.30324e-05
0.000115097
7.95507e-05
0.000101047
0.000120182
0.000209596
0.000267124
0.000128285
0.000324826
0.000439914
0.000138762
0.000426487
0.000147344
0.000533561
0.000650418
7.08768e-05
0.000398012
0.000688104
1.66346e-05
0.000346742
0.000655547
-3.24549e-05
0.000264313
0.000539965
-6.61877e-05
0.000140813
0.000359942
-6.26107e-05
-8.18192e-06
0.000156508
-1.74933e-05
-0.000147323
-2.5968e-05
4.56266e-05
-0.00024014
-0.000155002
9.71112e-05
-0.000266695
-0.000215879
0.000121998
-0.000226781
-0.000208886
0.000123452
-0.000135163
-0.000143483
0.000113608
-1.36769e-05
-3.25842e-05
0.000103497
0.000115611
0.000109701
9.83969e-05
0.000234798
0.000270389
9.71803e-05
0.000332518
0.000435901
9.89309e-05
0.000412233
0.000111574
0.000494424
0.000569063
6.29848e-05
0.000305855
0.000573085
1.5972e-05
0.000238259
0.000505687
-1.41224e-05
0.000148059
0.000367713
-2.26642e-05
3.05999e-05
0.000187168
-5.57368e-07
-9.71214e-05
5.44653e-06
4.57864e-05
-0.000204181
-0.000140511
9.35792e-05
-0.000263058
-0.000229537
0.000121766
-0.000261246
-0.000256661
0.000124776
-0.000203281
-0.000227322
0.000111153
-0.000105758
-0.000151585
9.37774e-05
1.02991e-05
-3.98695e-05
8.15353e-05
0.000124124
9.65156e-05
7.63334e-05
0.000221526
0.000245873
7.44388e-05
0.000293739
0.000393844
7.48554e-05
0.000344492
9.18668e-05
0.000390499
0.000442636
7.35282e-05
0.000185089
0.000407491
4.12439e-05
0.000113593
0.000305006
2.53034e-05
2.72907e-05
0.000152377
2.67559e-05
-7.23284e-05
-1.6036e-05
4.57323e-05
-0.000168541
-0.000163108
7.33697e-05
-0.000237624
-0.000263523
9.40919e-05
-0.000262248
-0.000308886
9.79489e-05
-0.000237854
-0.000303003
8.67321e-05
-0.000172332
-0.000254524
7.0233e-05
-8.15051e-05
-0.000172231
5.82476e-05
1.66658e-05
-6.34372e-05
5.50858e-05
0.000105662
6.34289e-05
5.89058e-05
0.000174713
0.000196966
6.42472e-05
0.000218278
0.000320904
7.02005e-05
0.000239828
9.09444e-05
0.000250404
0.000290631
5.98547e-05
0.000218618
-1.29564e-06
9.03532e-05
-7.09389e-05
-6.45016e-05
-0.000144447
-0.000209673
-0.000207032
-0.000316114
-0.000242425
-0.000371307
-0.000241604
-0.00037791
-0.000205453
-0.000345912
-0.000143102
-0.000284936
-6.8229e-05
-0.000201346
4.94086e-06
-9.91756e-05
6.4435e-05
1.55094e-05
0.000103305
0.000131029
0.000119685
0.0002294
0.000118006
0.000105229
0.000147407
7.33452e-06
-9.34152e-05
8.29792e-05
3.61572e-05
-7.03655e-05
-2.4362e-05
7.30258e-05
-5.48583e-05
-0.000145513
0.000109754
-5.52217e-05
-0.00025233
0.000139697
-6.65053e-05
-0.000326957
0.000158379
-7.75524e-05
-0.000364931
0.000162936
-7.93042e-05
-0.000371191
0.000153004
-6.89628e-05
-0.00035306
0.000131253
-5.06037e-05
-0.000315057
0.000102283
-3.32393e-05
-0.000257834
7.0526e-05
-2.69127e-05
-0.000181055
3.89169e-05
-3.7983e-05
-8.79576e-05
9.69451e-06
-6.51204e-05
1.04615e-05
-1.34061e-05
-9.77365e-05
9.58642e-05
-2.43722e-05
-0.00011897
-1.48888e-05
-0.000115855
6.11156e-05
5.23797e-05
-0.000137031
-1.34333e-05
8.00818e-05
-8.97431e-05
-0.000118893
9.92752e-05
-4.84889e-05
-0.000227601
0.00010433
-2.14279e-05
-0.000315888
9.53704e-05
-7.26212e-06
-0.000371267
7.75453e-05
-1.03969e-06
-0.000393245
5.73271e-05
9.06334e-07
-0.000388344
3.9446e-05
-6.81799e-07
-0.000363599
2.58738e-05
-7.79585e-06
-0.000322378
1.63428e-05
-2.40516e-05
-0.000264493
9.32789e-06
-5.26201e-05
-0.00018985
3.21344e-06
-9.3242e-05
-0.000103121
-2.11523e-06
-0.00013948
-1.67368e-05
-3.86051e-06
-0.000178123
5.11121e-05
2.79876e-06
-0.000193697
2.2875e-05
-0.000178256
1.58893e-05
9.46615e-05
-0.000150457
-5.8034e-05
0.000114672
-7.65109e-05
-0.000154985
0.000110798
-1.0427e-05
-0.000250107
8.07927e-05
3.73993e-05
-0.000324395
3.26341e-05
6.50736e-05
-0.000369826
-1.87371e-05
7.44116e-05
-0.000388093
-5.85496e-05
6.7619e-05
-0.000384828
-7.91162e-05
4.64827e-05
-0.000364257
-8.07726e-05
1.22198e-05
-0.00032705
-6.91162e-05
-3.42073e-05
-0.000271944
-5.09816e-05
-9.09741e-05
-0.000199593
-3.15893e-05
-0.000153177
-0.000116471
-1.28907e-05
-0.000210601
-3.62574e-05
6.77725e-06
-0.0002481
2.29615e-05
3.09903e-05
-0.000251096
6.16105e-05
-0.000215122
1.71819e-05
0.000129239
-0.000135407
-4.53589e-05
0.000138001
-3.88866e-05
-0.000128353
0.000109359
4.53656e-05
-0.000210599
4.51878e-05
0.000104695
-0.000277341
-3.81519e-05
0.000134973
-0.000323609
-0.00011605
0.000136956
-0.000350966
-0.000167733
0.000113833
-0.000361821
-0.000184985
7.00169e-05
-0.000355585
-0.000172316
1.03042e-05
-0.000329135
-0.000140566
-6.05155e-05
-0.000279897
-0.00010045
-0.000136927
-0.000209526
-5.9175e-05
-0.000210812
-0.000126475
-1.96343e-05
-0.000269677
-4.5832e-05
1.88547e-05
-0.00029792
1.43996e-05
5.82207e-05
-0.000282757
9.74955e-05
-0.000223604
6.34835e-05
0.000150213
-9.66277e-05
2.14809e-05
0.000147726
1.47041e-05
-4.35706e-05
9.63875e-05
0.0001077
-0.000114518
3.07696e-06
0.000168875
-0.000180358
-0.000107245
0.000192788
-0.000237467
-0.000201635
0.000180426
-0.000285361
-0.000255462
0.000137059
-0.00032098
-0.000263068
7.05996e-05
-0.000337545
-0.000234676
-1.05257e-05
-0.000327575
-0.000185847
-9.82268e-05
-0.000287019
-0.000129433
-0.00018441
-0.000218449
-7.29725e-05
-0.000259
-0.000132133
-1.91957e-05
-0.000309072
-4.44623e-05
3.20751e-05
-0.000320617
2.61136e-05
8.14351e-05
-0.000284279
0.000125126
-0.00020351
0.000147204
0.000152604
-3.87163e-05
0.000132599
0.000141499
7.83996e-05
8.78089e-05
7.29998e-05
0.000170781
2.57283e-05
-4.0606e-05
0.000225274
-4.55326e-05
-0.000166342
0.000235707
-0.000122212
-0.000264532
0.000203882
-0.000199582
-0.000309734
0.000138274
-0.000267522
-0.000301776
5.1007e-05
-0.000312411
-0.000257422
-4.58892e-05
-0.000322438
-0.000195863
-0.000141867
-0.00029225
-0.00013048
-0.000227124
-0.000225118
-6.77378e-05
-0.000291274
-0.000132621
-9.20902e-06
-0.000323031
-3.22837e-05
4.58112e-05
-0.000312166
5.65454e-05
9.73444e-05
-0.000254012
0.000138812
-0.00015536
0.000255818
0.000133615
3.56308e-05
0.000272428
0.000117785
0.000150001
0.000248497
4.04297e-05
0.000233624
0.000192147
-8.15294e-05
0.000274391
0.000109494
-0.000208556
0.000265524
6.24954e-06
-0.000296514
0.000210243
-0.000106468
-0.000322717
0.000121423
-0.000210386
-0.000294731
1.61449e-05
-0.000285207
-0.000235719
-9.00845e-05
-0.000315583
-0.000167003
-0.000184986
-0.00029535
-0.000100965
-0.000258529
-0.00022842
-4.1965e-05
-0.000301861
-0.000127241
1.04001e-05
-0.000307426
-1.0178e-05
5.85139e-05
-0.000270503
0.000102357
0.000102912
-0.000191609
0.000134021
-7.88011e-05
0.000373685
9.54696e-05
0.000123541
0.000421388
7.76198e-05
0.000227252
0.000416983
9.16269e-07
0.000295956
0.000362738
-0.000115633
0.000317349
0.000263516
-0.000228442
0.000284148
0.000129201
-0.000292541
0.000202299
-2.08394e-05
-0.000291481
9.0528e-05
-0.000159822
-0.000241742
-2.86194e-05
-0.000261889
-0.000171558
-0.000136658
-0.00030947
-0.000102496
-0.000220788
-0.000296396
-4.45796e-05
-0.000272479
-0.000227384
7.99637e-07
-0.000286464
-0.000115619
3.65702e-05
-0.000260656
2.00396e-05
6.77525e-05
-0.000196616
0.000158665
9.60996e-05
-9.93511e-05
0.000109703
2.52108e-05
0.000483965
4.58762e-05
0.00021688
0.000557821
2.6015e-05
0.000302944
0.000569334
-4.13544e-05
0.00035248
0.000513244
-0.000138674
0.00035063
0.000393971
-0.00022237
0.000289927
0.000227699
-0.000251424
0.000180785
4.32188e-05
-0.000218722
4.89375e-05
-0.000125019
-0.000149228
-7.77338e-05
-0.000247404
-7.3915e-05
-0.000178875
-0.000305856
-1.24295e-05
-0.000242807
-0.000295213
2.88284e-05
-0.000264503
-0.000221305
5.20364e-05
-0.000244113
-9.80551e-05
6.34194e-05
-0.000186011
5.58143e-05
7.04864e-05
-9.7596e-05
0.000219149
7.70658e-05
1.3912e-05
6.99706e-05
0.000148253
0.000570723
-4.26362e-06
0.000299366
0.000660805
-2.80413e-05
0.000361945
0.000681545
-7.98424e-05
0.000390259
0.000619419
-0.000146425
0.000364375
0.000479206
-0.000189299
0.000277089
0.000284829
-0.000176835
0.000144651
7.42139e-05
-0.000113342
-1.44589e-07
-0.000112548
-3.01593e-05
-0.000125278
-0.000244659
4.20773e-05
-0.000210158
-0.000305348
8.77315e-05
-0.000246176
-0.000291449
0.000105228
-0.000233764
-0.000210374
0.000100903
-0.000179637
-7.66022e-05
8.41996e-05
-9.42212e-05
9.16887e-05
6.47389e-05
1.09485e-05
0.000274875
4.81167e-05
0.000129109
2.33215e-05
0.000269133
0.000620933
-4.55411e-05
0.000350667
0.000713744
-7.40685e-05
0.00038622
0.000733429
-0.000106657
0.000393204
0.00066056
-0.000135545
0.000346238
0.000501634
-0.000131992
0.000238946
0.000288241
-7.83307e-05
9.33025e-05
6.5161e-05
9.49991e-06
-5.26496e-05
-0.000125383
9.70474e-05
-0.000164998
-0.000254231
0.000157189
-0.000225154
-0.000307718
0.000180193
-0.000229458
-0.000285425
0.000170004
-0.000184873
-0.000196362
0.00013723
-0.00010442
-5.5306e-05
9.38958e-05
-2.83957e-06
0.000120759
5.06184e-05
0.000106742
0.000314771
1.39943e-05
0.000220645
-2.04574e-05
0.000357044
0.000625977
-7.30989e-05
0.000355166
0.000707233
-0.00010336
0.000364183
0.000713258
-0.000114808
0.000351611
0.000624772
-0.000105017
0.00028963
0.000452434
-5.78362e-05
0.000173809
0.000233606
2.88678e-05
2.99127e-05
1.54768e-05
0.000129793
-0.000102449
-0.000162059
0.000211091
-0.000190972
-0.000274418
0.000251711
-0.000221294
-0.000312354
0.00024879
-0.000195755
-0.000278413
0.000211786
-0.000127445
-0.000182657
0.000154781
-3.37571e-05
-3.92932e-05
9.10835e-05
6.9045e-05
0.000136221
3.08523e-05
0.000169077
0.000329101
-1.8911e-05
0.000266513
-5.38531e-05
0.000385472
0.000583199
-8.60181e-05
0.000309192
0.000640416
-0.000111025
0.00029719
0.000621307
-0.000100887
0.000269502
0.000514165
-5.78866e-05
0.000200825
0.000336481
2.15293e-05
9.01363e-05
0.000127985
0.000126154
-3.61122e-05
-6.72217e-05
0.000226215
-0.000141356
-0.000216132
0.000291946
-0.000198639
-0.00030121
0.000309544
-0.000199536
-0.000318269
0.000282685
-0.000151998
-0.000272127
0.000225067
-7.31003e-05
-0.000172745
0.000152542
1.84687e-05
-3.26606e-05
7.79103e-05
0.000107886
0.000134281
9.86435e-06
0.000186564
0.000314058
-4.44395e-05
0.000257985
-7.338e-05
0.000346549
0.000497528
-8.47289e-05
0.000222614
0.000521941
-9.65733e-05
0.000199394
0.000471493
-6.69716e-05
0.000164592
0.000347234
-2.32071e-06
9.92933e-05
0.000173907
9.12784e-05
6.45614e-06
-9.69273e-06
0.000195109
-8.95359e-05
-0.000167736
0.000280738
-0.000159537
-0.000277334
0.00032506
-0.000184763
-0.000329315
0.000321333
-0.000163089
-0.000324248
0.000277949
-0.00010609
-0.00026781
0.000210409
-3.14807e-05
-0.000168667
0.000133619
4.39045e-05
-3.67423e-05
5.85105e-05
0.000109
0.000115479
-8.1005e-06
0.000159482
0.000273343
-5.88838e-05
0.000201073
-7.90648e-05
0.000253952
0.00038218
-6.93763e-05
0.000114287
0.000370412
-6.34485e-05
9.22356e-05
0.000289579
-2.0241e-05
6.13933e-05
0.000154154
5.07644e-05
1.00117e-05
-5.43672e-06
0.000138083
-5.57551e-05
-0.000154836
0.000222971
-0.000116087
-0.000268668
0.000283385
-0.000151063
-0.000335385
0.000304785
-0.000150861
-0.000354062
0.000286173
-0.000118496
-0.000329026
0.000237611
-6.62019e-05
-0.000265756
0.000172901
-9.09662e-06
-0.000170299
0.000103563
4.02617e-05
-4.99092e-05
3.74704e-05
7.53626e-05
8.41088e-05
-2.00126e-05
9.61724e-05
0.000216
-6.13186e-05
0.000110372
-7.21624e-05
0.000132771
0.000257485
4.94196e-06
0.000212603
-3.00836e-06
0.000108205
-1.75023e-05
-3.09572e-05
-4.70654e-05
-0.000171413
-8.48867e-05
-0.000284246
-0.000115766
-0.000354607
-0.000126812
-0.000381531
-0.000113948
-0.000371407
-8.25461e-05
-0.000331151
-4.4017e-05
-0.000265035
-1.05686e-05
-0.000175916
9.27444e-06
-6.86239e-05
1.39808e-05
4.64929e-05
8.18532e-06
0.000152918
2.2112e-06
7.08714e-06
0.00013545
-0.000162917
-0.000146534
9.47103e-05
-9.38473e-05
-7.46016e-05
1.42346e-05
3.50938e-06
-8.62183e-06
-8.28763e-05
0.000111993
3.20026e-05
-0.000172176
0.00021433
4.57841e-05
-0.000237212
0.000295018
4.33935e-05
-0.000273524
0.000341336
3.72241e-05
-0.000285577
0.000345855
3.40714e-05
-0.000280051
0.000308637
3.22788e-05
-0.000260215
0.00023694
2.31784e-05
-0.000224556
0.000142357
-3.65775e-06
-0.000169841
3.79166e-05
-5.31956e-05
-9.63067e-05
-6.25827e-05
-0.00011923
-1.21053e-05
-0.000144828
-0.000182377
6.7057e-05
-0.000194712
-0.000216669
-0.000201893
-0.0002039
9.42611e-05
-0.00012846
-0.00016756
4.66899e-05
-6.15877e-05
-7.44316e-05
-3.13544e-05
1.87899e-05
1.42749e-05
-0.000118841
9.75277e-05
8.05233e-05
-0.00019467
0.000162904
0.000119994
-0.00024572
0.000207967
0.000137061
-0.00026975
0.000228883
0.000137389
-0.000272019
0.000223686
0.000123757
-0.000258988
0.000192554
9.52557e-05
-0.000233509
0.000138566
4.88446e-05
-0.000194287
6.7738e-05
-1.72232e-05
-0.000139502
-1.1299e-05
-9.88113e-05
-7.14549e-05
-8.72205e-05
-0.000182889
5.06656e-07
-0.000146848
-0.000248065
6.19509e-05
-0.000177873
-0.00027198
-0.000172671
-0.000243717
8.57285e-05
-9.81716e-05
-0.000173077
3.98008e-05
-3.87973e-05
-5.33737e-05
-3.20955e-05
2.02856e-05
5.99736e-05
-0.000110616
6.61618e-05
0.000147286
-0.00017728
9.33541e-05
0.000201287
-0.000221709
0.00010391
0.000222897
-0.000243172
0.0001025
0.000215466
-0.000246434
9.1524e-05
0.000181906
-0.000236001
7.00892e-05
0.000124252
-0.000212887
3.66124e-05
4.46313e-05
-0.00017532
-8.26424e-06
-5.25383e-05
-0.000122379
-6.00072e-05
-0.00015741
-5.78284e-05
-0.000109801
-0.000252571
8.49887e-06
-0.000146354
-0.000314922
6.31573e-05
-0.00015942
-0.000324207
-0.000143918
-0.000274114
0.000106449
-7.51547e-05
-0.00016051
7.25443e-05
-2.6265e-05
-1.75139e-05
1.27522e-05
1.03518e-05
0.000115092
-5.61429e-05
2.41434e-05
0.000215609
-0.000118341
1.62977e-05
0.000274227
-0.000165406
-2.09016e-06
0.000290022
-0.000196484
-1.89254e-05
0.000266338
-0.000213573
-2.97469e-05
0.000208376
-0.000216884
-3.84207e-05
0.000122125
-0.00020404
-5.13132e-05
1.45656e-05
-0.000172261
-7.201e-05
-0.00010496
-0.000121531
-9.88349e-05
-0.000222715
-5.72233e-05
-0.000125177
-0.000318609
1.02711e-05
-0.00014179
-0.000369979
6.81715e-05
-0.000140598
-0.00035948
-0.000118595
-0.000285119
0.000151203
-6.3838e-05
-0.000131489
0.000139077
-2.64076e-05
2.69725e-05
9.73917e-05
-1.03831e-05
0.000170121
3.91854e-05
-2.37863e-05
0.000275011
-2.28161e-05
-5.87278e-05
0.000329815
-8.14108e-05
-9.56919e-05
0.000332622
-0.000133667
-0.000117617
0.000288006
-0.000176176
-0.000121157
0.000204519
-0.000203045
-0.00011473
9.26524e-05
-0.000207487
-0.000109133
-3.59655e-05
-0.0001853
-0.000110622
-0.000167985
-0.00013731
-0.000118915
-0.000286909
-7.02362e-05
-0.000128752
-0.000372571
4.80689e-06
-0.000132541
-0.000404909
7.49323e-05
-0.000123807
-0.000371196
-0.000101282
-0.000273549
0.000213182
-6.81836e-05
-8.72949e-05
0.000230069
-4.17473e-05
7.6852e-05
0.000210747
-4.1391e-05
0.000221111
0.000163334
-7.32052e-05
0.000322106
9.72047e-05
-0.000123157
0.000366265
1.94131e-05
-0.000164891
0.000350873
-6.2866e-05
-0.000179691
0.000282627
-0.000138914
-0.000168577
0.000174476
-0.000195682
-0.000145709
4.18568e-05
-0.000221917
-0.000125384
-9.93794e-05
-0.000211914
-0.000114846
-0.000232904
-0.000166987
-0.000113925
-0.000341191
-9.47653e-05
-0.000117654
-0.000406351
-7.09917e-06
-0.000119005
-0.000413369
8.24972e-05
-0.000112041
-0.000355374
-9.67451e-05
-0.000237657
0.000284583
-8.98089e-05
-2.76837e-05
0.000333434
-7.26035e-05
0.000132007
0.000338043
-8.1214e-05
0.000268838
0.000299999
-0.0001196
0.00035883
0.000225152
-0.000169307
0.000386522
0.000121946
-0.000200218
0.000348774
4.08918e-06
-0.000195929
0.000255518
-0.000109092
-0.000164443
0.000125192
-0.000197526
-0.00012568
-2.16796e-05
-0.000246206
-9.59565e-05
-0.000165733
-0.000248335
-8.20807e-05
-0.000289165
-0.000205464
-8.28912e-05
-0.000375766
-0.000125813
-9.25671e-05
-0.000412164
-2.19397e-05
-0.000103194
-0.000390186
9.15567e-05
-0.000108042
-0.000309105
-0.000108057
-0.000175576
0.0003571
-0.000125851
4.60126e-05
0.000436158
-0.000116372
0.000191962
0.000462592
-0.000125779
0.000314087
0.000430486
-0.000157253
0.000387109
0.000342308
-0.000190383
0.000393401
0.000209764
-0.000195598
0.000330224
5.49976e-05
-0.000162916
0.000212282
-9.38374e-05
-0.000108621
6.43934e-05
-0.00021082
-5.71557e-05
-8.81996e-05
-0.000278464
-2.50894e-05
-0.000224012
-0.000289555
-1.7505e-05
-0.000325964
-0.000246016
-3.1192e-05
-0.000381702
-0.000156674
-5.82184e-05
-0.000384347
-3.48729e-05
-8.84508e-05
-0.00033316
0.000103757
-0.000113393
-0.00023263
-0.000134509
-8.81089e-05
0.000422198
-0.000168861
0.000125924
0.00052427
-0.000165693
0.000250193
0.000566724
-0.000168046
0.000352293
0.000535505
-0.000179529
0.000404124
0.000430389
-0.000181248
0.000385908
0.000268142
-0.000149364
0.000296798
8.01603e-05
-8.3722e-05
0.000157724
-9.76559e-05
-8.51191e-06
-2.64041e-08
-0.00023554
4.94614e-05
-0.000147608
-0.000315049
7.5249e-05
-0.000263637
-0.000329424
6.68562e-05
-0.000334489
-0.000281436
3.06976e-05
-0.00035399
-0.000180784
-2.2112e-05
-0.00032277
-4.16291e-05
-7.84476e-05
-0.000246754
0.000119906
-0.000127552
-0.000133465
-0.000170663
1.60808e-05
0.000470173
-0.000209272
0.00019608
0.000583847
-0.000210583
0.00029316
0.000633055
-0.000199245
0.000372251
0.000596818
-0.000180349
0.000401433
0.000473541
-0.000140214
0.000359332
0.000286025
-6.57328e-05
0.000248535
7.39859e-05
3.15288e-05
9.66442e-05
-0.000121401
0.000121284
-5.96861e-05
-0.000268879
0.000177096
-0.000190315
-0.000350767
0.000187598
-0.000276637
-0.000361689
0.000155058
-0.000311043
-0.000305828
9.01931e-05
-0.000294994
-0.000193979
7.95622e-06
-0.000236138
-4.09438e-05
-7.56201e-05
-0.000144914
0.000137501
-0.000147809
-2.90784e-05
-0.000207845
0.000117341
0.000491335
-0.00023933
0.000237392
0.000603066
-0.000241595
0.0003055
0.000647458
-0.000211637
0.000361204
0.000600369
-0.000156632
0.00036961
0.000461041
-7.11196e-05
0.00030918
0.000257833
4.40652e-05
0.000186712
3.57916e-05
0.00016581
3.51105e-05
-0.000162167
0.000260609
-0.000106364
-0.000305942
0.000304917
-0.0002092
-0.000380115
0.000292555
-0.000260241
-0.000381585
0.000231165
-0.000259511
-0.000316243
0.000136267
-0.000215836
-0.000195803
2.64193e-05
-0.000141742
-3.52984e-05
-8.034e-05
-4.90436e-05
0.000150489
-0.000169937
5.69872e-05
-0.000237737
0.000189423
0.000478953
-0.000255422
0.000236623
0.000575727
-0.000252867
0.00027868
0.00060366
-0.000201379
0.000313419
0.000541138
-0.000110431
0.00030595
0.000391139
1.57655e-05
0.000236924
0.000185688
0.000162445
0.000116983
-2.94017e-05
0.000297367
-1.89163e-05
-0.000213616
0.000386786
-0.000132934
-0.000340598
0.000411994
-0.000201389
-0.000398501
0.000372972
-0.000218269
-0.000386877
0.000283056
-0.000190961
-0.000313015
0.000162124
-0.000133477
-0.00018884
3.12079e-05
-5.99183e-05
-2.89497e-05
-9.09135e-05
1.97608e-05
0.000152714
-0.000189584
0.000104496
-0.000255685
0.000211814
0.0004326
-0.000257561
0.000192873
0.000504095
-0.000243485
0.000216313
0.000506824
-0.000170262
0.000235657
0.000427143
-4.96506e-05
0.000219725
0.000274155
0.000105186
0.000153704
8.10862e-05
0.000268624
5.07777e-05
-0.000110458
0.000403794
-5.62386e-05
-0.000266378
0.000479152
-0.000135086
-0.000366317
0.000481668
-0.000169271
-0.000402757
0.000417376
-0.000159962
-0.000377531
0.000304535
-0.000119804
-0.000298335
0.000165952
-6.45547e-05
-0.000176231
2.34275e-05
-6.43792e-06
-2.4832e-05
-0.000104683
4.89351e-05
0.000142178
-0.000203719
0.000105109
-0.000261467
0.000180367
0.000359643
-0.000247708
0.000117704
0.00039973
-0.0002172
0.000133022
0.000373877
-0.000125589
0.000145772
0.00027935
1.32912e-05
0.000130878
0.000132033
0.000179865
7.90939e-05
-3.62948e-05
0.000343328
4.08808e-06
-0.000192023
0.00046685
-6.68642e-05
-0.000310255
0.000523
-0.000110378
-0.000377925
0.000504063
-0.000117815
-0.00039179
0.000420916
-9.57643e-05
-0.000355047
0.000294941
-5.86304e-05
-0.000274659
0.000149665
-2.01963e-05
-0.000159853
5.8157e-06
1.18062e-05
-2.30173e-05
-0.000119307
3.72706e-05
0.000122118
-0.000211544
6.37624e-05
-0.000257672
0.00010769
0.000274078
-0.000228414
2.86324e-05
0.000281594
-0.000180346
4.78653e-05
0.000229151
-7.71241e-05
6.53715e-05
0.000124646
6.57525e-05
6.20547e-05
-1.03145e-05
0.000225709
3.33613e-05
-0.000147226
0.000372576
-8.42343e-06
-0.000261576
0.000474352
-4.42151e-05
-0.000338734
0.000509568
-6.02707e-05
-0.000373423
0.000475069
-5.48131e-05
-0.000366482
0.000384084
-3.6311e-05
-0.000321653
0.000257842
-1.68269e-05
-0.000244039
0.00011776
-5.44643e-06
-0.000140579
-1.77959e-05
-4.4857e-06
-2.17335e-05
-0.000133089
-8.89128e-06
9.85984e-05
-0.000213753
-7.75115e-06
-0.000247186
1.31654e-05
0.000193519
-5.76178e-05
0.000172225
-2.32381e-05
9.75524e-05
1.07765e-05
-1.38482e-05
2.79817e-05
-0.000135161
2.48161e-05
-0.000239673
1.03935e-05
-0.000311413
-2.27081e-06
-0.000346928
-5.70266e-06
-0.000350284
-1.16645e-06
-0.0003266
3.18833e-06
-0.000278844
-1.75364e-06
-0.000208715
-2.05131e-05
-0.000119515
-4.98567e-05
-1.97535e-05
-7.93994e-05
7.69923e-05
-9.50388e-05
-8.48985e-05
0.000105727
-0.000312984
-0.000195225
8.27189e-05
-0.000211285
-8.81099e-05
3.03191e-05
-6.47034e-05
1.8307e-05
-3.64907e-05
0.000104484
9.61741e-05
-9.95171e-05
0.000270483
0.000137131
-0.000145156
0.000407288
0.000148764
-0.000169547
0.000492206
0.000144573
-0.000177135
0.000510386
0.000134409
-0.000174691
0.000458758
0.000119275
-0.000165485
0.000346744
9.12719e-05
-0.000147237
0.000193154
3.9055e-05
-0.000114955
2.17741e-05
-4.23904e-05
-6.68662e-05
-0.000141479
-0.000143063
-8.28543e-06
-0.000271925
-0.000235883
4.91569e-05
-0.000349949
-0.000286678
-0.000366401
-0.000272869
0.000103445
-0.000281768
-0.000199808
7.86323e-05
-0.000187047
-7.38561e-05
3.28984e-05
-5.93625e-05
5.46679e-05
-2.22028e-05
8.10943e-05
0.000159014
-7.21203e-05
0.000213051
0.000227344
-0.000105956
0.000317385
0.0002608
-0.000120918
0.000378822
0.000265735
-0.000121156
0.000387387
0.000246994
-0.000112622
0.000340485
0.000204995
-9.82099e-05
0.000244338
0.000136838
-7.65448e-05
0.000113257
4.10087e-05
-4.50934e-05
-3.25474e-05
-7.59411e-05
-4.44597e-06
-0.000169675
-0.000195341
3.91294e-05
-0.000275409
-0.000288156
7.74431e-05
-0.000333899
-0.000326345
-0.000339224
-0.000295863
0.00012232
-0.000255607
-0.000201143
0.000102895
-0.000172115
-4.88812e-05
6.48472e-05
-6.65414e-05
0.0001052
1.79573e-05
4.27627e-05
0.000232507
-2.47457e-05
0.000139054
0.000317986
-5.35877e-05
0.000210334
0.00035879
-6.63614e-05
0.000248912
0.00035815
-6.69233e-05
0.000249743
0.000320111
-6.0247e-05
0.000210556
0.000247505
-4.83686e-05
0.000134192
0.000142899
-2.9916e-05
3.01637e-05
1.21026e-05
-2.99275e-06
-8.58167e-05
-0.000131064
3.08775e-05
-0.000193513
-0.000262604
6.70178e-05
-0.000274054