/*--------------------------------*- C++ -*----------------------------------*\
| =========                 |                                                 |
| \\      /  F ield         | OpenFOAM: The Open Source CFD Toolbox           |
|  \\    /   O peration     | Version:  3.0.0                                 |
|   \\  /    A nd           | Web:      www.OpenFOAM.org                      |
|    \\/     M anipulation  |                                                 |
\*---------------------------------------------------------------------------*/
FoamFile
{
    version     2.0;
    format      ascii;
    class       volVectorField;
    location    "10";
    object      U;
}
// * * * * * * * * * * * * * * * * * * * * * * * * * * * * * * * * * * * * * //

dimensions      [0 1 -1 0 0 0 0];

internalField   nonuniform List<vector> 
4096
(
(0.0433397 0.0324322 -0.00765522)
(0.0285817 0.0297466 -0.0240282)
(-0.00211034 0.0265964 -0.0409766)
(-0.0388156 0.0228018 -0.0561863)
(-0.0729282 0.0181716 -0.0665477)
(-0.0978091 0.0126166 -0.0697076)
(-0.110662 0.00633484 -0.06498)
(-0.112235 0.000337301 -0.0533408)
(-0.10495 -0.00369986 -0.037008)
(-0.091132 -0.00426578 -0.0189339)
(-0.0722458 -0.000915454 -0.00223785)
(-0.0491451 0.00544213 0.0103846)
(-0.0229545 0.012987 0.0171835)
(0.00379178 0.0199185 0.0177747)
(0.0266067 0.0257567 0.0132139)
(0.0431003 0.0323309 0.00475675)
(0.0138644 0.0489545 -0.0271852)
(-0.00688961 0.0465485 -0.0362052)
(-0.0382863 0.0390921 -0.0445092)
(-0.0715512 0.0271427 -0.0508508)
(-0.0992341 0.0122898 -0.0539068)
(-0.116922 -0.00290886 -0.0530605)
(-0.123838 -0.0156561 -0.0484561)
(-0.12169 -0.0236024 -0.0407646)
(-0.11286 -0.0253793 -0.0310852)
(-0.0990794 -0.0208824 -0.0209455)
(-0.0811092 -0.0112306 -0.0121581)
(-0.0593716 0.0015436 -0.00643168)
(-0.0349965 0.0150668 -0.00482585)
(-0.0108679 0.0273641 -0.0072322)
(0.00829848 0.0375146 -0.0123544)
(0.0185924 0.0457895 -0.0189825)
(-0.00685981 0.065154 -0.0347435)
(-0.0286203 0.060452 -0.0360569)
(-0.0576049 0.0465162 -0.0366918)
(-0.0859659 0.0249339 -0.0367331)
(-0.107997 -0.000460909 -0.0360999)
(-0.121167 -0.0244748 -0.0348902)
(-0.125838 -0.0421998 -0.0331564)
(-0.123744 -0.0505412 -0.0308238)
(-0.116471 -0.0488307 -0.0279567)
(-0.104728 -0.0384232 -0.0250447)
(-0.0885795 -0.0218953 -0.0229654)
(-0.0682778 -0.00229253 -0.0226037)
(-0.0452556 0.0175055 -0.0242846)
(-0.0228865 0.0352741 -0.0273278)
(-0.00612608 0.0496422 -0.0301907)
(0.00125997 0.0596195 -0.0318338)
(-0.0149174 0.0801638 -0.0311907)
(-0.0336423 0.0713374 -0.0262075)
(-0.0580558 0.0498953 -0.0215478)
(-0.0811817 0.0186935 -0.0185121)
(-0.0990626 -0.0161561 -0.0176673)
(-0.110539 -0.0471632 -0.0190283)
(-0.116374 -0.0679592 -0.0219403)
(-0.117658 -0.0753494 -0.0253357)
(-0.114654 -0.0696703 -0.0283957)
(-0.106778 -0.0536409 -0.0309483)
(-0.093349 -0.0309237 -0.0333301)
(-0.0745575 -0.00517249 -0.0358899)
(-0.0522559 0.0204406 -0.0384245)
(-0.0303496 0.0434403 -0.0398695)
(-0.0140748 0.0619187 -0.0386892)
(-0.00683515 0.0737917 -0.0343307)
(-0.00895341 0.0914998 -0.0185643)
(-0.0218007 0.0782289 -0.00977401)
(-0.0404142 0.0496029 -0.00288464)
(-0.0587077 0.010003 0.000118225)
(-0.074134 -0.0323601 -0.00153054)
(-0.0864594 -0.0680893 -0.00735196)
(-0.0963254 -0.089941 -0.0156587)
(-0.103657 -0.0951733 -0.0243088)
(-0.107042 -0.0853889 -0.0317536)
(-0.104445 -0.0645358 -0.0374648)
(-0.0944349 -0.0369644 -0.0415783)
(-0.0771757 -0.00650639 -0.0442427)
(-0.054938 0.0236696 -0.0450724)
(-0.032108 0.0509267 -0.0430447)
(-0.0142549 0.0728252 -0.0370417)
(-0.00494909 0.0863661 -0.0273157)
(0.0098318 0.0972106 0.000553536)
(0.00485004 0.0805817 0.0106757)
(-0.00750655 0.0462246 0.0169311)
(-0.0217525 0.000312059 0.0173738)
(-0.0364059 -0.0470305 0.0112804)
(-0.0517873 -0.0848816 -0.000172552)
(-0.0679748 -0.105643 -0.0140539)
(-0.0833037 -0.107563 -0.0270573)
(-0.0944475 -0.0937419 -0.0370362)
(-0.0979125 -0.0691959 -0.0433723)
(-0.0916055 -0.0385866 -0.0463285)
(-0.0757159 -0.005527 -0.0462415)
(-0.0528853 0.0271463 -0.0430332)
(-0.0278807 0.0568857 -0.0362013)
(-0.00664774 0.0808805 -0.0254524)
(0.0066823 0.0953923 -0.0119196)
(0.0379513 0.0959498 0.0240869)
(0.0422854 0.0780805 0.0336161)
(0.0361284 0.0403148 0.0370056)
(0.0249842 -0.00919987 0.0329607)
(0.00953087 -0.058531 0.0209469)
(-0.0107687 -0.0956075 0.00301392)
(-0.0349701 -0.113055 -0.0163981)
(-0.0594398 -0.110624 -0.0327178)
(-0.0788341 -0.0930632 -0.0433291)
(-0.088353 -0.0662321 -0.0477871)
(-0.0854572 -0.0347426 -0.0468277)
(-0.0704794 -0.00165875 -0.0414082)
(-0.046388 0.0308359 -0.0322445)
(-0.0182325 0.0606201 -0.0198108)
(0.00759471 0.0848558 -0.00481398)
(0.0270439 0.0990818 0.0109889)
(0.0703003 0.0873739 0.050109)
(0.084971 0.0706235 0.0579105)
(0.0844704 0.0323286 0.0569233)
(0.075519 -0.0176157 0.0469067)
(0.05792 -0.0656237 0.0277588)
(0.0312592 -0.09891 0.00271268)
(-0.0019244 -0.110961 -0.0219925)
(-0.0357125 -0.103487 -0.0404915)
(-0.062844 -0.0828611 -0.0498855)
(-0.0775489 -0.0554387 -0.0501941)
(-0.0771756 -0.025413 -0.0429813)
(-0.0623569 0.00496998 -0.030228)
(-0.0363907 0.0343944 -0.0138308)
(-0.00454964 0.0615254 0.00453628)
(0.0262157 0.0838946 0.0232984)
(0.0539929 0.0961893 0.0407079)
(0.101421 0.073013 0.0763927)
(0.126403 0.0587241 0.0814445)
(0.130584 0.0227999 0.0752967)
(0.123003 -0.0241879 0.0583468)
(0.102192 -0.0674649 0.0312842)
(0.0683273 -0.0941172 -0.00100446)
(0.0261679 -0.0991788 -0.0302973)
(-0.0159561 -0.0866146 -0.0495957)
(-0.0492185 -0.0641436 -0.0560065)
(-0.0673973 -0.0381167 -0.0503337)
(-0.0681356 -0.0119105 -0.0353017)
(-0.0525939 0.0132787 -0.0142177)
(-0.0243691 0.0371167 0.0097101)
(0.0111032 0.0592466 0.0336931)
(0.0462354 0.0778967 0.0557836)
(0.0842741 0.0868476 0.0751677)
(0.126961 0.0561364 0.0991391)
(0.16034 0.043902 0.100282)
(0.167573 0.0125188 0.0888123)
(0.160353 -0.028351 0.0647941)
(0.135532 -0.063714 0.0300426)
(0.0944367 -0.0814298 -0.0085241)
(0.0445489 -0.0787786 -0.0408225)
(-0.00361183 -0.0619729 -0.0591289)
(-0.0403173 -0.0394884 -0.0609418)
(-0.059556 -0.017027 -0.0481545)
(-0.0596942 0.00327392 -0.0248884)
(-0.0425868 0.0214411 0.00411696)
(-0.0120906 0.0381531 0.0344925)
(0.0262921 0.0538972 0.0627347)
(0.0644722 0.0677153 0.0873247)
(0.113496 0.0729759 0.109256)
(0.144189 0.0404443 0.113745)
(0.182061 0.0285532 0.109624)
(0.189749 0.00263826 0.0929537)
(0.181159 -0.0296847 0.0627581)
(0.151685 -0.0546462 0.0220632)
(0.104366 -0.0621298 -0.0202675)
(0.0494279 -0.0522518 -0.0528853)
(-0.00116685 -0.033032 -0.0680033)
(-0.0377399 -0.0128186 -0.0639447)
(-0.0552141 0.00405207 -0.0439017)
(-0.0530387 0.0170602 -0.0134202)
(-0.033793 0.0275134 0.021555)
(-0.00143956 0.0369107 0.0559113)
(0.0386277 0.0461701 0.0859714)
(0.0781812 0.0549329 0.111288)
(0.136447 0.0575863 0.135083)
(0.151412 0.0282797 0.116529)
(0.188701 0.0152266 0.106067)
(0.193468 -0.00523732 0.0843521)
(0.18088 -0.0277276 0.0497389)
(0.146309 -0.0411518 0.00629209)
(0.0949235 -0.0386804 -0.0358772)
(0.0389344 -0.0234972 -0.0652934)
(-0.0095335 -0.00448608 -0.07497)
(-0.0419963 0.0111744 -0.0644443)
(-0.0549643 0.0211315 -0.0381893)
(-0.049124 0.0266346 -0.00283759)
(-0.0275803 0.0300882 0.0349985)
(0.00587611 0.0333647 0.0700733)
(0.0462248 0.0372177 0.0989954)
(0.0855778 0.0415058 0.122394)
(0.148116 0.043366 0.145197)
(0.147546 0.0201841 0.106057)
(0.179013 0.00604416 0.0892094)
(0.177468 -0.00916038 0.0630203)
(0.158127 -0.0218788 0.0263543)
(0.118645 -0.024637 -0.0158541)
(0.0664374 -0.0146135 -0.0533984)
(0.0141479 0.00258681 -0.0761311)
(-0.0274762 0.0184952 -0.0787579)
(-0.0522492 0.0280182 -0.0622291)
(-0.0586748 0.031038 -0.0319377)
(-0.0485064 0.0303027 0.00508229)
(-0.0249701 0.0287659 0.0423131)
(0.0086343 0.0281087 0.0749104)
(0.0479472 0.0284377 0.100024)
(0.0858251 0.0295651 0.118772)
(0.145507 0.0320578 0.136341)
(0.132457 0.0159804 0.0836601)
(0.153524 0.00256556 0.0618261)
(0.143214 -0.00745512 0.0328532)
(0.115762 -0.0120266 -0.00289837)
(0.0728441 -0.00740704 -0.0398664)
(0.0236311 0.00567714 -0.0690767)
(-0.0204734 0.0208041 -0.0828623)
(-0.0515523 0.0312419 -0.0782376)
(-0.0663995 0.0344261 -0.0574338)
(-0.0654849 0.032107 -0.0260866)
(-0.0512051 0.0277616 0.00921012)
(-0.0264059 0.0241206 0.0427131)
(0.00635213 0.022161 0.070306)
(0.0434849 0.0212163 0.0897361)
(0.0787794 0.0210394 0.10195)
(0.129184 0.0246757 0.110937)
(0.107543 0.0159128 0.0532526)
(0.115322 0.00562339 0.0291827)
(0.0954835 0.000230914 0.000370346)
(0.0608992 0.000492282 -0.0311529)
(0.0174322 0.00715608 -0.0597952)
(-0.0251742 0.017722 -0.078734)
(-0.0580986 0.0269365 -0.0833403)
(-0.0770016 0.0308279 -0.0729521)
(-0.0816433 0.0291357 -0.0505892)
(-0.0740187 0.024489 -0.0213731)
(-0.0566118 0.0199905 0.00923185)
(-0.031538 0.017407 0.036631)
(-0.000561296 0.0167247 0.0575953)
(0.0334542 0.0167017 0.0704185)
(0.06514 0.0171181 0.0756459)
(0.103059 0.0217753 0.0755716)
(0.0761719 0.0222185 0.0205879)
(0.0705249 0.0162872 -0.00204588)
(0.0425692 0.0136153 -0.0271382)
(0.00394629 0.014183 -0.0516604)
(-0.0366762 0.0172966 -0.0707873)
(-0.0703407 0.0208241 -0.080064)
(-0.0914217 0.0220654 -0.0775287)
(-0.0989694 0.0199521 -0.0641445)
(-0.0950799 0.0156978 -0.0430839)
(-0.0825878 0.01171 -0.018531)
(-0.0636209 0.00990248 0.00540091)
(-0.0394016 0.0107596 0.0253523)
(-0.0109636 0.0134004 0.0390093)
(0.0193432 0.0162847 0.0452723)
(0.0467323 0.0191307 0.044576)
(0.0726777 0.0250872 0.0380467)
(0.041318 -0.00487649 -0.0172947)
(0.0333407 0.00251258 -0.0183736)
(0.00946159 0.0140467 -0.0212608)
(-0.021781 0.0270652 -0.0265395)
(-0.0524731 0.0391048 -0.0322366)
(-0.0764251 0.0480205 -0.0356651)
(-0.0908828 0.052112 -0.035089)
(-0.0962542 0.0507426 -0.0303316)
(-0.0944152 0.044621 -0.0226868)
(-0.087017 0.0353773 -0.0144761)
(-0.0746723 0.0247043 -0.00826311)
(-0.0572559 0.0137725 -0.00593149)
(-0.0349427 0.00337952 -0.00786227)
(-0.00953012 -0.00543766 -0.0124531)
(0.0148606 -0.0107261 -0.0165754)
(0.0348654 -0.00964531 -0.0177186)
(0.0220271 0.00803943 -0.0314209)
(0.00906438 0.0157162 -0.0258621)
(-0.0157913 0.0233599 -0.02164)
(-0.0450017 0.0291138 -0.0195854)
(-0.0714136 0.0320249 -0.0188226)
(-0.0902221 0.0320978 -0.0181847)
(-0.0999707 0.0298134 -0.0170554)
(-0.101786 0.0258394 -0.0154947)
(-0.0976757 0.020901 -0.014145)
(-0.0890531 0.0156405 -0.0140363)
(-0.0762233 0.0104559 -0.0162271)
(-0.0589592 0.00550584 -0.0211976)
(-0.0376799 0.00104863 -0.0281818)
(-0.0145809 -0.00214102 -0.0348898)
(0.00616593 -0.0026085 -0.0382538)
(0.0203825 0.00129698 -0.0366506)
(0.0111504 0.0192761 -0.035964)
(-0.00303164 0.025657 -0.0235554)
(-0.0266135 0.0277894 -0.0128615)
(-0.052723 0.024599 -0.00543782)
(-0.0752851 0.0170936 -0.00129716)
(-0.0908104 0.00787149 -2.6492e-05)
(-0.0987732 -0.000268723 -0.00123647)
(-0.100434 -0.00555532 -0.00460954)
(-0.0972216 -0.00767265 -0.00994392)
(-0.0897431 -0.00736875 -0.0171923)
(-0.0777808 -0.00579655 -0.0262804)
(-0.0610914 -0.0039279 -0.0366202)
(-0.0404853 -0.00207638 -0.0465446)
(-0.0186125 0.000316371 -0.0532181)
(0.000218437 0.00439039 -0.0536564)
(0.0118937 0.0109982 -0.0469629)
(0.0101805 0.0293086 -0.031907)
(-0.00151435 0.0330384 -0.0138212)
(-0.0216911 0.0287866 0.0014707)
(-0.0440743 0.0164599 0.0117055)
(-0.0637459 -0.000819791 0.0163031)
(-0.0783043 -0.0179453 0.01553)
(-0.0876569 -0.0302259 0.0101299)
(-0.0925614 -0.0354251 0.00116399)
(-0.0932598 -0.0340693 -0.0102976)
(-0.0891382 -0.028297 -0.0233613)
(-0.0793061 -0.0204747 -0.0371534)
(-0.0635391 -0.0123173 -0.0503616)
(-0.0431111 -0.00451735 -0.0607528)
(-0.0211612 0.00321236 -0.0652968)
(-0.00218775 0.0115809 -0.0613481)
(0.00989318 0.0206872 -0.0488541)
(0.0189975 0.0366699 -0.0208253)
(0.0129986 0.0373105 0.000931064)
(-0.002016 0.0267493 0.0183118)
(-0.0203629 0.00611024 0.0287507)
(-0.0382509 -0.0193145 0.0314122)
(-0.0540963 -0.0420897 0.0267644)
(-0.0677445 -0.0562096 0.0162514)
(-0.0788506 -0.059725 0.00184706)
(-0.0859758 -0.054453 -0.0145527)
(-0.0870529 -0.0438324 -0.0314191)
(-0.0804567 -0.0309986 -0.0473612)
(-0.0659687 -0.0179483 -0.060676)
(-0.0452835 -0.00548196 -0.0690014)
(-0.0219705 0.00648333 -0.0695929)
(-0.000798966 0.0182199 -0.0605339)
(0.0143753 0.0290826 -0.0427102)
(0.0360145 0.0398509 -0.00428805)
(0.0382978 0.0378293 0.0189528)
(0.0296282 0.0219873 0.0359539)
(0.0152928 -0.00514756 0.044313)
(-0.00200237 -0.03616 0.0431368)
(-0.0212022 -0.0616089 0.033319)
(-0.0415567 -0.0748946 0.0172763)
(-0.0610625 -0.0751171 -0.00196633)
(-0.0763054 -0.0657123 -0.0217691)
(-0.0837306 -0.0512151 -0.0401676)
(-0.0810453 -0.0350922 -0.0555451)
(-0.0680343 -0.0192188 -0.0661911)
(-0.0466973 -0.00422001 -0.0701077)
(-0.020924 0.0099882 -0.0653487)
(0.00414761 0.0233941 -0.0510557)
(0.0249104 0.0346393 -0.0289496)
(0.0584484 0.0377624 0.0166074)
(0.070793 0.034048 0.0394187)
(0.0689693 0.0147843 0.0539524)
(0.0583045 -0.0161448 0.0583399)
(0.0403516 -0.0493869 0.051763)
(0.0159714 -0.074023 0.0357633)
(-0.0128645 -0.0836928 0.014023)
(-0.0420174 -0.0792361 -0.00925004)
(-0.0660138 -0.065811 -0.0307657)
(-0.0799988 -0.0487177 -0.0483543)
(-0.0812094 -0.0313488 -0.0604972)
(-0.0694826 -0.0151507 -0.065911)
(-0.0470275 -0.000322801 -0.0634494)
(-0.0179654 0.0134892 -0.0523949)
(0.0120782 0.02628 -0.0330798)
(0.0407045 0.0359815 -0.00764767)
(0.0828534 0.0301985 0.0409926)
(0.105923 0.0257755 0.0616251)
(0.11064 0.00549876 0.0721225)
(0.103004 -0.0258581 0.0710039)
(0.0831588 -0.0574598 0.0576667)
(0.0521853 -0.0776566 0.0346906)
(0.0139613 -0.081235 0.00736429)
(-0.0249329 -0.0712472 -0.0188847)
(-0.0571397 -0.0543904 -0.0402854)
(-0.0768769 -0.0362876 -0.0547468)
(-0.0811991 -0.0198922 -0.0612229)
(-0.0701012 -0.0059951 -0.0592994)
(-0.0459796 0.0058291 -0.0491015)
(-0.0131531 0.0164673 -0.0313386)
(0.0221268 0.0261856 -0.00736646)
(0.0604532 0.0322578 0.0210287)
(0.105759 0.0184346 0.0667864)
(0.138591 0.0136827 0.0835897)
(0.148642 -0.00515411 0.0890161)
(0.143081 -0.033289 0.0813392)
(0.120271 -0.0592571 0.0603729)
(0.0819994 -0.0717245 0.0302314)
(0.0346423 -0.067506 -0.00197142)
(-0.0127684 -0.0519809 -0.0297111)
(-0.0514344 -0.0329062 -0.0490121)
(-0.0751533 -0.0156977 -0.0582096)
(-0.0811313 -0.00253508 -0.0571405)
(-0.0696717 0.00663822 -0.0466517)
(-0.0433846 0.0130102 -0.0283328)
(-0.00682145 0.0181668 -0.00427542)
(0.0331085 0.022828 0.0236793)
(0.0820954 0.0237718 0.0551073)
(0.124076 0.00506393 0.0897683)
(0.163847 -0.00041088 0.101152)
(0.177045 -0.0158694 0.101056)
(0.172157 -0.0374108 0.0866582)
(0.145614 -0.0541809 0.0583305)
(0.100377 -0.0565219 0.0220591)
(0.0455615 -0.0439878 -0.0133047)
(-0.00775767 -0.0239562 -0.0404721)
(-0.0500258 -0.00452559 -0.0556282)
(-0.0751876 0.00966155 -0.0579136)
(-0.080943 0.017513 -0.0484277)
(-0.0680754 0.0201064 -0.0295119)
(-0.0394391 0.0194717 -0.00415868)
(0.000224084 0.0178606 0.0245426)
(0.0434402 0.0164978 0.0549943)
(0.102288 0.0121915 0.0890492)
(0.135284 -0.00705021 0.104461)
(0.177725 -0.0138231 0.109161)
(0.191012 -0.0247423 0.103576)
(0.184746 -0.0372268 0.0834258)
(0.154064 -0.042399 0.0496366)
(0.103428 -0.0336978 0.00990182)
(0.0443082 -0.0137629 -0.0257522)
(-0.0110723 0.00874635 -0.0498066)
(-0.0532632 0.0262334 -0.0590213)
(-0.0769266 0.0353558 -0.0536882)
(-0.0805568 0.0363814 -0.0363777)
(-0.0655133 0.0315114 -0.0108558)
(-0.0348601 0.0235678 0.0188565)
(0.00661322 0.0152319 0.0492582)
(0.0512144 0.00809507 0.0795865)
(0.11657 3.63316e-05 0.114229)
(0.137554 -0.0160191 0.106413)
(0.177854 -0.0238999 0.104105)
(0.187804 -0.0296579 0.0934994)
(0.177609 -0.0320087 0.0694988)
(0.142794 -0.0250998 0.0335797)
(0.0894739 -0.00639501 -0.00563387)
(0.0303548 0.0186016 -0.0379532)
(-0.0224828 0.040899 -0.0563537)
(-0.0606364 0.0541866 -0.0585819)
(-0.079992 0.0568162 -0.046244)
(-0.0800128 0.050543 -0.0232563)
(-0.0625787 0.0386222 0.00562884)
(-0.030782 0.0244085 0.0359811)
(0.0108062 0.0106497 0.0644979)
(0.0547849 -0.000887992 0.0913829)
(0.120925 -0.0102824 0.122738)
(0.13011 -0.0212274 0.0942673)
(0.163771 -0.0287993 0.0860601)
(0.167337 -0.0290174 0.0715819)
(0.150982 -0.0217584 0.0462245)
(0.1127 -0.00459133 0.0120983)
(0.0601322 0.0210388 -0.0223603)
(0.00568815 0.0477116 -0.047954)
(-0.0400978 0.0670627 -0.0589578)
(-0.0707466 0.0745827 -0.0543965)
(-0.0837275 0.0704468 -0.0370398)
(-0.0794362 0.0577585 -0.0116381)
(-0.0600049 0.0405047 0.0167632)
(-0.028263 0.0221462 0.044007)
(0.0117435 0.00514137 0.067455)
(0.0533672 -0.00868609 0.0879852)
(0.113927 -0.0172422 0.111837)
(0.113676 -0.0227353 0.0704252)
(0.137211 -0.0278222 0.0587851)
(0.132469 -0.0225527 0.0425661)
(0.109152 -0.00789499 0.0186794)
(0.0689593 0.0155253 -0.0101303)
(0.0205796 0.0434736 -0.0365359)
(-0.025233 0.068084 -0.0533451)
(-0.0606311 0.0824166 -0.0567421)
(-0.0816284 0.0838867 -0.0470549)
(-0.0873719 0.0742221 -0.0277284)
(-0.078934 0.0573867 -0.00358213)
(-0.0583202 0.0374988 0.0208049)
(-0.0278149 0.0176822 0.042045)
(0.00926011 -8.69287e-05 0.0584223)
(0.0472149 -0.01395 0.0711373)
(0.0975498 -0.0204442 0.0852287)
(0.0906535 -0.0207246 0.0400527)
(0.10231 -0.0214747 0.0282865)
(0.0889077 -0.0116907 0.0132629)
(0.059581 0.0066707 -0.00637797)
(0.0196202 0.030935 -0.0275638)
(-0.0220161 0.055972 -0.0445532)
(-0.0570017 0.075076 -0.0526056)
(-0.0806086 0.0834028 -0.0499399)
(-0.0914727 0.0800784 -0.0379037)
(-0.0902891 0.0676452 -0.0199629)
(-0.0785051 0.0500242 -0.000278834)
(-0.057646 0.0307056 0.0175428)
(-0.0292679 0.0121252 0.0311684)
(0.0040405 -0.00417522 0.0398713)
(0.0374782 -0.0162584 0.0451075)
(0.0759897 -0.0203225 0.0503553)
(0.0649252 -0.0145897 0.0091849)
(0.0652531 -0.0105212 0.000901869)
(0.0444607 0.00203702 -0.00981822)
(0.0111907 0.0204488 -0.0233506)
(-0.0267442 0.0411427 -0.0367686)
(-0.060684 0.0595381 -0.0458446)
(-0.0847126 0.0710797 -0.0477054)
(-0.0970533 0.0732978 -0.041918)
(-0.0988007 0.0667113 -0.0302951)
(-0.0919382 0.0540137 -0.0160059)
(-0.0779717 0.0383667 -0.00244141)
(-0.0577206 0.0221718 0.00779546)
(-0.0319709 0.00697643 0.0135006)
(-0.00271419 -0.00603287 0.0151258)
(0.0259024 -0.0149873 0.014665)
(0.0537637 -0.0165309 0.0145416)
(0.0358839 -0.0482223 -0.030747)
(0.032734 -0.0297814 -0.0178304)
(0.0158961 -0.00246288 -0.00693754)
(-0.00844349 0.0285576 -0.00169851)
(-0.033636 0.0581634 -0.001586)
(-0.054096 0.0818031 -0.00366702)
(-0.0671755 0.0957954 -0.00510747)
(-0.0731616 0.0980634 -0.00465905)
(-0.0737704 0.0886601 -0.00305691)
(-0.0704264 0.0695681 -0.00253245)
(-0.0633105 0.0438372 -0.00562837)
(-0.0516246 0.0148206 -0.0137145)
(-0.0347789 -0.0139317 -0.0257305)
(-0.0138317 -0.0384061 -0.0378356)
(0.00786896 -0.0542396 -0.0445369)
(0.0268732 -0.0578576 -0.0418304)
(0.027325 -0.0364152 -0.0387713)
(0.0207031 -0.0188189 -0.0200519)
(0.00337885 0.00420055 -0.00309771)
(-0.0193139 0.0285829 0.00873377)
(-0.0414062 0.050534 0.0152304)
(-0.0581869 0.0669994 0.0177556)
(-0.0677539 0.0756914 0.017571)
(-0.0707999 0.0753458 0.0151283)
(-0.0691297 0.0660659 0.0100574)
(-0.06407 0.0493405 0.00155118)
(-0.055733 0.0276024 -0.0109423)
(-0.0435125 0.0037586 -0.0268079)
(-0.0273161 -0.0189347 -0.0434956)
(-0.00868406 -0.0369702 -0.0565513)
(0.0091303 -0.0470904 -0.0611001)
(0.0228525 -0.0471323 -0.0547198)
(0.0253744 -0.0284762 -0.0408736)
(0.0183904 -0.0121142 -0.0154057)
(0.00212564 0.00584424 0.00774252)
(-0.0184912 0.0218057 0.0247773)
(-0.0380892 0.0335512 0.0347507)
(-0.0527174 0.0404372 0.0381875)
(-0.0610755 0.0426069 0.0358504)
(-0.0639804 0.0402186 0.0283338)
(-0.0628581 0.0332822 0.0160669)
(-0.0584736 0.0220155 -0.00050325)
(-0.0506151 0.00722653 -0.0205129)
(-0.0387705 -0.00945466 -0.0420255)
(-0.0232227 -0.025458 -0.0614707)
(-0.00580823 -0.0376318 -0.073929)
(0.0103328 -0.0430882 -0.0749106)
(0.0222918 -0.040225 -0.0630571)
(0.0291066 -0.0216037 -0.0371024)
(0.0251716 -0.00766625 -0.00578281)
(0.0121054 0.00449761 0.0220799)
(-0.00556158 0.0118778 0.0421798)
(-0.0231884 0.013922 0.0529934)
(-0.0375131 0.0123576 0.0546889)
(-0.0475345 0.00943853 0.0481505)
(-0.0536644 0.00622395 0.034602)
(-0.0562969 0.00225591 0.0154403)
(-0.0551008 -0.00350986 -0.0077783)
(-0.0492883 -0.0115758 -0.0331031)
(-0.0384052 -0.0212677 -0.0576939)
(-0.0231398 -0.0306633 -0.0773632)
(-0.00563177 -0.0371353 -0.087185)
(0.010989 -0.0383395 -0.0832777)
(0.0242203 -0.0332619 -0.0653287)
(0.0373698 -0.0170116 -0.028301)
(0.0395811 -0.00601493 0.00693236)
(0.0318036 0.000453084 0.037261)
(0.0180535 2.62367e-05 0.0581202)
(0.00199211 -0.00612222 0.0675854)
(-0.013804 -0.0139747 0.0657464)
(-0.0282674 -0.019643 0.0539234)
(-0.0407436 -0.021931 0.0342185)
(-0.0499727 -0.0222833 0.00906949)
(-0.054169 -0.0229538 -0.0189765)
(-0.0518161 -0.0253284 -0.0471223)
(-0.0424731 -0.0292648 -0.0719361)
(-0.0271814 -0.0333153 -0.0891639)
(-0.00836003 -0.0353735 -0.0944115)
(0.0107187 -0.0336231 -0.0848214)
(0.0279681 -0.0275572 -0.061101)
(0.0488315 -0.0159994 -0.0151983)
(0.0595197 -0.00791922 0.0215798)
(0.0585569 -0.0062574 0.0520278)
(0.0493562 -0.0127136 0.0715605)
(0.0343126 -0.0244475 0.0779318)
(0.0153862 -0.0354342 0.0712548)
(-0.00579626 -0.0408686 0.0535552)
(-0.0268992 -0.0402644 0.0280419)
(-0.0446134 -0.0364793 -0.00177092)
(-0.0556019 -0.0328152 -0.0324828)
(-0.0576425 -0.031109 -0.0607142)
(-0.0502523 -0.0313883 -0.0828626)
(-0.034683 -0.0324168 -0.0951572)
(-0.0135616 -0.0324038 -0.0943206)
(0.0095427 -0.0298305 -0.078832)
(0.0331708 -0.0245629 -0.0502005)
(0.0620993 -0.0193778 0.00195022)
(0.0823984 -0.0138945 0.0378705)
(0.0888505 -0.0154647 0.0663488)
(0.0842908 -0.0252379 0.0828029)
(0.0694612 -0.0389553 0.0846283)
(0.045861 -0.0491737 0.0720841)
(0.0163066 -0.051143 0.0482071)
(-0.0146328 -0.0458921 0.0175503)
(-0.0414853 -0.0378333 -0.0152904)
(-0.0595504 -0.0310013 -0.046259)
(-0.0660718 -0.0272886 -0.0717582)
(-0.060519 -0.0265928 -0.0885359)
(-0.0442454 -0.027605 -0.0938539)
(-0.0200602 -0.0284954 -0.0859981)
(0.00802427 -0.0277041 -0.0648785)
(0.0397889 -0.0253547 -0.0323099)
(0.0758134 -0.0270644 0.0226811)
(0.105427 -0.0237419 0.0554833)
(0.118772 -0.0265251 0.0802906)
(0.11821 -0.0362687 0.0922285)
(0.102492 -0.0478116 0.0882627)
(0.0729608 -0.0532207 0.0690657)
(0.034282 -0.0488779 0.0390772)
(-0.00643495 -0.0378659 0.00437513)
(-0.0417616 -0.0259864 -0.0294731)
(-0.0660127 -0.0175764 -0.0580787)
(-0.0761491 -0.0142414 -0.0781215)
(-0.0716635 -0.0154834 -0.0872759)
(-0.0540128 -0.0196111 -0.0843139)
(-0.0262401 -0.0243724 -0.0692634)
(0.00705924 -0.0278487 -0.0432548)
(0.0478936 -0.0303328 -0.00763454)
(0.0885482 -0.03768 0.0449644)
(0.12564 -0.0361408 0.0726693)
(0.144146 -0.0380417 0.0925743)
(0.146208 -0.0442447 0.0989923)
(0.128393 -0.0494787 0.0884552)
(0.0923069 -0.0465703 0.0624512)
(0.0449529 -0.034049 0.0271598)
(-0.00410312 -0.0171787 -0.00981382)
(-0.0459702 -0.00268912 -0.0422095)
(-0.0744606 0.00526778 -0.0657876)
(-0.0865345 0.00569385 -0.0781006)
(-0.0818567 -0.000234574 -0.0782863)
(-0.0620915 -0.0101249 -0.0668882)
(-0.0306023 -0.0210131 -0.0455372)
(0.00738317 -0.0304331 -0.0160332)
(0.0570933 -0.038723 0.0216133)
(0.0984738 -0.0488527 0.0646272)
(0.139921 -0.0487807 0.0857351)
(0.160842 -0.0479385 0.100063)
(0.163506 -0.0474842 0.100683)
(0.142575 -0.0430106 0.0837911)
(0.100349 -0.0294962 0.0520408)
(0.0461999 -0.00834809 0.0134097)
(-0.00840078 0.0132981 -0.0232492)
(-0.0537898 0.0284404 -0.0514707)
(-0.0837855 0.0336047 -0.0677487)
(-0.0956558 0.0287427 -0.0710873)
(-0.0894305 0.0160121 -0.0624312)
(-0.0671011 -0.00124829 -0.0440026)
(-0.0323652 -0.0192714 -0.018558)
(0.00901347 -0.0350279 0.0121277)
(0.0657769 -0.0486082 0.0501057)
(0.103501 -0.0581911 0.0765271)
(0.145439 -0.0589811 0.090358)
(0.165468 -0.0539461 0.099015)
(0.166268 -0.0446803 0.0944345)
(0.141663 -0.0285752 0.0727472)
(0.0949581 -0.00392997 0.0378351)
(0.0372867 0.0247237 -0.000942818)
(-0.0189504 0.0490189 -0.0341267)
(-0.0641241 0.062393 -0.0556795)
(-0.0925504 0.0625141 -0.063413)
(-0.102097 0.0506132 -0.0581405)
(-0.0933238 0.0300584 -0.0425644)
(-0.0685788 0.00519415 -0.0201065)
(-0.031774 -0.0195488 0.00608747)
(0.01109 -0.0407049 0.0348945)
(0.0712062 -0.0576382 0.0704447)
(0.101984 -0.0642041 0.0768797)
(0.140492 -0.0646185 0.0839267)
(0.156406 -0.0543605 0.0874365)
(0.152911 -0.0355116 0.0790084)
(0.124683 -0.00788002 0.0552235)
(0.0762013 0.0264157 0.0208937)
(0.0192157 0.0600805 -0.0141524)
(-0.0341961 0.0843078 -0.040799)
(-0.0752745 0.0935911 -0.0541385)
(-0.0992928 0.0871026 -0.0536584)
(-0.104931 0.0675446 -0.0419116)
(-0.0932934 0.0395164 -0.022844)
(-0.0669439 0.0081849 -0.000296531)
(-0.0297575 -0.0216556 0.0229575)
(0.0124577 -0.0462897 0.0467912)
(0.0709767 -0.0639901 0.0765912)
(0.0935814 -0.0664777 0.0650867)
(0.125293 -0.0647464 0.0670903)
(0.1346 -0.0487571 0.0667324)
(0.125138 -0.0211228 0.0564034)
(0.0940458 0.0158272 0.0337177)
(0.0469599 0.0565922 0.00386892)
(-0.00502922 0.0920159 -0.0239866)
(-0.0514325 0.113572 -0.0421102)
(-0.0851426 0.117178 -0.0472586)
(-0.102748 0.103661 -0.0405607)
(-0.103779 0.0771716 -0.0257702)
(-0.0896913 0.0433091 -0.00724649)
(-0.0629726 0.00767341 0.0115838)
(-0.0271783 -0.024932 0.0289026)
(0.0124434 -0.050724 0.0455962)
(0.0647119 -0.0669737 0.067116)
(0.0796532 -0.0653686 0.0439791)
(0.102272 -0.0598031 0.0436033)
(0.103694 -0.0383955 0.0415152)
(0.0879691 -0.00434129 0.0317196)
(0.05548 0.0379665 0.0131514)
(0.0127211 0.0809241 -0.00919242)
(-0.0308885 0.114764 -0.0278657)
(-0.0673712 0.131801 -0.037301)
(-0.0917871 0.12942 -0.0360811)
(-0.102183 0.109929 -0.0264956)
(-0.0987961 0.0785891 -0.0126162)
(-0.0831346 0.0415012 0.00167723)
(-0.0573147 0.00422514 0.0140042)
(-0.0243608 -0.0287206 0.0237829)
(0.0111925 -0.0535663 0.0327429)
(0.0543182 -0.0670555 0.0455457)
(0.0629851 -0.0617896 0.0183405)
(0.0757183 -0.0514118 0.0187423)
(0.0693147 -0.0258637 0.0177626)
(0.0482529 0.0109881 0.0111225)
(0.0159193 0.05354 -0.00112291)
(-0.0207481 0.093772 -0.0146786)
(-0.0543354 0.122804 -0.0243261)
(-0.0796535 0.134414 -0.026925)
(-0.0941872 0.127292 -0.0226005)
(-0.0975304 0.104596 -0.0139898)
(-0.0904766 0.071833 -0.0045573)
(-0.0742761 0.034789 0.00294938)
(-0.0504273 -0.00148104 0.00741829)
(-0.0212664 -0.0327639 0.0095211)
(0.00938393 -0.0552348 0.0116976)
(0.0427555 -0.0654805 0.0176665)
(0.0470323 -0.0545863 -0.0069695)
(0.0508831 -0.0403023 -0.00263279)
(0.0377644 -0.0127524 0.000523508)
(0.0124787 0.0239986 -0.000909178)
(-0.0191605 0.0638377 -0.00655893)
(-0.0496006 0.0990052 -0.0130343)
(-0.0729297 0.121905 -0.0167588)
(-0.0867517 0.127868 -0.0160827)
(-0.0914725 0.116767 -0.0118549)
(-0.0885465 0.0923723 -0.00662588)
(-0.0791059 0.0601565 -0.00319611)
(-0.0636776 0.0253689 -0.003248)
(-0.0427667 -0.00760944 -0.0065723)
(-0.0179146 -0.0350755 -0.0111184)
(0.00764718 -0.0536507 -0.0136641)
(0.0325476 -0.0604508 -0.0111871)
(0.0272763 -0.0878246 -0.0444258)
(0.0263442 -0.0597325 -0.020411)
(0.016009 -0.0189939 0.00251254)
(-0.000304198 0.027466 0.018102)
(-0.0179579 0.0722796 0.0250747)
(-0.0324905 0.108655 0.025943)
(-0.0415911 0.131145 0.0241908)
(-0.0455281 0.136461 0.0220317)
(-0.0459918 0.124065 0.0193724)
(-0.0444324 0.0960984 0.0140569)
(-0.0409506 0.0566824 0.00331734)
(-0.034419 0.0112134 -0.0140638)
(-0.0237889 -0.033912 -0.0358428)
(-0.00958058 -0.0716223 -0.0559884)
(0.00576935 -0.0954334 -0.0667268)
(0.0197335 -0.101565 -0.0627646)
(0.0278096 -0.0746117 -0.047277)
(0.0250664 -0.0495785 -0.0181619)
(0.0154454 -0.0144955 0.0104142)
(0.00157734 0.0254823 0.0325288)
(-0.0128315 0.064348 0.046177)
(-0.0241035 0.096072 0.0522701)
(-0.030378 0.115401 0.0524923)
(-0.0320347 0.118838 0.0478482)
(-0.0306692 0.105593 0.0382505)
(-0.0275913 0.0779048 0.0229493)
(-0.0229343 0.0404208 0.00160976)
(-0.016005 -0.000855271 -0.0243247)
(-0.00646658 -0.0394571 -0.0506767)
(0.00472207 -0.0693773 -0.0709352)
(0.0155178 -0.0863753 -0.078584)
(0.024413 -0.0888336 -0.0703756)
(0.0321136 -0.0681491 -0.047875)
(0.0303989 -0.045213 -0.0119629)
(0.0225312 -0.0153387 0.023019)
(0.0107971 0.0166036 0.0507053)
(-0.00155559 0.0457756 0.0683243)
(-0.0112189 0.0681798 0.0758508)
(-0.016567 0.0808491 0.0742711)
(-0.0180065 0.0818653 0.0645024)
(-0.0169418 0.0706408 0.0471673)
(-0.0144139 0.0483687 0.0229153)
(-0.0104451 0.0181156 -0.00685294)
(-0.00448348 -0.0154943 -0.0390364)
(0.0035908 -0.0468205 -0.0682606)
(0.0128348 -0.07051 -0.0876694)
(0.0216603 -0.0829493 -0.0913838)
(0.0293274 -0.0830456 -0.0774327)
(0.0374054 -0.0625241 -0.0451506)
(0.0397194 -0.0427954 -0.00320935)
(0.0356152 -0.0187094 0.0369233)
(0.02696 0.00520081 0.0683195)
(0.0163912 0.0252087 0.0874711)
(0.00682634 0.039207 0.0937625)
(-0.000170283 0.0462465 0.0880713)
(-0.00462111 0.0456494 0.0718376)
(-0.00711073 0.0368709 0.0467584)
(-0.00779415 0.0201617 0.0148637)
(-0.00625312 -0.00272378 -0.0210385)
(-0.00195681 -0.0283384 -0.0566841)
(0.00499455 -0.0520885 -0.0860687)
(0.0136658 -0.0695801 -0.102495)
(0.0227934 -0.0779889 -0.100975)
(0.0322252 -0.0766757 -0.0806961)
(0.0422316 -0.0593197 -0.0390849)
(0.0510851 -0.0431684 0.00684615)
(0.0527283 -0.0245453 0.0499094)
(0.0483933 -0.00773641 0.082798)
(0.0397379 0.00459693 0.101364)
(0.0290448 0.0121458 0.104552)
(0.017925 0.0156409 0.0934214)
(0.00731391 0.0150512 0.070277)
(-0.00181869 0.00942074 0.0380849)
(-0.00822049 -0.00192872 0.00025165)
(-0.0107262 -0.0181948 -0.0391958)
(-0.00875909 -0.0368021 -0.0752128)
(-0.00258497 -0.0542014 -0.10178)
(0.00686427 -0.0669762 -0.113043)
(0.0183574 -0.0729598 -0.105338)
(0.0321192 -0.0716542 -0.0789547)
(0.0460654 -0.0598538 -0.0295734)
(0.062999 -0.0471801 0.0177313)
(0.0716448 -0.0329941 0.0612301)
(0.0724055 -0.0214325 0.0934506)
(0.0655685 -0.014189 0.109657)
(0.0525835 -0.0100063 0.108368)
(0.0353765 -0.00706961 0.0910237)
(0.0163915 -0.00553382 0.0610839)
(-0.00139141 -0.00725803 0.0229538)
(-0.0151069 -0.0137891 -0.0186476)
(-0.0227636 -0.0249245 -0.058738)
(-0.0235877 -0.0387028 -0.0919734)
(-0.0178362 -0.0523246 -0.112974)
(-0.00645491 -0.0630885 -0.117362)
(0.00908732 -0.0690698 -0.103125)
(0.0291953 -0.0695736 -0.0714725)
(0.0490662 -0.0646972 -0.0162383)
(0.0743144 -0.0550706 0.0297117)
(0.0901024 -0.0437556 0.07129)
(0.0958892 -0.034766 0.100923)
(0.0902638 -0.0290228 0.113254)