/*--------------------------------*- C++ -*----------------------------------*\
| =========                 |                                                 |
| \\      /  F ield         | OpenFOAM: The Open Source CFD Toolbox           |
|  \\    /   O peration     | Version:  3.0.0                                 |
|   \\  /    A nd           | Web:      www.OpenFOAM.org                      |
|    \\/     M anipulation  |                                                 |
\*---------------------------------------------------------------------------*/
FoamFile
{
    version     2.0;
    format      ascii;
    class       volScalarField;
    location    "3.5";
    object      k;
}
// * * * * * * * * * * * * * * * * * * * * * * * * * * * * * * * * * * * * * //

dimensions      [0 2 -2 0 0 0 0];

internalField   nonuniform List<scalar> 
400
(
3.11171e-08
1.31492e-07
3.88803e-07
3.14276e-06
3.55055e-05
0.000153231
0.000297906
0.000363914
0.000400341
0.000411613
0.000412835
0.000387922
0.000360074
0.00031927
0.000278316
0.000233406
0.000189546
0.000147423
9.88508e-05
5.98508e-05
1.0261e-07
9.57336e-07
5.69933e-06
2.35379e-05
7.78305e-05
0.000154896
0.000196443
0.000213703
0.000222574
0.000230357
0.000240355
0.000252756
0.000272283
0.000290721
0.000309977
0.00032537
0.000332093
0.000332217
0.000302093
0.000288994
5.18181e-07
5.51031e-06
2.4548e-05
6.48659e-05
0.000113949
0.000171746
0.000218009
0.000260405
0.000322903
0.000393458
0.00044836
0.000492115
0.000513562
0.000523562
0.000526597
0.000529586
0.000526893
0.000513075
0.0005097
0.000605708
3.07972e-06
1.45184e-05
4.60309e-05
8.94333e-05
0.000145406
0.000224625
0.000315064
0.000420228
0.000514223
0.000571515
0.000629873
0.000668033
0.000701196
0.000731002
0.00074495
0.000742741
0.000728488
0.000676742
0.000647746
0.000828211
1.04371e-05
2.93924e-05
6.79898e-05
0.000121204
0.000202848
0.00031308
0.000410702
0.000483142
0.000542785
0.000591314
0.000642922
0.000687342
0.000733151
0.000787001
0.000855155
0.000913305
0.000924375
0.000878437
0.000789838
0.00100742
2.16073e-05
4.07122e-05
8.57677e-05
0.000150974
0.000252368
0.000361598
0.000424665
0.000473785
0.000507759
0.000530739
0.000563465
0.000613579
0.000679563
0.00076228
0.000865458
0.000993581
0.00107438
0.00106783
0.000931821
0.00115477
3.70196e-05
4.81259e-05
9.8955e-05
0.000172473
0.000281598
0.0003705
0.000410169
0.000422348
0.000400699
0.000392845
0.000418207
0.000482509
0.000566912
0.0006775
0.000820115
0.00100572
0.00118607
0.00123445
0.00108083
0.00128635
5.29945e-05
5.0957e-05
0.000106739
0.000186637
0.000299627
0.000357865
0.000365934
0.000314851
0.000264584
0.000247571
0.000258734
0.000329836
0.000434512
0.000570349
0.000741507
0.000963421
0.00123288
0.00136965
0.00123746
0.00140959
7.06935e-05
5.03919e-05
0.000105732
0.000186701
0.000294117
0.000327941
0.0003023
0.000219379
0.000170678
0.000153701
0.000152972
0.000198229
0.000302006
0.000461282
0.00066077
0.00091877
0.00124329
0.00147468
0.00139642
0.00153101
8.60464e-05
4.8248e-05
0.000101616
0.000181012
0.000279307
0.000298479
0.000256559
0.000174192
0.000135213
0.000121164
0.000118852
0.000135504
0.000198573
0.000358108
0.000581952
0.000866998
0.00122949
0.00155142
0.00156388
0.00165743
9.67086e-05
4.59352e-05
9.2173e-05
0.000165816
0.000255831
0.00027605
0.000237937
0.000170986
0.000135253
0.000124544
0.000116702
0.000119215
0.000150573
0.000273403
0.000513355
0.000818291
0.00118968
0.00159728
0.0017274
0.00179294
9.5852e-05
4.46015e-05
7.65484e-05
0.000141705
0.000224111
0.000249564
0.000230891
0.000179418
0.000147547
0.00014276
0.00013044
0.000120097
0.000134357
0.000219592
0.000456152
0.000779189
0.0011506
0.00161856
0.00189114
0.00194606
8.82357e-05
4.25721e-05
6.20049e-05
0.000111705
0.000189517
0.000224904
0.000219273
0.000194911
0.000169933
0.000160785
0.000141021
0.000122831
0.000129584
0.000194138
0.000412711
0.000748652
0.00110522
0.00162531
0.00203824
0.00212381
6.93461e-05
3.79095e-05
4.99058e-05
8.15761e-05
0.000147539
0.000194461
0.000202612
0.000193664
0.000176397
0.000165697
0.000142449
0.000120774
0.000125361
0.000181874
0.000385893
0.000722789
0.00105313
0.00161505
0.00216806
0.00233951
4.54534e-05
2.92831e-05
3.85243e-05
5.87729e-05
0.000102658
0.000148861
0.000170772
0.000175089
0.000167831
0.000155279
0.000126124
0.000110414
0.000118295
0.000176608
0.000373447
0.000701466
0.00100202
0.00158514
0.00227866
0.00260998
2.84732e-05
2.03275e-05
2.70877e-05
3.99927e-05
6.60223e-05
9.81583e-05
0.000120903
0.000127186
0.000124442
0.000113845
9.85058e-05
9.86476e-05
0.000113939
0.000185045
0.000377505
0.000692295
0.000977931
0.00157094
0.00242466
0.00296418
1.82817e-05
1.47748e-05
2.13917e-05
3.28829e-05
4.9203e-05
6.93945e-05
8.54254e-05
9.42193e-05
9.59689e-05
9.55568e-05
9.71436e-05
0.000107572
0.000143391
0.000249618
0.000443111
0.000754242
0.00102121
0.00161415
0.00263306
0.00345092
2.72359e-05
2.34472e-05
3.99787e-05
5.8168e-05
7.78395e-05
0.000100294
0.000118722
0.000136412
0.000149654
0.000171812
0.000203124
0.000268673
0.000375984
0.000578486
0.000794094
0.00112014
0.00139412
0.00198346
0.00314999
0.00418923
0.000103102
0.000314566
0.000530765
0.000657247
0.000742297
0.000812126
0.000868987
0.00095269
0.00103804
0.00117336
0.00132044
0.00153252
0.00175461
0.00203904
0.00230557
0.00261243
0.00293787
0.00354848
0.00483454
0.00551939
0.00264094
0.00526306
0.00667436
0.00716232
0.00736083
0.00743659
0.00744257
0.00744919
0.00745149
0.00746565
0.00748022
0.00751619
0.00753352
0.00757487
0.0076061
0.00768374
0.00776995
0.00788577
0.00832477
0.00711756
)
;

boundaryField
{
    movingWall
    {
        type            kqRWallFunction;
        value           nonuniform List<scalar> 
20
(
0.00264094
0.00526306
0.00667436
0.00716232
0.00736083
0.00743659
0.00744257
0.00744919
0.00745149
0.00746565
0.00748022
0.00751619
0.00753352
0.00757487
0.0076061
0.00768374
0.00776995
0.00788577
0.00832477
0.00711756
)
;
    }
    fixedWalls
    {
        type            kqRWallFunction;
        value           nonuniform List<scalar> 
60
(
3.11171e-08
1.0261e-07
5.18181e-07
3.07972e-06
1.04371e-05
2.16073e-05
3.70196e-05
5.29945e-05
7.06935e-05
8.60464e-05
9.67086e-05
9.5852e-05
8.82357e-05
6.93461e-05
4.54534e-05
2.84732e-05
1.82817e-05
2.72359e-05
0.000103102
0.00264094
5.98508e-05
0.000288994
0.000605708
0.000828211
0.00100742
0.00115477
0.00128635
0.00140959
0.00153101
0.00165743
0.00179294
0.00194606
0.00212381
0.00233951
0.00260998
0.00296418
0.00345092
0.00418923
0.00551939
0.00711756
3.11171e-08
1.31492e-07
3.88803e-07
3.14276e-06
3.55055e-05
0.000153231
0.000297906
0.000363914
0.000400341
0.000411613
0.000412835
0.000387922
0.000360074
0.00031927
0.000278316
0.000233406
0.000189546
0.000147423
9.88508e-05
5.98508e-05
)
;
    }
    frontAndBack
    {
        type            empty;
    }
}


// ************************************************************************* //
