/*--------------------------------*- C++ -*----------------------------------*\
| =========                 |                                                 |
| \\      /  F ield         | OpenFOAM: The Open Source CFD Toolbox           |
|  \\    /   O peration     | Version:  3.0.0                                 |
|   \\  /    A nd           | Web:      www.OpenFOAM.org                      |
|    \\/     M anipulation  |                                                 |
\*---------------------------------------------------------------------------*/
FoamFile
{
    version     2.0;
    format      ascii;
    class       volScalarField;
    location    "3.5";
    object      nut;
}
// * * * * * * * * * * * * * * * * * * * * * * * * * * * * * * * * * * * * * //

dimensions      [0 2 -1 0 0 0 0];

internalField   nonuniform List<scalar> 
400
(
2.43102e-10
1.02727e-09
3.03741e-09
2.45455e-08
2.76448e-07
1.17985e-06
2.26313e-06
2.74799e-06
3.01314e-06
3.09483e-06
3.10368e-06
2.92289e-06
2.71991e-06
2.42063e-06
2.11805e-06
1.78365e-06
1.4544e-06
1.13566e-06
7.64989e-07
4.64899e-07
8.01632e-10
2.90508e-08
1.48074e-07
3.71342e-07
1.04032e-06
2.03341e-06
2.97044e-06
3.83245e-06
4.73685e-06
5.91472e-06
6.87888e-06
7.75213e-06
8.48084e-06
8.40777e-06
8.36884e-06
7.7727e-06
6.76186e-06
5.40589e-06
3.5145e-06
2.19716e-06
4.04809e-09
1.87105e-07
6.31327e-07
1.3324e-06
2.30104e-06
4.17005e-06
7.09238e-06
1.01629e-05
1.46603e-05
1.91812e-05
2.23698e-05
2.45501e-05
2.40518e-05
2.27466e-05
2.0157e-05
1.71107e-05
1.34046e-05
9.52266e-06
6.08507e-06
4.47699e-06
2.40532e-08
4.66441e-07
1.24501e-06
2.31111e-06
4.28914e-06
9.40221e-06
1.68061e-05
2.59399e-05
3.48121e-05
4.03081e-05
4.50104e-05
4.73274e-05
4.70629e-05
4.53613e-05
4.04494e-05
3.31417e-05
2.44945e-05
1.54017e-05
8.54351e-06
6.00692e-06
8.14579e-08
9.15929e-07
2.0627e-06
3.91133e-06
8.64125e-06
1.90962e-05
3.06537e-05
4.07239e-05
4.93952e-05
5.57952e-05
6.14415e-05
6.51967e-05
6.58602e-05
6.44456e-05
6.01854e-05
5.1378e-05
3.7872e-05
2.334e-05
1.14105e-05
7.19993e-06
1.68457e-07
1.2916e-06
2.95434e-06
5.99189e-06
1.45594e-05
2.87434e-05
4.02368e-05
4.99529e-05
5.71065e-05
6.15409e-05
6.60261e-05
7.16212e-05
7.61638e-05
7.82924e-05
7.56404e-05
6.80674e-05
5.20754e-05
3.23359e-05
1.46366e-05
8.15623e-06
2.88191e-07
1.59452e-06
3.86643e-06
8.22509e-06
2.04453e-05
3.53728e-05
4.56129e-05
5.12016e-05
5.07353e-05
5.0565e-05
5.40036e-05
6.18982e-05
7.15031e-05
8.08098e-05
8.41722e-05
7.98099e-05
6.49534e-05
4.12064e-05
1.8062e-05
8.99252e-06
4.11921e-07
1.74697e-06
4.63112e-06
1.02498e-05
2.50326e-05
3.82724e-05
4.45992e-05
4.08824e-05
3.51557e-05
3.29992e-05
3.39423e-05
4.30407e-05
5.67077e-05
7.32478e-05
8.56355e-05
8.62061e-05
7.45309e-05
4.89958e-05
2.17551e-05
9.76123e-06
5.4857e-07
1.7961e-06
4.99235e-06
1.13136e-05
2.69209e-05
3.76218e-05
3.89396e-05
2.98222e-05
2.35957e-05
2.10054e-05
2.00045e-05
2.54566e-05
3.89604e-05
6.03965e-05
8.13806e-05
9.0307e-05
8.16725e-05
5.58025e-05
2.52475e-05
1.05055e-05
6.66731e-07
1.70397e-06
5.10379e-06
1.17113e-05
2.66442e-05
3.5751e-05
3.46622e-05
2.48741e-05
1.96584e-05
1.7361e-05
1.60051e-05
1.70446e-05
2.44858e-05
4.60478e-05
7.34596e-05
9.13889e-05
8.66157e-05
6.13968e-05
2.90362e-05
1.1267e-05
7.4859e-07
1.5215e-06
4.73906e-06
1.08849e-05
2.42034e-05
3.29719e-05
3.24108e-05
2.50198e-05
2.03653e-05
1.8579e-05
1.64586e-05
1.49104e-05
1.76222e-05
3.32779e-05
6.48034e-05
8.93352e-05
8.89581e-05
6.56107e-05
3.24957e-05
1.20689e-05
7.4202e-07
1.28414e-06
3.87623e-06
9.2019e-06
2.05419e-05
2.91267e-05
3.10951e-05
2.61543e-05
2.224e-05
2.1404e-05
1.87077e-05
1.50019e-05
1.50545e-05
2.49261e-05
5.54014e-05
8.59509e-05
9.03352e-05
6.8481e-05
3.62853e-05
1.29577e-05
6.83552e-07
1.02558e-06
2.98284e-06
7.03661e-06
1.62859e-05
2.48287e-05
2.84087e-05
2.77129e-05
2.51289e-05
2.36137e-05
1.97568e-05
1.48508e-05
1.37993e-05
2.07412e-05
4.79246e-05
8.21028e-05
8.89454e-05
6.97996e-05
3.96121e-05
1.39676e-05
5.38179e-07
7.73897e-07
2.14165e-06
4.84163e-06
1.15371e-05
1.94369e-05
2.40776e-05
2.57308e-05
2.44533e-05
2.27075e-05
1.84674e-05
1.34736e-05
1.26317e-05
1.85681e-05
4.33153e-05
7.79335e-05
8.55677e-05
6.97754e-05
4.24721e-05
1.51633e-05
3.53555e-07
5.84454e-07
1.46233e-06
3.09643e-06
6.86712e-06
1.23897e-05
1.69775e-05
2.00086e-05
1.99604e-05
1.8137e-05
1.39185e-05
1.10206e-05
1.14112e-05
1.76272e-05
4.10291e-05
7.38463e-05
8.05787e-05
6.71989e-05
4.30608e-05
1.66193e-05
2.21835e-07
4.22123e-07
1.02116e-06
1.98952e-06
3.88095e-06
6.7016e-06
9.34576e-06
1.09682e-05
1.13193e-05
1.06706e-05
9.22542e-06
9.19132e-06
1.0722e-05
1.87385e-05
4.02274e-05
6.88675e-05
7.3398e-05
6.23551e-05
4.30049e-05
1.84586e-05
1.42572e-07
3.65948e-07
8.49737e-07
1.65124e-06
2.80488e-06
4.37554e-06
5.88394e-06
7.08297e-06
7.78265e-06
8.23307e-06
8.68276e-06
9.94258e-06
1.38333e-05
2.4243e-05
4.18605e-05
6.28472e-05
6.33273e-05
5.52211e-05
4.21388e-05
2.08733e-05
2.12219e-07
7.80029e-07
1.87579e-06
3.06811e-06
4.3521e-06
5.94804e-06
7.48096e-06
9.12148e-06
1.05652e-05
1.27131e-05
1.52022e-05
1.97969e-05
2.65371e-05
3.73488e-05
4.62872e-05
5.65387e-05
5.50903e-05
4.90197e-05
4.13125e-05
2.43179e-05
7.9756e-07
8.93461e-06
1.71455e-05
2.12941e-05
2.39056e-05
2.5866e-05
2.74292e-05
2.94173e-05
3.11579e-05
3.36163e-05
3.58119e-05
3.8603e-05
4.13672e-05
4.48015e-05
4.73224e-05
5.02238e-05
4.89233e-05
4.41168e-05
4.11421e-05
2.99775e-05
1.67835e-05
2.89396e-05
3.44418e-05
3.622e-05
3.69255e-05
3.71906e-05
3.72096e-05
3.72309e-05
3.72383e-05
3.72871e-05
3.73382e-05
3.74645e-05
3.75255e-05
3.76706e-05
3.778e-05
3.80508e-05
3.83501e-05
3.87491e-05
4.02364e-05
3.60538e-05
)
;

boundaryField
{
    movingWall
    {
        type            nutkWallFunction;
        Cmu             0.09;
        kappa           0.41;
        E               9.8;
        value           nonuniform List<scalar> 
20
(
0
0
0
3.99221e-08
1.48786e-07
1.89889e-07
1.93122e-07
1.967e-07
1.97942e-07
2.05588e-07
2.13452e-07
2.32814e-07
2.42125e-07
2.64289e-07
2.80985e-07
3.22316e-07
3.67932e-07
4.28754e-07
6.54731e-07
1.51342e-08
)
;
    }
    fixedWalls
    {
        type            nutkWallFunction;
        Cmu             0.09;
        kappa           0.41;
        E               9.8;
        value           nonuniform List<scalar> 
60
(
0
0
0
0
0
0
0
0
0
0
0
0
0
0
0
0
0
0
0
0
0
0
0
0
0
0
0
0
0
0
0
0
0
0
0
0
0
0
0
1.51342e-08
0
0
0
0
0
0
0
0
0
0
0
0
0
0
0
0
0
0
0
0
)
;
    }
    frontAndBack
    {
        type            empty;
    }
}


// ************************************************************************* //
