/*--------------------------------*- C++ -*----------------------------------*\
| =========                 |                                                 |
| \\      /  F ield         | OpenFOAM: The Open Source CFD Toolbox           |
|  \\    /   O peration     | Version:  3.0.0                                 |
|   \\  /    A nd           | Web:      www.OpenFOAM.org                      |
|    \\/     M anipulation  |                                                 |
\*---------------------------------------------------------------------------*/
FoamFile
{
    version     2.0;
    format      ascii;
    class       volScalarField;
    location    "3.5";
    object      omega;
}
// * * * * * * * * * * * * * * * * * * * * * * * * * * * * * * * * * * * * * //

dimensions      [0 0 -1 0 0 0 0];

internalField   nonuniform List<scalar> 
400
(
128
128.002
128.005
128.038
128.435
129.874
131.634
132.429
132.865
133
133.015
132.719
132.385
131.896
131.402
130.859
130.326
129.813
129.219
128.739
128.001
32.9539
38.4898
63.3859
74.8143
76.1755
66.1326
55.7616
46.9877
38.9463
34.9411
32.6047
32.1056
34.5776
37.0394
41.8606
49.1126
61.4546
85.9563
131.531
128.006
29.4504
38.8831
48.6834
49.5205
41.1856
30.7384
25.623
22.0257
20.5126
20.0431
20.0453
21.3523
23.0171
26.1248
30.9507
39.307
53.8793
83.7623
135.294
128.038
31.1258
36.9724
38.6971
33.9008
23.8906
18.7469
16.2001
14.7714
14.1787
13.9939
14.1151
14.8991
16.1151
18.4168
22.4111
29.7409
43.9394
75.8173
137.876
128.128
32.0903
32.9616
30.988
23.4744
16.3949
13.3981
11.8639
10.9886
10.5979
10.464
10.5426
11.1319
12.2119
14.2087
17.7762
24.4079
37.6365
69.2204
139.921
128.266
31.5208
29.0311
25.1964
17.3337
12.5802
10.5541
9.48463
8.89144
8.62417
8.53398
8.567
8.9224
9.73633
11.4417
14.597
20.6312
33.0231
63.6636
141.581
128.455
30.1821
25.5934
20.9691
13.7732
10.4742
8.99238
8.24872
7.89783
7.76912
7.74406
7.79521
7.92849
8.38388
9.74331
12.6015
18.2604
29.9577
59.84
143.047
128.652
29.1688
23.0482
18.2088
11.9694
9.35046
8.20495
7.70138
7.52608
7.50234
7.62275
7.66335
7.66231
7.78657
8.65887
11.1758
16.5418
27.9543
56.8813
144.407
128.869
28.0564
21.1788
16.5024
10.9252
8.71678
7.76329
7.35622
7.23344
7.31719
7.64685
7.78695
7.75163
7.63755
8.11951
10.1739
15.2228
26.4267
55.3092
145.734
129.057
28.3151
19.9099
15.4562
10.4828
8.34881
7.40171
7.00297
6.87814
6.97905
7.4259
7.94995
8.10972
7.77688
7.92207
9.48691
14.1948
25.2687
53.8595
147.104
129.188
30.1907
19.4496
15.2336
10.57
8.37228
7.34127
6.83403
6.64134
6.70348
7.09066
7.99543
8.5445
8.21575
7.92173
9.15978
13.3734
24.3448
53.1578
148.559
129.177
34.7325
19.7482
15.3995
10.9099
8.56821
7.42529
6.85996
6.63428
6.66977
6.97254
8.00545
8.92468
8.80972
8.23357
9.06551
12.737
23.6352
52.1186
150.185
129.084
41.5102
20.7872
15.8748
11.6369
9.05821
7.71852
7.03321
6.76246
6.80896
7.13788
8.27104
9.39066
9.36003
8.61168
9.11847
12.4258
23.2853
51.4549
152.052
128.853
48.9852
23.3025
16.8489
12.7882
10.0048
8.41498
7.52655
7.21364
7.29702
7.71353
8.96376
9.92439
9.79496
8.90893
9.27443
12.3075
23.1464
51.0467
154.287
128.561
50.1034
26.3445
18.9809
14.9492
12.0149
10.0587
8.7507
8.40816
8.56146
9.06166
10.0188
10.3666
10.0191
9.10201
9.499
12.4352
23.5888
52.9174
157.045
128.353
48.1555
26.5264
20.1018
17.0119
14.647
12.9366
11.5959
10.9938
10.669
10.6777
10.7327
10.6267
9.87511
9.38427
10.0526
13.3237
25.1934
56.3809
160.585
128.228
40.3741
25.1745
19.914
17.542
15.8596
14.5184
13.3022
12.3311
11.6065
11.1881
10.8193
10.3656
10.2965
10.5854
12.0012
16.1259
29.2306
62.4855
165.327
128.339
30.0594
21.313
18.9589
17.8855
16.8616
15.8698
14.955
14.1647
13.5145
13.3614
13.5714
14.1683
15.4887
17.1558
19.812
25.306
40.4626
76.2479
172.27
129.271
35.2076
30.9566
30.8652
31.0511
31.3975
31.6811
32.3854
33.3153
34.9045
36.8716
39.6996
42.4156
45.5129
48.7205
52.0156
60.0505
80.4338
117.508
184.118
157.353
181.864
193.787
197.745
199.342
199.959
200.017
200.081
200.103
200.221
200.337
200.622
200.758
201.082
201.326
201.934
202.606
203.508
206.896
197.415
)
;

boundaryField
{
    movingWall
    {
        Cmu             0.09;
        kappa           0.41;
        E               9.8;
        beta1           0.075;
        type            omegaWallFunction;
        value           nonuniform List<scalar> 
20
(
157.353
181.864
193.787
197.745
199.342
199.959
200.017
200.081
200.103
200.221
200.337
200.622
200.758
201.082
201.326
201.934
202.606
203.508
206.896
197.415
)
;
    }
    fixedWalls
    {
        Cmu             0.09;
        kappa           0.41;
        E               9.8;
        beta1           0.075;
        type            omegaWallFunction;
        value           nonuniform List<scalar> 
60
(
128
128.001
128.006
128.038
128.128
128.266
128.455
128.652
128.869
129.057
129.188
129.177
129.084
128.853
128.561
128.353
128.228
128.339
129.271
157.353
128.739
131.531
135.294
137.876
139.921
141.581
143.047
144.407
145.734
147.104
148.559
150.185
152.052
154.287
157.045
160.585
165.327
172.27
184.118
197.415
128
128.002
128.005
128.038
128.435
129.874
131.634
132.429
132.865
133
133.015
132.719
132.385
131.896
131.402
130.859
130.326
129.813
129.219
128.739
)
;
    }
    frontAndBack
    {
        type            empty;
    }
}


// ************************************************************************* //
