/*--------------------------------*- C++ -*----------------------------------*\
| =========                 |                                                 |
| \\      /  F ield         | OpenFOAM: The Open Source CFD Toolbox           |
|  \\    /   O peration     | Version:  3.0.0                                 |
|   \\  /    A nd           | Web:      www.OpenFOAM.org                      |
|    \\/     M anipulation  |                                                 |
\*---------------------------------------------------------------------------*/
FoamFile
{
    version     2.0;
    format      ascii;
    class       volScalarField;
    location    "3.5";
    object      p;
}
// * * * * * * * * * * * * * * * * * * * * * * * * * * * * * * * * * * * * * //

dimensions      [0 2 -2 0 0 0 0];

internalField   nonuniform List<scalar> 
400
(
3.24042e-07
-1.72189e-05
-5.50133e-05
-0.000139061
-0.000175005
-0.000226789
-0.000828171
-0.00182574
-0.0027739
-0.0035153
-0.00392772
-0.00395969
-0.00354681
-0.00265801
-0.00127274
0.000626856
0.00289577
0.00515015
0.00664864
0.00704415
2.38512e-05
1.82347e-05
-9.64257e-06
-8.1239e-05
-0.0003376
-0.000841602
-0.00163868
-0.00256987
-0.0034221
-0.00409482
-0.00444027
-0.0044622
-0.00410365
-0.00334681
-0.00211578
-0.000413061
0.00170353
0.00392833
0.00567808
0.00655429
5.45432e-05
4.30676e-05
-4.59835e-05
-0.000366693
-0.000963954
-0.0018031
-0.00275905
-0.00368915
-0.00452123
-0.00508815
-0.00535326
-0.00531662
-0.00497002
-0.00431363
-0.00331981
-0.00195857
-0.000224338
0.00179276
0.00376092
0.0049932
4.92773e-05
-4.96263e-06
-0.00030077
-0.000932885
-0.0018841
-0.00295613
-0.00399705
-0.00488672
-0.00553812
-0.00594033
-0.00611095
-0.00603926
-0.00573572
-0.00519986
-0.00442643
-0.00339679
-0.00206741
-0.000410969
0.00143737
0.00268631
-0.000112826
-0.000250729
-0.000774351
-0.00172131
-0.00289789
-0.00405594
-0.00504383
-0.00581679
-0.00634921
-0.00665186
-0.00675359
-0.00665787
-0.00638593
-0.00594445
-0.00534076
-0.00457144
-0.00359837
-0.00234289
-0.000803546
0.000333342
-0.000474546
-0.000724703
-0.00143345
-0.00258092
-0.00383737
-0.00498462
-0.00588934
-0.00656787
-0.0070195
-0.00725476
-0.00730248
-0.00718201
-0.0069268
-0.00655104
-0.00606738
-0.00548141
-0.00476862
-0.00385913
-0.00275809
-0.00172763
-0.00102443
-0.00134798
-0.0021873
-0.00340228
-0.00465474
-0.00575415
-0.00659113
-0.00721125
-0.00760871
-0.0077906
-0.00778229
-0.00762334
-0.00736617
-0.00702984
-0.00662601
-0.00616342
-0.00563117
-0.00497643
-0.00423595
-0.00337575
-0.0016962
-0.0020178
-0.00290711
-0.00410788
-0.00533916
-0.00639114
-0.00718854
-0.00778489
-0.00816146
-0.00831063
-0.00824435
-0.00802667
-0.0077355
-0.0074054
-0.00704413
-0.00665835
-0.00624732
-0.00576177
-0.00528971
-0.00457855
-0.00231434
-0.00262028
-0.00351716
-0.00466631
-0.00587978
-0.00690464
-0.00769542
-0.00830594
-0.00870324
-0.00884844
-0.00873897
-0.00843297
-0.0080616
-0.00769706
-0.00734216
-0.00699204
-0.0066529
-0.00624887
-0.00597297
-0.00537748
-0.00280795
-0.00307054
-0.00394566
-0.00503884
-0.00624496
-0.00726899
-0.0080829
-0.00873659
-0.00918382
-0.00935183
-0.00921551
-0.00881031
-0.00831947
-0.00788774
-0.00751701
-0.00717324
-0.00688215
-0.00647674
-0.0063606
-0.00579939
-0.00310745
-0.00336437
-0.00415549
-0.00519833
-0.00639772
-0.00743234
-0.00828365
-0.00898484
-0.00947361
-0.00966769
-0.00952018
-0.00903745
-0.00842839
-0.00792541
-0.00753998
-0.00718915
-0.00695262
-0.00645303
-0.00650248
-0.00587064
-0.00318633
-0.00345852
-0.00415162
-0.00511805
-0.00627163
-0.00732944
-0.008224
-0.00895676
-0.00947189
-0.00968417
-0.00953969
-0.00902051
-0.00833656
-0.00777443
-0.00737577
-0.00704799
-0.00683485
-0.00619342
-0.00646085
-0.00559556
-0.00314241
-0.0033642
-0.00395915
-0.00481528
-0.00585572
-0.00692626
-0.00785452
-0.00861555
-0.00914878
-0.00937599
-0.00924348
-0.00872701
-0.00802486
-0.00743621
-0.00704042
-0.00673955
-0.00651671
-0.00576225
-0.00624537
-0.00500395
-0.00306267
-0.0031776
-0.00360488
-0.0042975
-0.00519728
-0.00622058
-0.0071652
-0.00795379
-0.0085089
-0.00875727
-0.00865422
-0.00817694
-0.00751605
-0.00695092
-0.00657782
-0.00629697
-0.0060501
-0.00522297
-0.00581268
-0.00416683
-0.00297016
-0.00298484
-0.00315959
-0.00361975
-0.00433958
-0.00525044
-0.00617352
-0.00698226
-0.0075696
-0.00785847
-0.00781662
-0.00744773
-0.00689832
-0.00640634
-0.00606599
-0.00578211
-0.00548274
-0.00457768
-0.00513879
-0.00316161
-0.00286387
-0.00275885
-0.00267315
-0.00287629
-0.00337206
-0.00413093
-0.00500538
-0.00583169
-0.00647547
-0.00684857
-0.00691774
-0.00670083
-0.00630869
-0.00591007
-0.00558748
-0.00525375
-0.00484467
-0.00379645
-0.00420912
-0.0017995
-0.00275158
-0.00251153
-0.00224469
-0.00220684
-0.0024909
-0.00310223
-0.0039151
-0.00475758
-0.00547934
-0.00596392
-0.00616971
-0.0061051
-0.00585492
-0.00552445
-0.00517777
-0.00472836
-0.00412183
-0.00280485
-0.00274309
0.00104201
-0.00243859
-0.00215182
-0.00183241
-0.00163276
-0.00179379
-0.00232794
-0.00312692
-0.00400952
-0.00480137
-0.00536581
-0.00566934
-0.00571114
-0.00554184
-0.00522233
-0.00480684
-0.00418737
-0.00325864
-0.00141221
9.51878e-05
0.00792779
-0.00342499
-0.00265651
-0.00192104
-0.00141402
-0.00144895
-0.0019437
-0.00273504
-0.00362438
-0.00444613
-0.00507078
-0.00543827
-0.00552428
-0.00537637
-0.00504386
-0.00454863
-0.00370714
-0.0022267
0.000801257
0.00553097
0.0198149
-0.00159181
0.00074974
0.000447584
-6.70057e-05
-0.000630016
-0.00132199
-0.00217142
-0.00309601
-0.00395616
-0.00463976
-0.00506048
-0.00520246
-0.0050659
-0.00468755
-0.00398645
-0.00281999
-0.000517996
0.00455198
0.0139379
0.031155
)
;

boundaryField
{
    movingWall
    {
        type            zeroGradient;
    }
    fixedWalls
    {
        type            zeroGradient;
    }
    frontAndBack
    {
        type            empty;
    }
}


// ************************************************************************* //
