/*--------------------------------*- C++ -*----------------------------------*\
| =========                 |                                                 |
| \\      /  F ield         | OpenFOAM: The Open Source CFD Toolbox           |
|  \\    /   O peration     | Version:  3.0.0                                 |
|   \\  /    A nd           | Web:      www.OpenFOAM.org                      |
|    \\/     M anipulation  |                                                 |
\*---------------------------------------------------------------------------*/
FoamFile
{
    version     2.0;
    format      ascii;
    class       surfaceScalarField;
    location    "3.5";
    object      phi;
}
// * * * * * * * * * * * * * * * * * * * * * * * * * * * * * * * * * * * * * //

dimensions      [0 3 -1 0 0 0 0];

internalField   nonuniform List<scalar> 
760
(
4.91746e-08
-4.92065e-08
7.70262e-08
-2.78527e-08
9.95341e-09
6.70713e-08
-3.04561e-07
3.14513e-07
-1.15678e-06
8.52213e-07
-2.48e-06
1.32322e-06
-3.72593e-06
1.24593e-06
-4.70146e-06
9.75531e-07
-5.46624e-06
7.64775e-07
-5.9719e-06
5.05667e-07
-6.31439e-06
3.42485e-07
-6.45754e-06
1.43153e-07
-6.44333e-06
-1.42133e-08
-6.22828e-06
-2.15054e-07
-5.81378e-06
-4.14493e-07
-5.10186e-06
-7.1192e-07
-4.04901e-06
-1.05285e-06
-2.61157e-06
-1.43744e-06
-9.84509e-07
-1.62706e-06
-9.84509e-07
-5.4594e-08
5.38708e-09
-2.69787e-07
1.87339e-07
-8.77411e-07
6.74695e-07
-2.0867e-06
1.5238e-06
-3.50997e-06
2.27548e-06
-4.51062e-06
2.32387e-06
-5.20827e-06
1.94358e-06
-5.82902e-06
1.59628e-06
-6.25412e-06
1.18988e-06
-6.58876e-06
8.40299e-07
-6.73697e-06
4.90703e-07
-6.75455e-06
1.60733e-07
-6.62969e-06
-1.39076e-07
-6.39078e-06
-4.53969e-07
-5.98345e-06
-8.21818e-07
-5.38063e-06
-1.31474e-06
-4.48717e-06
-1.94632e-06
-3.21878e-06
-2.70583e-06
-1.59258e-06
-3.25327e-06
-2.57709e-06
-2.33087e-07
2.38475e-07
-8.35199e-07
7.89451e-07
-1.96639e-06
1.80588e-06
-3.2486e-06
2.80602e-06
-4.12965e-06
3.15653e-06
-4.69835e-06
2.89257e-06
-5.13385e-06
2.37909e-06
-5.41461e-06
1.87703e-06
-5.55926e-06
1.33453e-06
-5.58769e-06
8.6873e-07
-5.5474e-06
4.50408e-07
-5.46845e-06
8.17838e-08
-5.33795e-06
-2.69578e-07
-5.13837e-06
-6.53548e-07
-4.8528e-06
-1.10738e-06
-4.46148e-06
-1.70607e-06
-3.88483e-06
-2.52296e-06
-3.00979e-06
-3.58088e-06
-1.72399e-06
-4.53907e-06
-4.30107e-06
-4.8845e-07
7.26925e-07
-1.38001e-06
1.68101e-06
-2.53147e-06
2.95734e-06
-3.40078e-06
3.67533e-06
-3.94345e-06
3.69919e-06
-4.23221e-06
3.18132e-06
-4.37506e-06
2.52194e-06
-4.40708e-06
1.90905e-06
-4.39061e-06
1.31805e-06
-4.35287e-06
8.30997e-07
-4.28343e-06
3.80964e-07
-4.18071e-06
-2.09331e-08
-4.03858e-06
-4.1171e-07
-3.85795e-06
-8.34182e-07
-3.63216e-06
-1.33317e-06
-3.35579e-06
-1.98244e-06
-3.00237e-06
-2.87637e-06
-2.44861e-06
-4.13464e-06
-1.46117e-06
-5.52651e-06
-5.76224e-06
-6.39885e-07
1.36681e-06
-1.59358e-06
2.63471e-06
-2.4831e-06
3.84686e-06
-3.04642e-06
4.23864e-06
-3.35486e-06
4.00763e-06
-3.46576e-06
3.29223e-06
-3.51671e-06
2.57289e-06
-3.52216e-06
1.91451e-06
-3.49808e-06
1.29397e-06
-3.43407e-06
7.66988e-07
-3.33528e-06
2.82171e-07
-3.20438e-06
-1.51834e-07
-3.04741e-06
-5.6868e-07
-2.86875e-06
-1.01284e-06
-2.66976e-06
-1.53216e-06
-2.45327e-06
-2.19893e-06
-2.2064e-06
-3.12325e-06
-1.87084e-06
-4.4702e-06
-1.18437e-06
-6.21298e-06
-6.94661e-06
-6.60787e-07
2.0276e-06
-1.49358e-06
3.46751e-06
-2.10358e-06
4.45685e-06
-2.49661e-06
4.63168e-06
-2.68897e-06
4.19998e-06
-2.76596e-06
3.36921e-06
-2.81665e-06
2.62358e-06
-2.8315e-06
1.92936e-06
-2.81168e-06
1.27415e-06
-2.73673e-06
6.92039e-07
-2.61512e-06
1.60552e-07
-2.45976e-06
-3.07189e-07
-2.2925e-06
-7.3594e-07
-2.11989e-06
-1.18545e-06
-1.9446e-06
-1.70745e-06
-1.77138e-06
-2.37215e-06
-1.60173e-06
-3.2929e-06
-1.40448e-06
-4.66745e-06
-9.19329e-07
-6.69813e-06
-7.86594e-06
-5.6652e-07
2.59412e-06
-1.19743e-06
4.09841e-06
-1.62503e-06
4.88446e-06
-1.91103e-06
4.91768e-06
-2.05942e-06
4.34838e-06
-2.15622e-06
3.46601e-06
-2.2347e-06
2.70206e-06
-2.2835e-06
1.97815e-06
-2.28663e-06
1.27729e-06
-2.21356e-06
6.18973e-07
-2.06805e-06
1.50372e-08
-1.88301e-06
-4.92231e-07
-1.70272e-06
-9.16221e-07
-1.53797e-06
-1.3502e-06
-1.38814e-06
-1.85728e-06
-1.25368e-06
-2.50661e-06
-1.13236e-06
-3.41421e-06
-9.88271e-07
-4.81154e-06
-7.36574e-07
-6.94983e-06
-8.60252e-06
-3.82882e-07
2.977e-06
-8.06546e-07
4.52208e-06
-1.10989e-06
5.1878e-06
-1.33793e-06
5.14572e-06
-1.48243e-06
4.49288e-06
-1.61353e-06
3.59711e-06
-1.73482e-06
2.82335e-06
-1.83621e-06
2.07955e-06
-1.88633e-06
1.3274e-06
-1.83423e-06
5.66877e-07
-1.66774e-06
-1.51453e-07
-1.44511e-06
-7.14862e-07
-1.23851e-06
-1.12282e-06
-1.07704e-06
-1.51168e-06
-9.53743e-07
-1.98058e-06
-8.60697e-07
-2.59966e-06
-7.92491e-07
-3.48242e-06
-7.11698e-07
-4.89234e-06
-5.58385e-07
-7.10314e-06
-9.1609e-06
-2.0433e-07
3.18133e-06
-4.30596e-07
4.74834e-06
-6.26359e-07
5.38356e-06
-7.8018e-07
5.29954e-06
-9.23937e-07
4.63664e-06
-1.08444e-06
3.75761e-06
-1.24058e-06
2.97949e-06
-1.38474e-06
2.22371e-06
-1.48062e-06
1.42328e-06
-1.47297e-06
5.5923e-07
-1.3349e-06
-2.89523e-07
-1.0933e-06
-9.56464e-07
-8.53271e-07
-1.36285e-06
-6.91351e-07
-1.6736e-06
-5.96076e-07
-2.07585e-06
-5.46362e-07
-2.64937e-06
-5.31234e-07
-3.49755e-06
-5.09424e-07
-4.91415e-06
-4.56228e-07
-7.15633e-06
-9.61713e-06
3.1021e-08
3.15031e-06
-6.10984e-08
4.84046e-06
-1.44325e-07
5.46679e-06
-2.2994e-07
5.38516e-06
-3.53532e-07
4.76023e-06
-5.00473e-07
3.90455e-06
-6.48499e-07
3.12751e-06
-7.85128e-07
2.36034e-06
-8.86581e-07
1.52473e-06
-9.25364e-07
5.98013e-07
-8.67165e-07
-3.47722e-07
-6.87462e-07
-1.13617e-06
-4.66214e-07
-1.5841e-06
-3.25836e-07
-1.81397e-06
-2.72809e-07
-2.12888e-06
-2.73626e-07
-2.64856e-06
-3.21408e-07
-3.44977e-06
-3.58245e-07
-4.87731e-06
-3.59097e-07
-7.15548e-06
-9.97622e-06
1.8102e-07
2.96929e-06
3.18348e-07
4.70313e-06
3.55647e-07
5.42949e-06
3.53195e-07
5.38761e-06
2.59141e-07
4.85428e-06
1.48665e-07
4.01503e-06
4.24203e-08
3.23376e-06
-5.15347e-08
2.4543e-06
-1.15668e-07
1.58887e-06
-1.58759e-07
6.41105e-07
-1.61043e-07
-3.45437e-07
-9.43066e-08
-1.2029e-06
3.58487e-09
-1.68199e-06
6.53232e-08
-1.87571e-06
5.13826e-08
-2.11494e-06
-2.96316e-08
-2.56754e-06
-1.26197e-07
-3.3532e-06
-2.31076e-07
-4.77243e-06
-3.09129e-07
-7.07743e-06
-1.02854e-05
3.32264e-07
2.63703e-06
6.43073e-07
4.39233e-06
8.24074e-07
5.24849e-06
9.43896e-07
5.26779e-06
9.29589e-07
4.86859e-06
8.6397e-07
4.08065e-06
8.14112e-07
3.28362e-06
7.81173e-07
2.48724e-06
7.49902e-07
1.62014e-06
7.02619e-07
6.88388e-07
6.45043e-07
-2.8786e-07
6.03153e-07
-1.16101e-06
5.75981e-07
-1.65482e-06
5.13174e-07
-1.81291e-06
3.92727e-07
-1.99449e-06
2.36422e-07
-2.41123e-06
6.75777e-08
-3.18436e-06
-1.22288e-07
-4.58256e-06
-2.49001e-07
-6.95071e-06
-1.05344e-05
4.54509e-07
2.18252e-06
9.01156e-07
3.94568e-06
1.22035e-06
4.92929e-06
1.4536e-06
5.03454e-06
1.5731e-06
4.74909e-06
1.59477e-06
4.05898e-06
1.60599e-06
3.2724e-06
1.62261e-06
2.47061e-06
1.62922e-06
1.61353e-06
1.59346e-06
7.24148e-07
1.50037e-06
-1.94766e-07
1.36772e-06
-1.02836e-06
1.19921e-06
-1.48631e-06
9.93039e-07
-1.60673e-06
7.54846e-07
-1.7563e-06
5.01667e-07
-2.15805e-06
2.38217e-07
-2.92091e-06
-3.30977e-08
-4.31125e-06
-1.89869e-07
-6.79394e-06
-1.07242e-05
4.97736e-07
1.68478e-06
1.03615e-06
3.40727e-06
1.52304e-06
4.4424e-06
1.89088e-06
4.66671e-06
2.16602e-06
4.47396e-06
2.3167e-06
3.90829e-06
2.41116e-06
3.17794e-06
2.47937e-06
2.40241e-06
2.51364e-06
1.57925e-06
2.48329e-06
7.54502e-07
2.35202e-06
-6.34976e-08
2.1259e-06
-8.02235e-07
1.8164e-06
-1.17681e-06
1.47081e-06
-1.26114e-06
1.1201e-06
-1.40559e-06
7.75271e-07
-1.81323e-06
4.32522e-07
-2.57816e-06
1.18475e-07
-3.9972e-06
-4.4611e-08
-6.63086e-06
-1.07688e-05
4.10166e-07
1.27462e-06
9.59984e-07
2.85745e-06
1.61709e-06
3.78529e-06
2.17637e-06
4.10743e-06
2.62961e-06
4.02072e-06
2.94575e-06
3.59215e-06
3.15228e-06
2.97142e-06
3.27989e-06
2.2748e-06
3.33507e-06
1.52407e-06
3.29229e-06
7.97283e-07
3.11789e-06
1.10905e-07
2.78652e-06
-4.70872e-07
2.35418e-06
-7.44466e-07
1.90746e-06
-8.14418e-07
1.47846e-06
-9.76586e-07
1.06589e-06
-1.40065e-06
6.60573e-07
-2.17284e-06
3.08343e-07
-3.64497e-06
7.74818e-08
-6.39999e-06
-1.06914e-05
2.62752e-07
1.01187e-06
7.42952e-07
2.37725e-06
1.42849e-06
3.09975e-06
2.13043e-06
3.40549e-06
2.76755e-06
3.3836e-06
3.26947e-06
3.09023e-06
3.62823e-06
2.61266e-06
3.85224e-06
2.05079e-06
3.93865e-06
1.43766e-06
3.87017e-06
8.65761e-07
3.64312e-06
3.37964e-07
3.24476e-06
-7.25119e-08
2.76322e-06
-2.62927e-07
2.29807e-06
-3.49268e-07
1.85321e-06
-5.31724e-07
1.41064e-06
-9.58086e-07
9.57591e-07
-1.71979e-06
5.38196e-07
-3.22557e-06
2.13516e-07
-6.07531e-06
-1.04778e-05
-5.99451e-08
1.07181e-06
3.88862e-07
1.92845e-06
1.06841e-06
2.4202e-06
1.84385e-06
2.63005e-06
2.60068e-06
2.62677e-06
3.23756e-06
2.45335e-06
3.71118e-06
2.13904e-06
4.01626e-06
1.74572e-06
4.13505e-06
1.31887e-06
4.08894e-06
9.11871e-07
3.87347e-06
5.53434e-07
3.51689e-06
2.8407e-07
3.11262e-06
1.41346e-07
2.73136e-06
3.19912e-08
2.34445e-06
-1.44815e-07
1.92227e-06
-5.35907e-07
1.42818e-06
-1.22571e-06
9.00564e-07
-2.69796e-06
4.01681e-07
-5.57643e-06
-1.00762e-05
-4.09435e-07
1.48125e-06
-1.16391e-07
1.6354e-06
4.58975e-07
1.84484e-06
1.2135e-06
1.87553e-06
2.01452e-06
1.82575e-06
2.75728e-06
1.7106e-06
3.37432e-06
1.52199e-06
3.83977e-06
1.28027e-06
4.11273e-06
1.0459e-06
4.21156e-06
8.13037e-07
4.14576e-06
6.1924e-07
3.96756e-06
4.62263e-07
3.74206e-06
3.6685e-07
3.51668e-06
2.57368e-07
3.25271e-06
1.19153e-07
2.90968e-06
-1.92873e-07
2.4062e-06
-7.22228e-07
1.75863e-06
-2.05039e-06
8.57803e-07
-4.6756e-06
-9.21835e-06
-6.20643e-07
2.10189e-06
-3.05658e-07
1.32042e-06
4.8711e-07
1.05207e-06
1.40643e-06
9.56207e-07
2.30511e-06
9.27065e-07
3.13393e-06
8.81779e-07
3.84236e-06
8.13557e-07
4.40652e-06
7.16123e-07
4.82557e-06
6.26847e-07
5.11671e-06
5.21902e-07
5.28863e-06
4.47319e-07
5.3871e-06
3.63785e-07
5.42732e-06
3.26631e-07
5.44543e-06
2.39257e-07
5.38642e-06
1.78168e-07
5.20842e-06
-1.48742e-08
4.84489e-06
-3.58702e-07
4.08776e-06
-1.29325e-06
2.36644e-06
-2.95428e-06
-6.85191e-06
2.10189e-06
3.42231e-06
4.47438e-06
5.43059e-06
6.35765e-06
7.23943e-06
8.05299e-06
8.76911e-06
9.39596e-06
9.91786e-06
1.03652e-05
1.0729e-05
1.10556e-05
1.12949e-05
1.1473e-05
1.14581e-05
1.10994e-05
9.80619e-06
6.85191e-06
)
;

boundaryField
{
    movingWall
    {
        type            calculated;
        value           uniform 0;
    }
    fixedWalls
    {
        type            calculated;
        value           uniform 0;
    }
    frontAndBack
    {
        type            empty;
        value           nonuniform 0();
    }
}


// ************************************************************************* //
