/*--------------------------------*- C++ -*----------------------------------*\
| =========                 |                                                 |
| \\      /  F ield         | OpenFOAM: The Open Source CFD Toolbox           |
|  \\    /   O peration     | Version:  3.0.0                                 |
|   \\  /    A nd           | Web:      www.OpenFOAM.org                      |
|    \\/     M anipulation  |                                                 |
\*---------------------------------------------------------------------------*/
FoamFile
{
    version     2.0;
    format      ascii;
    class       volVectorField;
    location    "3.5";
    object      U;
}
// * * * * * * * * * * * * * * * * * * * * * * * * * * * * * * * * * * * * * //

dimensions      [0 1 -1 0 0 0 0];

internalField   nonuniform List<vector> 
400
(
(0.000503983 -0.000692841 0)
(0.00151715 -0.000948984 0)
(0.00169825 -0.00105357 0)
(-0.00143104 -0.000584117 0)
(-0.0108376 0.00256998 0)
(-0.0321765 0.0120804 0)
(-0.067959 0.0144015 0)
(-0.086076 0.0090948 0)
(-0.105228 0.00973222 0)
(-0.115714 0.00547132 0)
(-0.124514 0.0052255 0)
(-0.128552 0.00257754 0)
(-0.130129 0.00149855 0)
(-0.128216 -0.00190794 0)
(-0.120973 -0.0038047 0)
(-0.109116 -0.00732424 0)
(-0.0901296 -0.0101519 0)
(-0.0651113 -0.0132855 0)
(-0.0356219 -0.0138846 0)
(-0.00726656 -0.00341888 0)
(-9.67331e-05 -0.00115331 0)
(-0.00197621 -1.11016e-05 0)
(-0.00857919 0.0041337 0)
(-0.0251407 0.014656 0)
(-0.057202 0.0336303 0)
(-0.0817684 0.0385767 0)
(-0.100403 0.0321688 0)
(-0.111636 0.0274991 0)
(-0.122984 0.0193264 0)
(-0.129511 0.0135834 0)
(-0.134314 0.00774615 0)
(-0.136023 0.00263356 0)
(-0.134927 -0.00231588 0)
(-0.131487 -0.00795358 0)
(-0.124368 -0.0146368 0)
(-0.113744 -0.0236653 0)
(-0.0974657 -0.0347457 0)
(-0.0760134 -0.0468453 0)
(-0.0483851 -0.0518165 0)
(-0.0154817 -0.0328147 0)
(-0.00109141 0.00143595 0)
(-0.00778164 0.00789151 0)
(-0.0242005 0.0239815 0)
(-0.0531876 0.0453642 0)
(-0.0766092 0.0550869 0)
(-0.0907257 0.0521417 0)
(-0.099831 0.0432837 0)
(-0.10692 0.034131 0)
(-0.111441 0.0253261 0)
(-0.111694 0.0174025 0)
(-0.111716 0.00977539 0)
(-0.110235 0.00262018 0)
(-0.108467 -0.00425703 0)
(-0.105402 -0.0118191 0)
(-0.100646 -0.0206285 0)
(-0.0936459 -0.0324193 0)
(-0.0833875 -0.0480839 0)
(-0.0681533 -0.0674134 0)
(-0.0466456 -0.0835194 0)
(-0.0186035 -0.07379 0)
(-0.00278495 0.00877142 0)
(-0.0155469 0.0248616 0)
(-0.0381778 0.0486855 0)
(-0.0624899 0.0657906 0)
(-0.0761157 0.0683617 0)
(-0.0840802 0.0605277 0)
(-0.0872871 0.0491041 0)
(-0.0888931 0.0384713 0)
(-0.0876652 0.0269035 0)
(-0.0877254 0.0173162 0)
(-0.0863931 0.00859874 0)
(-0.0848018 0.00081625 0)
(-0.0823855 -0.00666673 0)
(-0.0792093 -0.0148555 0)
(-0.0753132 -0.024553 0)
(-0.0705191 -0.037327 0)
(-0.0641906 -0.0552039 0)
(-0.0542555 -0.0795407 0)
(-0.038367 -0.10345 0)
(-0.0161474 -0.104921 0)
(-0.00423274 0.0210239 0)
(-0.0197382 0.0432792 0)
(-0.04303 0.0691235 0)
(-0.0580039 0.0792321 0)
(-0.0668918 0.0771163 0)
(-0.0695575 0.064884 0)
(-0.0701068 0.0513901 0)
(-0.0708436 0.0387136 0)
(-0.0700229 0.0264471 0)
(-0.0695447 0.0162309 0)
(-0.0677055 0.00682112 0)
(-0.0654927 -0.00160427 0)
(-0.0626004 -0.00974892 0)
(-0.0592415 -0.0184693 0)
(-0.0555362 -0.0287124 0)
(-0.0516057 -0.0419473 0)
(-0.047317 -0.0604156 0)
(-0.0410656 -0.08768 0)
(-0.0297748 -0.120292 0)
(-0.0140709 -0.129852 0)
(-0.00410398 0.0336994 0)
(-0.0208038 0.061296 0)
(-0.0388835 0.0835487 0)
(-0.0479032 0.0886995 0)
(-0.0544555 0.0821007 0)
(-0.0549373 0.0667396 0)
(-0.0557813 0.0521621 0)
(-0.0568207 0.0385473 0)
(-0.0564214 0.0258361 0)
(-0.0556951 0.0147961 0)
(-0.0535198 0.00464867 0)
(-0.0507585 -0.00437321 0)
(-0.0475172 -0.0129213 0)
(-0.0441019 -0.0219543 0)
(-0.0406548 -0.0324073 0)
(-0.0373176 -0.0456803 0)
(-0.0341071 -0.0639443 0)
(-0.0299913 -0.0908501 0)
(-0.0242539 -0.130523 0)
(-0.00879326 -0.149856 0)
(-0.00325448 0.0462543 0)
(-0.0180368 0.0756842 0)
(-0.0310217 0.0932196 0)
(-0.0365427 0.0953435 0)
(-0.0418575 0.0854348 0)
(-0.041956 0.0682691 0)
(-0.0438777 0.0531794 0)
(-0.0455311 0.038973 0)
(-0.045864 0.0255127 0)
(-0.0452481 0.0132789 0)
(-0.0427575 0.00202652 0)
(-0.0394088 -0.00763012 0)
(-0.0357531 -0.0162999 0)
(-0.0322888 -0.0252991 0)
(-0.0291778 -0.0357041 0)
(-0.0264296 -0.0489082 0)
(-0.0240931 -0.0672432 0)
(-0.0209255 -0.0950549 0)
(-0.018997 -0.136618 0)
(-0.00705253 -0.165358 0)
(-0.00114304 0.0551798 0)
(-0.012887 0.0861956 0)
(-0.0210681 0.100802 0)
(-0.0254892 0.100567 0)
(-0.029871 0.088075 0)
(-0.030492 0.0703106 0)
(-0.0334831 0.054898 0)
(-0.0361133 0.0401278 0)
(-0.0376297 0.0256062 0)
(-0.0375573 0.0116174 0)
(-0.0349185 -0.00134552 0)
(-0.0308612 -0.011851 0)
(-0.0265976 -0.0202251 0)
(-0.0229249 -0.028613 0)
(-0.0201335 -0.0384707 0)
(-0.0180364 -0.0511898 0)
(-0.0167012 -0.0690408 0)
(-0.014432 -0.0970139 0)
(-0.0154406 -0.140604 0)
(-0.00393793 -0.177927 0)
(-3.32171e-05 0.0624373 0)
(-0.00709803 0.093072 0)
(-0.0116999 0.10532 0)
(-0.0147034 0.104301 0)
(-0.0181541 0.0909634 0)
(-0.0195596 0.0730502 0)
(-0.0232358 0.0574827 0)
(-0.0267539 0.0423353 0)
(-0.0292925 0.0266542 0)
(-0.0299483 0.0104263 0)
(-0.0280642 -0.00511584 0)
(-0.0239195 -0.0172742 0)
(-0.0190964 -0.0250686 0)
(-0.0151174 -0.032045 0)
(-0.012618 -0.0407934 0)
(-0.0112057 -0.0527451 0)
(-0.0110507 -0.0700096 0)
(-0.00929032 -0.0983042 0)
(-0.0128043 -0.142552 0)
(-0.00282202 -0.187854 0)
(0.00228847 0.0637205 0)
(-0.000592305 0.0963563 0)
(-0.00252882 0.109165 0)
(-0.00374253 0.107073 0)
(-0.00650973 0.0937795 0)
(-0.00804877 0.076486 0)
(-0.0115206 0.0608118 0)
(-0.0148488 0.0454714 0)
(-0.0173364 0.0289593 0)
(-0.0184605 0.0108917 0)
(-0.0179686 -0.00732934 0)
(-0.0152271 -0.0220835 0)
(-0.0112184 -0.0302019 0)
(-0.00759245 -0.035306 0)
(-0.00569234 -0.042424 0)
(-0.00508525 -0.0532931 0)
(-0.00647669 -0.0697585 0)
(-0.00514099 -0.0981627 0)
(-0.0111609 -0.143044 0)
(-0.000729639 -0.196135 0)
(0.00307538 0.0621278 0)
(0.00509431 0.095903 0)
(0.00638747 0.109448 0)
(0.00710408 0.108227 0)
(0.00566744 0.0959299 0)
(0.00432082 0.0790029 0)
(0.00183672 0.0634886 0)
(-0.000368895 0.0480437 0)
(-0.00190374 0.0310309 0)
(-0.00289677 0.0121906 0)
(-0.00334656 -0.00733241 0)
(-0.00242776 -0.0241546 0)
(-0.000816194 -0.033435 0)
(0.000903189 -0.0374588 0)
(0.00140635 -0.042897 0)
(0.000882498 -0.0525544 0)
(-0.00248587 -0.0684249 0)
(-0.00129677 -0.0967412 0)
(-0.0101131 -0.142399 0)
(0.000412147 -0.202699 0)
(0.00399718 0.057596 0)
(0.0102399 0.0929986 0)
(0.014307 0.108242 0)
(0.0176993 0.107793 0)
(0.018275 0.0986336 0)
(0.0178883 0.0815112 0)
(0.0165108 0.0655351 0)
(0.0154452 0.0497458 0)
(0.0149579 0.0324087 0)
(0.0144743 0.0134579 0)
(0.0138546 -0.00642694 0)
(0.0135133 -0.0239262 0)
(0.0122641 -0.0338451 0)
(0.010773 -0.0373746 0)
(0.00907331 -0.0415324 0)
(0.00688622 -0.0501929 0)
(0.00128749 -0.0657076 0)
(0.00267428 -0.0936588 0)
(-0.00967818 -0.140481 0)
(0.002716 -0.208017 0)
(0.00470668 0.0491568 0)
(0.0145867 0.0845816 0)
(0.0207037 0.102896 0)
(0.0271193 0.103538 0)
(0.0296287 0.0969686 0)
(0.0314594 0.0822496 0)
(0.0316428 0.0660771 0)
(0.0317529 0.0499791 0)
(0.0322701 0.0326949 0)
(0.0323461 0.0143727 0)
(0.0317598 -0.00474207 0)
(0.0304158 -0.0218715 0)
(0.0265693 -0.0316125 0)
(0.0216843 -0.0345202 0)
(0.017148 -0.0378527 0)
(0.012969 -0.0460287 0)
(0.00527643 -0.0613471 0)
(0.00684502 -0.0891474 0)
(-0.00957872 -0.137981 0)
(0.00521821 -0.212084 0)
(0.00473339 0.038827 0)
(0.0164039 0.07473 0)
(0.0255728 0.0962864 0)
(0.0344629 0.0996111 0)
(0.0399531 0.0943582 0)
(0.0444106 0.0814904 0)
(0.046837 0.0659097 0)
(0.0484018 0.04973 0)
(0.049835 0.0326144 0)
(0.0503091 0.0151865 0)
(0.049563 -0.00259514 0)
(0.0469694 -0.0181618 0)
(0.0405222 -0.0266456 0)
(0.0325604 -0.0288136 0)
(0.0252821 -0.0318062 0)
(0.0192235 -0.0399278 0)
(0.00965255 -0.0552139 0)
(0.0112543 -0.0832707 0)
(-0.00933317 -0.134128 0)
(0.00942612 -0.215399 0)
(0.00347731 0.0289298 0)
(0.0138077 0.0612462 0)
(0.026127 0.0823737 0)
(0.0383668 0.0889378 0)
(0.0477557 0.0867646 0)
(0.0552185 0.0771822 0)
(0.060564 0.0634753 0)
(0.063847 0.0484506 0)
(0.0662017 0.0323943 0)
(0.0668459 0.0164063 0)
(0.0656121 0.000567552 0)
(0.0613173 -0.0125683 0)
(0.0523971 -0.019169 0)
(0.0422619 -0.0207417 0)
(0.0330729 -0.0238659 0)
(0.025726 -0.0322731 0)
(0.01458 -0.0477505 0)
(0.016275 -0.0768521 0)
(-0.00860006 -0.131287 0)
(0.014289 -0.218356 0)
(0.00136614 0.0221748 0)
(0.00987173 0.0537633 0)
(0.0216388 0.0701927 0)
(0.0360584 0.076871 0)
(0.048876 0.0762133 0)
(0.0598953 0.0690606 0)
(0.0685104 0.0580122 0)
(0.0745235 0.0449322 0)
(0.0781708 0.0306155 0)
(0.0788593 0.0170365 0)
(0.0766972 0.00450055 0)
(0.070766 -0.00527134 0)
(0.0606919 -0.00986931 0)
(0.0503176 -0.0114436 0)
(0.0407295 -0.0149926 0)
(0.0331304 -0.0236638 0)
(0.0207772 -0.0392662 0)
(0.0227904 -0.0695125 0)
(-0.00752982 -0.127298 0)
(0.0206504 -0.220526 0)
(-0.0042718 0.016707 0)
(0.00236777 0.0400171 0)
(0.0144238 0.0533922 0)
(0.0295195 0.0594613 0)
(0.0443008 0.0598827 0)
(0.0580744 0.0558287 0)
(0.0690804 0.0482547 0)
(0.0772357 0.0389664 0)
(0.0817458 0.0283178 0)
(0.0830723 0.018483 0)
(0.0808781 0.00934159 0)
(0.0751919 0.00249536 0)
(0.0665574 -0.000797368 0)
(0.058367 -0.00279444 0)
(0.0500092 -0.0064934 0)
(0.0435238 -0.0147741 0)
(0.0305494 -0.0298974 0)
(0.0326036 -0.0608625 0)
(-0.00520052 -0.121762 0)
(0.0287555 -0.217166 0)
(-0.00784842 0.0312502 0)
(-0.00730169 0.0424301 0)
(0.00314742 0.047504 0)
(0.0164888 0.0485742 0)
(0.031981 0.0469885 0)
(0.0473608 0.0431833 0)
(0.0609792 0.0373081 0)
(0.0721535 0.0304111 0)
(0.0800154 0.024005 0)
(0.0840582 0.0177091 0)
(0.0844123 0.0126353 0)
(0.0820375 0.00882365 0)
(0.0772087 0.0065717 0)
(0.0727563 0.00424066 0)
(0.0668567 0.00103821 0)
(0.0625298 -0.0062065 0)
(0.0504239 -0.0193867 0)
(0.0513232 -0.0496439 0)
(0.00545108 -0.108861 0)
(0.0437955 -0.19533 0)
(-0.00865604 0.0182099 0)
(-0.0136136 0.0117775 0)
(0.00214867 0.0170064 0)
(0.018716 0.0200073 0)
(0.0367191 0.0214288 0)
(0.0541493 0.0214332 0)
(0.0696111 0.0202088 0)
(0.0826661 0.017938 0)
(0.0925275 0.0154366 0)
(0.09997 0.0126526 0)
(0.104486 0.010262 0)
(0.107555 0.00819401 0)
(0.108199 0.00688698 0)
(0.108906 0.00501438 0)
(0.107419 0.00284483 0)
(0.106114 -0.00263308 0)
(0.097343 -0.0114326 0)
(0.0955856 -0.0357037 0)
(0.0477023 -0.0804791 0)
(0.0781262 -0.147038 0)
(0.0467042 0.0776567 0)
(0.0495344 0.0535427 0)
(0.0774941 0.0343181 0)
(0.0996327 0.0244211 0)
(0.118541 0.0199333 0)
(0.136288 0.0171777 0)
(0.152553 0.0152766 0)
(0.168123 0.0133437 0)
(0.181432 0.0120091 0)
(0.19348 0.0102988 0)
(0.203112 0.00949106 0)
(0.211441 0.00793169 0)
(0.217909 0.00767673 0)
(0.222927 0.00596827 0)
(0.227142 0.00587114 0)
(0.228411 0.00262532 0)
(0.224775 0.000458605 0)
(0.213748 -0.00663267 0)
(0.1668 -0.0168938 0)
(0.154842 -0.0953482 0)
)
;

boundaryField
{
    movingWall
    {
        type            fixedValue;
        value           uniform (1 0 0);
    }
    fixedWalls
    {
        type            fixedValue;
        value           uniform (0 0 0);
    }
    frontAndBack
    {
        type            empty;
    }
}


// ************************************************************************* //
