/*--------------------------------*- C++ -*----------------------------------*\
| =========                 |                                                 |
| \\      /  F ield         | OpenFOAM: The Open Source CFD Toolbox           |
|  \\    /   O peration     | Version:  3.0.0                                 |
|   \\  /    A nd           | Web:      www.OpenFOAM.org                      |
|    \\/     M anipulation  |                                                 |
\*---------------------------------------------------------------------------*/
FoamFile
{
    version     2.0;
    format      ascii;
    class       volScalarField;
    location    "3";
    object      k;
}
// * * * * * * * * * * * * * * * * * * * * * * * * * * * * * * * * * * * * * //

dimensions      [0 2 -2 0 0 0 0];

internalField   nonuniform List<scalar> 
400
(
4.92471e-08
1.74689e-07
3.02451e-07
4.36767e-07
4.77998e-06
4.87905e-05
0.000194463
0.000323891
0.00037166
0.000391275
0.000393939
0.000374294
0.000346245
0.000307448
0.000267695
0.000224104
0.000180618
0.000140829
9.37611e-05
5.7786e-05
1.71342e-07
7.4515e-07
1.56768e-06
5.80121e-06
2.76399e-05
9.50595e-05
0.00017464
0.000208878
0.000221994
0.00022949
0.000238931
0.000250605
0.000267781
0.000283681
0.000300612
0.000312079
0.000317091
0.000313277
0.000288484
0.0002793
3.56808e-07
3.17887e-06
7.52703e-06
2.20278e-05
6.5813e-05
0.00012584
0.000195481
0.000245408
0.000303467
0.000386972
0.000447468
0.00049745
0.000520473
0.000528115
0.000528091
0.000523387
0.000514813
0.000493666
0.000485766
0.000576562
1.65894e-06
8.79135e-06
2.34238e-05
5.13455e-05
0.000101225
0.0001753
0.000268531
0.000370011
0.00046185
0.000529694
0.000595762
0.000648278
0.000688483
0.000726933
0.000744356
0.000742818
0.000721274
0.000664199
0.00062293
0.000784143
5.5488e-06
1.46519e-05
3.63104e-05
7.49751e-05
0.000138322
0.000233725
0.000341197
0.000405268
0.000458068
0.000504057
0.000549958
0.000613991
0.000690112
0.000762969
0.000842962
0.000911466
0.000923795
0.000874814
0.000766376
0.00095605
1.30496e-05
2.25044e-05
5.02415e-05
9.44502e-05
0.000169014
0.000274735
0.000348422
0.000378505
0.000383101
0.000364216
0.000365462
0.000437004
0.000559553
0.000694469
0.00084168
0.000995874
0.00107851
0.00107813
0.00091089
0.00109293
2.36135e-05
2.80718e-05
6.22165e-05
0.00011023
0.0001904
0.000284543
0.00032346
0.000304774
0.000243904
0.000215939
0.000210888
0.000261275
0.000392773
0.000579139
0.000786277
0.00101559
0.00121225
0.00125985
0.00106439
0.00122007
3.50035e-05
2.97187e-05
6.21715e-05
0.00010997
0.000191411
0.000272871
0.000283624
0.000246137
0.000181523
0.000155966
0.000150842
0.000176398
0.000288852
0.00049643
0.000741237
0.00101423
0.00129725
0.00141873
0.00122496
0.00133578
4.77763e-05
2.947e-05
5.93392e-05
0.000105413
0.000182647
0.000248392
0.000256963
0.000230203
0.000182093
0.000152571
0.000138129
0.000148018
0.00024088
0.000458553
0.000722344
0.0010204
0.00135066
0.00154716
0.0013896
0.00145562
5.99883e-05
2.92541e-05
5.06427e-05
9.49122e-05
0.000163038
0.000227743
0.000241019
0.000226685
0.000195497
0.000168479
0.000136195
0.00014231
0.000224807
0.000448742
0.000724623
0.0010379
0.00138232
0.00165024
0.00156116
0.00157793
6.65718e-05
3.09141e-05
4.18536e-05
7.1562e-05
0.000125501
0.000192226
0.000220026
0.000215538
0.000197531
0.000168838
0.000135052
0.000145376
0.000239086
0.000480422
0.000752371
0.00106157
0.00139651
0.00172502
0.00173539
0.00171582
6.62357e-05
3.80915e-05
4.11214e-05
5.35016e-05
8.28846e-05
0.000132093
0.000171542
0.000178972
0.000170358
0.000142216
0.000129074
0.000154502
0.000286809
0.000539132
0.000789583
0.00107963
0.00139987
0.00176712
0.0019087
0.00186958
6.22864e-05
4.56619e-05
4.45219e-05
5.11124e-05
6.29607e-05
8.64087e-05
0.00011279
0.000123657
0.000121948
0.000118842
0.000128444
0.000189558
0.000376907
0.000602452
0.00082308
0.00108603
0.00138026
0.00178507
0.00207683
0.00205444
5.29338e-05
4.73052e-05
5.92253e-05
5.77361e-05
6.3724e-05
7.55571e-05
9.1351e-05
0.000104825
0.00011169
0.000123681
0.000162711
0.000287141
0.000478022
0.000658167
0.000843871
0.00107711
0.00133552
0.00178724
0.00222102
0.0022767
4.38495e-05
4.7395e-05
8.8144e-05
8.54281e-05
8.44977e-05
9.01975e-05
0.000102399
0.000118932
0.0001376
0.000179394
0.000282553
0.000421593
0.000561127
0.000701116
0.000855466
0.00106496
0.00128999
0.00176587
0.00234925
0.00256028
3.6187e-05
4.79186e-05
0.00011057
0.000155161
0.000169522
0.00017941
0.000195365
0.000226159
0.000277464
0.000353751
0.000440931
0.000534811
0.000636218
0.000751493
0.000881485
0.00106509
0.00126999
0.00175696
0.00248645
0.00292955
3.41883e-05
5.21237e-05
0.000136755
0.000216352
0.000272145
0.000318493
0.000363176
0.000408758
0.000458801
0.000521684
0.00059373
0.000677899
0.000772821
0.000884125
0.00100121
0.00117249
0.00134811
0.0018262
0.00270805
0.00344116
4.43927e-05
7.5374e-05
0.00021977
0.000365785
0.000488018
0.000586134
0.000667184
0.000741802
0.000812406
0.000889384
0.000972761
0.00107623
0.00118692
0.001325
0.00145857
0.00163671
0.00179786
0.00224009
0.0032083
0.00421314
0.000111094
0.000360256
0.000797343
0.00114243
0.00141006
0.00162204
0.00179125
0.00195178
0.00209091
0.00224265
0.00237963
0.00254371
0.00268929
0.00287186
0.00302805
0.00321738
0.00341266
0.00385409
0.00493443
0.00560272
0.00257005
0.0050829
0.00657159
0.00716094
0.00750889
0.00772686
0.00785366
0.00794086
0.00797989
0.00801021
0.00801169
0.00801084
0.00799914
0.00800019
0.00800374
0.00803415
0.00808401
0.00817812
0.00856553
0.00727278
)
;

boundaryField
{
    movingWall
    {
        type            kqRWallFunction;
        value           nonuniform List<scalar> 
20
(
0.00257005
0.0050829
0.00657159
0.00716094
0.00750889
0.00772686
0.00785366
0.00794086
0.00797989
0.00801021
0.00801169
0.00801084
0.00799914
0.00800019
0.00800374
0.00803415
0.00808401
0.00817812
0.00856553
0.00727278
)
;
    }
    fixedWalls
    {
        type            kqRWallFunction;
        value           nonuniform List<scalar> 
60
(
4.92471e-08
1.71342e-07
3.56808e-07
1.65894e-06
5.5488e-06
1.30496e-05
2.36135e-05
3.50035e-05
4.77763e-05
5.99883e-05
6.65718e-05
6.62357e-05
6.22864e-05
5.29338e-05
4.38495e-05
3.6187e-05
3.41883e-05
4.43927e-05
0.000111094
0.00257005
5.7786e-05
0.0002793
0.000576562
0.000784143
0.00095605
0.00109293
0.00122007
0.00133578
0.00145562
0.00157793
0.00171582
0.00186958
0.00205444
0.0022767
0.00256028
0.00292955
0.00344116
0.00421314
0.00560272
0.00727278
4.92471e-08
1.74689e-07
3.02451e-07
4.36767e-07
4.77998e-06
4.87905e-05
0.000194463
0.000323891
0.00037166
0.000391275
0.000393939
0.000374294
0.000346245
0.000307448
0.000267695
0.000224104
0.000180618
0.000140829
9.37611e-05
5.7786e-05
)
;
    }
    frontAndBack
    {
        type            empty;
    }
}


// ************************************************************************* //
