/*--------------------------------*- C++ -*----------------------------------*\
| =========                 |                                                 |
| \\      /  F ield         | OpenFOAM: The Open Source CFD Toolbox           |
|  \\    /   O peration     | Version:  3.0.0                                 |
|   \\  /    A nd           | Web:      www.OpenFOAM.org                      |
|    \\/     M anipulation  |                                                 |
\*---------------------------------------------------------------------------*/
FoamFile
{
    version     2.0;
    format      ascii;
    class       volScalarField;
    location    "3";
    object      nut;
}
// * * * * * * * * * * * * * * * * * * * * * * * * * * * * * * * * * * * * * //

dimensions      [0 2 -1 0 0 0 0];

internalField   nonuniform List<scalar> 
400
(
3.84741e-10
1.36473e-09
2.36283e-09
3.4121e-09
3.73269e-08
3.79424e-07
1.49169e-06
2.45473e-06
2.8045e-06
2.94727e-06
2.9666e-06
2.82365e-06
2.61868e-06
2.33348e-06
2.03919e-06
1.71401e-06
1.38705e-06
1.08553e-06
7.2595e-07
4.4895e-07
1.33859e-09
2.35747e-08
5.68924e-08
1.36134e-07
4.10102e-07
1.24021e-06
2.28424e-06
3.35932e-06
4.41997e-06
5.45712e-06
6.78107e-06
7.70677e-06
8.46861e-06
8.35467e-06
8.25936e-06
7.61898e-06
6.56916e-06
5.1824e-06
3.39238e-06
2.12533e-06
2.78747e-09
1.31283e-07
3.06164e-07
5.22571e-07
1.30951e-06
2.50777e-06
5.0369e-06
8.83218e-06
1.3245e-05
1.88461e-05
2.27904e-05
2.54734e-05
2.523e-05
2.35945e-05
2.08792e-05
1.73916e-05
1.34621e-05
9.36932e-06
5.89131e-06
4.27225e-06
1.29584e-08
3.49435e-07
8.2465e-07
1.33139e-06
2.5746e-06
5.32598e-06
1.22858e-05
2.1721e-05
3.09131e-05
3.7752e-05
4.33327e-05
4.71423e-05
4.76793e-05
4.66305e-05
4.19392e-05
3.43413e-05
2.50244e-05
1.55101e-05
8.35677e-06
5.7082e-06
4.33267e-08
5.53206e-07
1.26038e-06
2.26815e-06
4.49341e-06
1.05789e-05
2.25944e-05
3.2462e-05
4.04324e-05
4.65395e-05
5.14865e-05
5.73209e-05
6.21475e-05
6.39046e-05
6.13223e-05
5.33063e-05
3.93168e-05
2.39791e-05
1.12975e-05
6.86118e-06
1.01821e-07
8.36143e-07
1.8081e-06
3.27285e-06
6.83927e-06
1.69117e-05
2.92634e-05
3.69647e-05
4.01719e-05
3.92561e-05
3.95878e-05
4.66565e-05
5.90403e-05
7.02809e-05
7.50822e-05
7.05727e-05
5.42953e-05
3.37901e-05
1.46481e-05
7.75731e-06
1.84061e-07
1.05358e-06
2.42158e-06
4.31486e-06
9.26072e-06
2.14107e-05
3.16407e-05
3.36562e-05
2.82685e-05
2.53122e-05
2.42449e-05
2.9419e-05
4.40788e-05
6.47404e-05
7.9838e-05
8.17766e-05
6.80222e-05
4.31635e-05
1.82109e-05
8.57307e-06
2.72544e-07
1.14287e-06
2.61668e-06
4.7292e-06
1.06146e-05
2.32795e-05
3.04393e-05
2.9174e-05
2.22319e-05
1.9147e-05
1.77971e-05
2.01119e-05
3.28344e-05
5.77505e-05
8.21611e-05
9.06749e-05
7.98939e-05
5.20502e-05
2.20128e-05
9.30223e-06
3.71539e-07
1.17757e-06
2.69669e-06
4.90095e-06
1.07502e-05
2.12788e-05
2.774e-05
2.75754e-05
2.25642e-05
1.8892e-05
1.62779e-05
1.64267e-05
2.65907e-05
5.38293e-05
8.39408e-05
9.79111e-05
8.86856e-05
5.92237e-05
2.56243e-05
1.00446e-05
4.65964e-07
1.18947e-06
2.4874e-06
4.67766e-06
9.58414e-06
1.89466e-05
2.54147e-05
2.67296e-05
2.39522e-05
2.04153e-05
1.55337e-05
1.50161e-05
2.37329e-05
5.24205e-05
8.6511e-05
0.00010538
9.63234e-05
6.56278e-05
2.93068e-05
1.07895e-05
5.1678e-07
1.19666e-06
2.23307e-06
3.68329e-06
7.261e-06
1.47339e-05
2.15377e-05
2.39289e-05
2.28283e-05
1.90138e-05
1.40761e-05
1.43764e-05
2.45581e-05
5.60995e-05
9.14489e-05
0.000112593
0.000102173
7.03278e-05
3.28383e-05
1.16141e-05
5.14188e-07
1.30337e-06
2.40872e-06
2.96459e-06
4.8167e-06
8.73984e-06
1.40556e-05
1.68477e-05
1.67063e-05
1.36725e-05
1.20773e-05
1.45827e-05
2.9341e-05
6.48685e-05
9.8782e-05
0.000118911
0.000106676
7.3638e-05
3.64242e-05
1.25158e-05
4.83711e-07
1.34067e-06
2.76571e-06
3.13492e-06
3.78341e-06
5.51512e-06
7.99025e-06
9.63995e-06
1.00493e-05
1.01743e-05
1.12982e-05
1.7844e-05
4.14622e-05
7.67631e-05
0.00010714
0.000124183
0.000108733
7.52445e-05
4.00151e-05
1.3576e-05
4.11446e-07
1.26118e-06
3.67587e-06
4.03418e-06
4.27022e-06
4.97944e-06
6.31419e-06
7.75687e-06
8.82939e-06
1.04012e-05
1.47487e-05
2.99704e-05
5.86707e-05
8.997e-05
0.000114404
0.000125736
0.000106864
7.56853e-05
4.29864e-05
1.48183e-05
3.41128e-07
1.27348e-06
5.45665e-06
6.81855e-06
6.68778e-06
6.7837e-06
7.62868e-06
9.19603e-06
1.13874e-05
1.63742e-05
2.99319e-05
5.18125e-05
7.70751e-05
0.000100267
0.000118084
0.000124436
0.000103331
7.38456e-05
4.4478e-05
1.63551e-05
2.81723e-07
1.34511e-06
6.89812e-06
1.34268e-05
1.58893e-05
1.68524e-05
1.84814e-05
2.19951e-05
2.89453e-05
4.11018e-05
5.63569e-05
7.3339e-05
9.00415e-05
0.000105173
0.000115238
0.00011542
9.52017e-05
6.91319e-05
4.39934e-05
1.8282e-05
2.66212e-07
1.70295e-06
9.04098e-06
1.95013e-05
2.75069e-05
3.3555e-05
3.92502e-05
4.53947e-05
5.26865e-05
6.2097e-05
7.29955e-05
8.35631e-05
9.33654e-05
0.00010055
0.000102659
9.96268e-05
8.28628e-05
6.25016e-05
4.35354e-05
2.08263e-05
3.4533e-07
2.87067e-06
1.42634e-05
2.96872e-05
4.25481e-05
5.16845e-05
5.85126e-05
6.40341e-05
6.8546e-05
7.25052e-05
7.56574e-05
7.83216e-05
8.05457e-05
8.21293e-05
8.16903e-05
8.0332e-05
7.01337e-05
5.57753e-05
4.23899e-05
2.4426e-05
8.58722e-07
1.09455e-05
2.81353e-05
3.91715e-05
4.60158e-05
5.03448e-05
5.31074e-05
5.50272e-05
5.62875e-05
5.72627e-05
5.79957e-05
5.87313e-05
5.94214e-05
6.01737e-05
6.02991e-05
6.05833e-05
5.6465e-05
4.84868e-05
4.2199e-05
3.0313e-05
1.64071e-05
2.81914e-05
3.40563e-05
3.62104e-05
3.74435e-05
3.82024e-05
3.8639e-05
3.89376e-05
3.90707e-05
3.91742e-05
3.91797e-05
3.91769e-05
3.91375e-05
3.91412e-05
3.91538e-05
3.92578e-05
3.94273e-05
3.97456e-05
4.10375e-05
3.66108e-05
)
;

boundaryField
{
    movingWall
    {
        type            nutkWallFunction;
        Cmu             0.09;
        kappa           0.41;
        E               9.8;
        value           nonuniform List<scalar> 
20
(
0
0
0
3.91565e-08
2.28889e-07
3.4517e-07
4.11944e-07
4.57505e-07
4.778e-07
4.93532e-07
4.94299e-07
4.9386e-07
4.87793e-07
4.88338e-07
4.9018e-07
5.05929e-07
5.31674e-07
5.80024e-07
7.75756e-07
1.00709e-07
)
;
    }
    fixedWalls
    {
        type            nutkWallFunction;
        Cmu             0.09;
        kappa           0.41;
        E               9.8;
        value           nonuniform List<scalar> 
60
(
0
0
0
0
0
0
0
0
0
0
0
0
0
0
0
0
0
0
0
0
0
0
0
0
0
0
0
0
0
0
0
0
0
0
0
0
0
0
0
1.00709e-07
0
0
0
0
0
0
0
0
0
0
0
0
0
0
0
0
0
0
0
0
)
;
    }
    frontAndBack
    {
        type            empty;
    }
}


// ************************************************************************* //
