/*--------------------------------*- C++ -*----------------------------------*\
| =========                 |                                                 |
| \\      /  F ield         | OpenFOAM: The Open Source CFD Toolbox           |
|  \\    /   O peration     | Version:  3.0.0                                 |
|   \\  /    A nd           | Web:      www.OpenFOAM.org                      |
|    \\/     M anipulation  |                                                 |
\*---------------------------------------------------------------------------*/
FoamFile
{
    version     2.0;
    format      ascii;
    class       volScalarField;
    location    "3";
    object      omega;
}
// * * * * * * * * * * * * * * * * * * * * * * * * * * * * * * * * * * * * * //

dimensions      [0 0 -1 0 0 0 0];

internalField   nonuniform List<scalar> 
400
(
128.001
128.002
128.004
128.005
128.057
128.591
130.364
131.946
132.522
132.758
132.791
132.557
132.221
131.755
131.275
130.748
130.218
129.733
129.156
128.714
128.002
31.608
27.5552
42.614
67.3976
76.6476
76.4545
62.1785
50.2252
42.0532
35.235
32.5175
31.6204
33.9547
36.3965
40.9607
48.2697
60.4502
85.0387
131.415
128.004
24.214
24.585
42.1527
50.2578
50.1802
38.8098
27.7857
22.9119
20.5332
19.6341
19.5282
20.6291
22.383
25.2927
30.0943
38.2418
52.6896
82.4546
134.955
128.021
25.1587
28.4045
38.5654
39.3168
32.9142
21.8571
17.0347
14.9403
14.0309
13.7486
13.7515
14.4399
15.5892
17.7485
21.6304
28.8228
42.8235
74.5419
137.371
128.069
26.4855
28.8092
33.0556
30.7832
22.0934
15.1009
12.4844
11.3292
10.8307
10.6816
10.7115
11.1044
11.9392
13.7464
17.0987
23.4962
36.4823
67.836
139.342
128.162
26.9146
27.7869
28.8587
24.7123
16.2453
11.9064
10.2396
9.53654
9.27795
9.23169
9.36642
9.47746
9.88134
11.2101
14.1113
19.8638
31.9068
62.1851
140.891
128.292
26.6442
25.6926
25.5465
20.5599
13.2897
10.2229
9.0555
8.62812
8.53101
8.69824
8.88117
8.9107
8.94557
9.8484
12.4191
17.8214
29.1878
58.448
142.315
128.433
26.0035
23.7597
23.2534
18.0329
11.7215
9.31771
8.43688
8.16499
8.14574
8.4756
8.77081
8.79725
8.59611
9.02176
11.1853
16.2372
27.2569
55.6477
143.598
128.59
25.0261
22.0045
21.5087
16.9901
11.6732
9.26328
8.34813
8.06999
8.07593
8.48567
9.01082
9.05881
8.51866
8.6054
10.4217
15.2298
26.1239
54.2297
144.915
128.74
24.5941
20.3597
20.2905
17.0112
12.0203
9.48344
8.4807
8.16197
8.25258
8.76773
9.4772
9.4724
8.56044
8.37608
9.8492
14.3508
25.1454
53.2694
146.248
128.82
25.8336
18.7426
19.4288
17.2843
13.0465
10.2158
9.00743
8.65291
8.87973
9.59446
10.1121
9.73555
8.56375
8.22723
9.42833
13.6681
24.5283
52.8464
147.736
128.816
29.2254
17.0718
18.0469
17.2077
15.1139
12.2046
10.623
10.1973
10.4016
10.6873
10.5949
9.77504
8.31115
7.99319
9.07933
13.1226
23.9974
52.4019
149.378
128.768
34.0589
16.0978
16.3042
16.6412
15.6676
14.116
12.8276
12.135
11.6806
11.3685
10.623
9.09038
7.84819
7.68229
8.74543
12.694
23.7235
51.9011
151.329
128.653
37.5087
16.1119
14.3117
14.9229
15.1738
14.4676
13.5138
12.6498
11.891
11.0322
9.5808
8.14755
7.3154
7.37623
8.56646
12.4973
23.6141
51.668
153.641
128.542
37.2168
16.1535
12.5288
12.6346
13.2962
13.4229
12.933
12.0835
10.9559
9.43985
8.1369
7.28026
6.99252
7.24455
8.55831
12.4841
23.913
52.8183
156.543
128.449
35.6243
16.029
11.5561
10.669
10.646
10.5709
10.2822
9.58581
8.60672
7.8239
7.29231
7.06583
7.14528
7.64926
9.2279
13.34
25.4147
56.5186
160.242
128.425
30.608
15.1261
11.0942
9.8937
9.49167
9.25285
9.00452
8.70812
8.40111
8.13378
8.11242
8.27738
8.79286
9.75272
11.7688
16.2692
29.2184
62.2034
165.231
128.552
26.2566
15.408
12.3213
11.4698
11.3406
11.4024
11.5845
11.852
12.2665
12.8574
13.7412
14.736
16.133
17.8549
20.3743
25.6348
40.1627
75.6855
172.486
129.372
32.9136
28.3395
29.1648
30.6429
32.2187
33.7289
35.4694
37.147
39.1642
41.0311
43.311
45.258
47.7262
50.2172
53.1068
60.4385
79.4874
116.933
184.829
156.642
180.3
192.963
197.759
200.539
202.261
203.257
203.938
204.242
204.476
204.486
204.479
204.386
204.393
204.418
204.651
205.036
205.762
208.724
198.651
)
;

boundaryField
{
    movingWall
    {
        Cmu             0.09;
        kappa           0.41;
        E               9.8;
        beta1           0.075;
        type            omegaWallFunction;
        value           nonuniform List<scalar> 
20
(
156.642
180.3
192.963
197.759
200.539
202.261
203.257
203.938
204.242
204.476
204.486
204.479
204.386
204.393
204.418
204.651
205.036
205.762
208.724
198.651
)
;
    }
    fixedWalls
    {
        Cmu             0.09;
        kappa           0.41;
        E               9.8;
        beta1           0.075;
        type            omegaWallFunction;
        value           nonuniform List<scalar> 
60
(
128.001
128.002
128.004
128.021
128.069
128.162
128.292
128.433
128.59
128.74
128.82
128.816
128.768
128.653
128.542
128.449
128.425
128.552
129.372
156.642
128.714
131.415
134.955
137.371
139.342
140.891
142.315
143.598
144.915
146.248
147.736
149.378
151.329
153.641
156.543
160.242
165.231
172.486
184.829
198.651
128.001
128.002
128.004
128.005
128.057
128.591
130.364
131.946
132.522
132.758
132.791
132.557
132.221
131.755
131.275
130.748
130.218
129.733
129.156
128.714
)
;
    }
    frontAndBack
    {
        type            empty;
    }
}


// ************************************************************************* //
