/*--------------------------------*- C++ -*----------------------------------*\
| =========                 |                                                 |
| \\      /  F ield         | OpenFOAM: The Open Source CFD Toolbox           |
|  \\    /   O peration     | Version:  3.0.0                                 |
|   \\  /    A nd           | Web:      www.OpenFOAM.org                      |
|    \\/     M anipulation  |                                                 |
\*---------------------------------------------------------------------------*/
FoamFile
{
    version     2.0;
    format      ascii;
    class       volScalarField;
    location    "3";
    object      p;
}
// * * * * * * * * * * * * * * * * * * * * * * * * * * * * * * * * * * * * * //

dimensions      [0 2 -2 0 0 0 0];

internalField   nonuniform List<scalar> 
400
(
1.83287e-07
-2.11629e-06
-7.33709e-06
3.26347e-06
1.52279e-05
0.000118087
6.0151e-05
-0.000643363
-0.00164196
-0.00246631
-0.00297224
-0.00307121
-0.0027294
-0.00193866
-0.000656982
0.00110014
0.0032028
0.0053299
0.0067747
0.00714764
-2.48451e-06
-7.12558e-06
-1.29994e-05
1.82784e-05
2.95633e-05
-0.000204721
-0.000712725
-0.00153744
-0.00244058
-0.00312336
-0.00355473
-0.00359879
-0.00329382
-0.00258798
-0.00145871
0.000115742
0.00207872
0.00416731
0.00584677
0.00666444
4.37606e-06
-1.85484e-05
-5.84992e-05
-0.00013755
-0.000408452
-0.000985792
-0.00182179
-0.00277149
-0.00362975
-0.00425232
-0.00454559
-0.00451278
-0.00416636
-0.00352727
-0.00258874
-0.00132127
0.000282123
0.00215405
0.00401037
0.00516396
2.87539e-05
-1.2394e-05
-0.000145504
-0.000475786
-0.00110194
-0.00203654
-0.00310455
-0.00408647
-0.00482358
-0.00526354
-0.00540068
-0.00528678
-0.00494208
-0.0043894
-0.00363723
-0.00266451
-0.00143707
8.89909e-05
0.00180515
0.00297532
-1.32731e-05
-7.92734e-05
-0.000344717
-0.00094073
-0.00192734
-0.00312508
-0.00428598
-0.00519214
-0.00581752
-0.00612864
-0.0061404
-0.0059429
-0.00558915
-0.00510433
-0.00449566
-0.00375659
-0.00285573
-0.00170741
-0.000290241
0.000771896
-0.000188647
-0.000278145
-0.000691572
-0.00151845
-0.00274254
-0.00408173
-0.00526902
-0.00611566
-0.00666798
-0.0068856
-0.00678539
-0.00649281
-0.0061088
-0.00566434
-0.00515746
-0.00458382
-0.00391961
-0.00309095
-0.0020873
-0.00112724
-0.000515498
-0.000626928
-0.00114655
-0.0021371
-0.00347163
-0.00487635
-0.00607498
-0.00689619
-0.00741503
-0.0075755
-0.00738493
-0.00697786
-0.00652337
-0.00608258
-0.00563979
-0.00517908
-0.00468079
-0.00408755
-0.00341309
-0.00261672
-0.000958594
-0.0010851
-0.00163324
-0.00269302
-0.00404848
-0.00548179
-0.00669797
-0.00752251
-0.00803518
-0.00817302
-0.00791551
-0.00738552
-0.00683173
-0.0063669
-0.00596112
-0.0055758
-0.00519023
-0.00474945
-0.00432166
-0.00366315
-0.0014112
-0.00155994
-0.00205658
-0.00311258
-0.00442145
-0.00584536
-0.00707015
-0.00790863
-0.0084162
-0.00853809
-0.00823216
-0.00759371
-0.00696742
-0.00649007
-0.00611893
-0.00578618
-0.00547665
-0.00510948
-0.00486213
-0.00431734
-0.00179857
-0.00195752
-0.00237249
-0.00334766
-0.0045415
-0.00591011
-0.00711378
-0.00795027
-0.00844221
-0.0085411
-0.00820627
-0.00752393
-0.0068839
-0.00642946
-0.006109
-0.00582338
-0.00558242
-0.00521332
-0.0051199
-0.00461261
-0.00207159
-0.00222919
-0.00259482
-0.00337038
-0.00441372
-0.00562218
-0.00675829
-0.00757624
-0.00804356
-0.0081218
-0.00778964
-0.00717069
-0.00659635
-0.00620322
-0.00594054
-0.00570693
-0.00553048
-0.00507737
-0.00516108
-0.00459786
-0.00222101
-0.0023593
-0.00265207
-0.00321995
-0.00404851
-0.00502991
-0.00601699
-0.00677746
-0.00721927
-0.00730964
-0.00705759
-0.00658875
-0.00615507
-0.00586233
-0.00566442
-0.0054752
-0.00532395
-0.00476572
-0.00506056
-0.00428874
-0.00227447
-0.00237519
-0.0025779
-0.00294922
-0.00354108
-0.00428358
-0.00507783
-0.0057458
-0.00617227
-0.00631842
-0.00620527
-0.00593733
-0.00567163
-0.00548148
-0.00533148
-0.0051615
-0.00500243
-0.00432812
-0.00484965
-0.00372342
-0.00228067
-0.00232395
-0.00242919
-0.00264723
-0.00303798
-0.00357273
-0.00419479
-0.00477313
-0.00520622
-0.00543376
-0.00546285
-0.0053656
-0.00523531
-0.00511411
-0.00498301
-0.00480286
-0.00461098
-0.00383304
-0.00450645
-0.00296401
-0.00225614
-0.00223402
-0.00224928
-0.00236312
-0.0026209
-0.00301976
-0.0035239
-0.00404273
-0.00448088
-0.00476559
-0.00490722
-0.00492931
-0.00487774
-0.00478692
-0.00464995
-0.00443252
-0.00417795
-0.0032919
-0.00399611
-0.00207483
-0.00221781
-0.00210681
-0.00204557
-0.00209256
-0.00228401
-0.00262213
-0.00307032
-0.00355576
-0.00399573
-0.00433038
-0.00452854
-0.0046066
-0.00459631
-0.00451482
-0.00435592
-0.00407441
-0.00371253
-0.00267429
-0.00328196
-0.000916563
-0.00217018
-0.00196546
-0.00183583
-0.00183356
-0.00199938
-0.00232355
-0.00275838
-0.00323823
-0.00368416
-0.00403141
-0.00425505
-0.00436764
-0.00438508
-0.00430382
-0.00411106
-0.00373365
-0.00319845
-0.00191435
-0.00212553
0.00157591
-0.00204831
-0.00177848
-0.00164038
-0.0015892
-0.00174296
-0.00207181
-0.00250985
-0.00298332
-0.00342948
-0.00379334
-0.00405096
-0.00419362
-0.00423041
-0.00414197
-0.00390261
-0.0033953
-0.00258599
-0.000849734
0.000296437
0.00794815
-0.00302604
-0.0023183
-0.00186225
-0.00156415
-0.00160938
-0.00189134
-0.00230957
-0.00277665
-0.00323064
-0.00361671
-0.00390898
-0.00407645
-0.00413109
-0.00403002
-0.00374966
-0.00309691
-0.00181682
0.000947845
0.00524655
0.0192411
-0.0010162
0.00124872
0.000698918
2.19951e-05
-0.00053261
-0.00105372
-0.00161085
-0.00219179
-0.00274064
-0.00321109
-0.00356324
-0.00378643
-0.0038466
-0.00371709
-0.00326144
-0.00234776
-0.000342848
0.00432784
0.0131865
0.0300188
)
;

boundaryField
{
    movingWall
    {
        type            zeroGradient;
    }
    fixedWalls
    {
        type            zeroGradient;
    }
    frontAndBack
    {
        type            empty;
    }
}


// ************************************************************************* //
