/*--------------------------------*- C++ -*----------------------------------*\
| =========                 |                                                 |
| \\      /  F ield         | OpenFOAM: The Open Source CFD Toolbox           |
|  \\    /   O peration     | Version:  3.0.0                                 |
|   \\  /    A nd           | Web:      www.OpenFOAM.org                      |
|    \\/     M anipulation  |                                                 |
\*---------------------------------------------------------------------------*/
FoamFile
{
    version     2.0;
    format      ascii;
    class       surfaceScalarField;
    location    "3";
    object      phi;
}
// * * * * * * * * * * * * * * * * * * * * * * * * * * * * * * * * * * * * * //

dimensions      [0 3 -1 0 0 0 0];

internalField   nonuniform List<scalar> 
760
(
5.52693e-08
-5.52874e-08
9.96379e-08
-4.43692e-08
7.61562e-08
2.34808e-08
-7.58881e-08
1.52044e-07
-4.9881e-07
4.22921e-07
-1.49191e-06
9.93098e-07
-2.91651e-06
1.42461e-06
-4.15989e-06
1.24338e-06
-5.04063e-06
8.8074e-07
-5.69608e-06
6.55448e-07
-6.06329e-06
3.67206e-07
-6.25171e-06
1.8842e-07
-6.23789e-06
-1.38143e-08
-6.03391e-06
-2.03981e-07
-5.63962e-06
-3.9429e-07
-4.9492e-06
-6.9042e-07
-3.94491e-06
-1.00429e-06
-2.55395e-06
-1.39096e-06
-9.75401e-07
-1.57855e-06
-9.75402e-07
8.10927e-09
-6.33969e-08
-6.09025e-08
2.46421e-08
-3.36618e-07
2.99196e-07
-1.05985e-06
8.75273e-07
-2.40822e-06
1.77129e-06
-3.90243e-06
2.48731e-06
-4.86098e-06
2.38316e-06
-5.46578e-06
1.84817e-06
-6.0151e-06
1.43006e-06
-6.33756e-06
9.77906e-07
-6.53963e-06
5.69275e-07
-6.55616e-06
2.04953e-07
-6.43579e-06
-1.34183e-07
-6.2033e-06
-4.36477e-07
-5.79508e-06
-8.02503e-07
-5.2191e-06
-1.2664e-06
-4.35996e-06
-1.86344e-06
-3.14568e-06
-2.60523e-06
-1.57563e-06
-3.14861e-06
-2.55103e-06
-1.29655e-07
6.62589e-08
-4.37967e-07
3.32954e-07
-1.12052e-06
9.81748e-07
-2.32519e-06
2.07994e-06
-3.60009e-06
3.04619e-06
-4.42302e-06
3.31024e-06
-4.92927e-06
2.88941e-06
-5.28533e-06
2.20423e-06
-5.47714e-06
1.62187e-06
-5.51808e-06
1.01885e-06
-5.45405e-06
5.05241e-07
-5.34435e-06
9.52572e-08
-5.18854e-06
-2.89996e-07
-4.97273e-06
-6.52283e-07
-4.67916e-06
-1.09607e-06
-4.29283e-06
-1.65273e-06
-3.73611e-06
-2.42016e-06
-2.90096e-06
-3.44038e-06
-1.65735e-06
-4.39222e-06
-4.20838e-06
-3.2957e-07
3.95829e-07
-9.08334e-07
9.11718e-07
-1.83513e-06
1.90855e-06
-2.95277e-06
3.19758e-06
-3.74962e-06
3.84304e-06
-4.2152e-06
3.77581e-06
-4.42078e-06
3.095e-06
-4.51067e-06
2.29412e-06
-4.50056e-06
1.61176e-06
-4.41616e-06
9.34438e-07
-4.29337e-06
3.82454e-07
-4.12421e-06
-7.38996e-08
-3.93959e-06
-4.74617e-07
-3.72757e-06
-8.64309e-07
-3.49173e-06
-1.3319e-06
-3.21597e-06
-1.92849e-06
-2.87376e-06
-2.76238e-06
-2.35314e-06
-3.961e-06
-1.40412e-06
-5.34124e-06
-5.6125e-06
-4.81713e-07
8.77543e-07
-1.17622e-06
1.60623e-06
-2.09524e-06
2.82756e-06
-2.89426e-06
3.9966e-06
-3.37047e-06
4.31925e-06
-3.61608e-06
4.02142e-06
-3.68923e-06
3.16814e-06
-3.71876e-06
2.32365e-06
-3.68871e-06
1.58171e-06
-3.58461e-06
8.30336e-07
-3.40249e-06
2.00331e-07
-3.17545e-06
-3.00936e-07
-2.95673e-06
-6.93335e-07
-2.74504e-06
-1.076e-06
-2.53606e-06
-1.54089e-06
-2.32185e-06
-2.1427e-06
-2.08936e-06
-2.99487e-06
-1.78064e-06
-4.26971e-06
-1.13595e-06
-5.98593e-06
-6.74845e-06
-5.34662e-07
1.41221e-06
-1.21991e-06
2.29148e-06
-1.96476e-06
3.57241e-06
-2.45781e-06
4.48965e-06
-2.76972e-06
4.63117e-06
-2.92848e-06
4.18018e-06
-2.99812e-06
3.23778e-06
-3.04281e-06
2.36835e-06
-3.02459e-06
1.56349e-06
-2.91843e-06
7.2418e-07
-2.69272e-06
-2.53845e-08
-2.41537e-06
-5.78283e-07
-2.17115e-06
-9.37552e-07
-1.97069e-06
-1.27646e-06
-1.79691e-06
-1.71468e-06
-1.63736e-06
-2.30225e-06
-1.48561e-06
-3.14661e-06
-1.31176e-06
-4.44357e-06
-8.76475e-07
-6.42122e-06
-7.62493e-06
-4.83522e-07
1.89573e-06
-1.05731e-06
2.86527e-06
-1.57064e-06
4.08573e-06
-1.87766e-06
4.79667e-06
-2.08918e-06
4.84269e-06
-2.21624e-06
4.30724e-06
-2.31876e-06
3.3403e-06
-2.39265e-06
2.44224e-06
-2.40016e-06
1.571e-06
-2.31068e-06
6.34697e-07
-2.09044e-06
-2.4562e-07
-1.79184e-06
-8.7689e-07
-1.53013e-06
-1.19926e-06
-1.34803e-06
-1.45855e-06
-1.21799e-06
-1.84472e-06
-1.11555e-06
-2.40469e-06
-1.02643e-06
-3.23573e-06
-9.12666e-07
-4.55733e-06
-6.91871e-07
-6.64201e-06
-8.3168e-06
-3.54774e-07
2.2505e-06
-7.64868e-07
3.27536e-06
-1.04503e-06
4.3659e-06
-1.21578e-06
4.96742e-06
-1.34972e-06
4.97662e-06
-1.45885e-06
4.41638e-06
-1.5714e-06
3.45284e-06
-1.64831e-06
2.51916e-06
-1.66159e-06
1.58428e-06
-1.59958e-06
5.72696e-07
-1.43556e-06
-4.09643e-07
-1.18916e-06
-1.12329e-06
-9.62766e-07
-1.42566e-06
-8.25096e-07
-1.59622e-06
-7.50425e-07
-1.91939e-06
-7.08019e-07
-2.4471e-06
-6.82193e-07
-3.26155e-06
-6.36511e-07
-4.60301e-06
-5.23491e-07
-6.75503e-06
-8.84029e-06
-2.0376e-07
2.45426e-06
-4.20861e-07
3.49246e-06
-4.92454e-07
4.43749e-06
-5.56064e-07
5.03103e-06
-5.84829e-07
5.00538e-06
-6.47258e-07
4.47881e-06
-7.32755e-07
3.53834e-06
-7.79694e-07
2.5661e-06
-7.7245e-07
1.57703e-06
-7.25486e-07
5.25732e-07
-6.27147e-07
-5.07982e-07
-4.92671e-07
-1.25776e-06
-3.95165e-07
-1.52317e-06
-3.54649e-07
-1.63674e-06
-3.56864e-07
-1.91718e-06
-3.83484e-07
-2.42048e-06
-4.26478e-07
-3.21856e-06
-4.46786e-07
-4.5827e-06
-4.18298e-07
-6.78352e-06
-9.25859e-06
-2.26638e-08
2.47693e-06
-8.06973e-08
3.5505e-06
5.06562e-09
4.35173e-06
8.89826e-08
4.94712e-06
1.84573e-07
4.90979e-06
2.0982e-07
4.45356e-06
1.82999e-07
3.56516e-06
1.74631e-07
2.57446e-06
2.02717e-07
1.54895e-06
2.35054e-07
4.93395e-07
2.61547e-07
-5.34475e-07
2.41624e-07
-1.23784e-06
1.68533e-07
-1.45007e-06
8.12613e-08
-1.54946e-06
-1.06045e-08
-1.82531e-06
-1.11895e-07
-2.31919e-06
-2.19763e-07
-3.11069e-06
-2.9461e-07
-4.50785e-06
-3.29279e-07
-6.74885e-06
-9.58787e-06
9.81526e-08
2.37878e-06
1.76789e-07
3.47186e-06
4.26072e-07
4.10245e-06
7.06982e-07
4.66621e-06
9.35602e-07
4.68117e-06
1.08118e-06
4.30798e-06
1.13188e-06
3.51446e-06
1.16253e-06
2.54381e-06
1.18765e-06
1.52383e-06
1.17523e-06
5.05816e-07
1.09288e-06
-4.52129e-07
9.07814e-07
-1.05277e-06
6.80082e-07
-1.22234e-06
4.7628e-07
-1.34566e-06
2.93315e-07
-1.64235e-06
1.20911e-07
-2.14679e-06
-3.49944e-08
-2.95479e-06
-1.85783e-07
-4.35707e-06
-2.79924e-07
-6.65471e-06
-9.86779e-06
1.98522e-07
2.18025e-06
3.61505e-07
3.30888e-06
6.73633e-07
3.79032e-06
1.11276e-06
4.22708e-06
1.4947e-06
4.29923e-06
1.79406e-06
4.00862e-06
1.96102e-06
3.3475e-06
2.03736e-06
2.46747e-06
2.05399e-06
1.5072e-06
1.98372e-06
5.76086e-07
1.77202e-06
-2.40432e-07
1.43091e-06
-7.11653e-07
1.0876e-06
-8.79041e-07
8.03365e-07
-1.06142e-06
5.55963e-07
-1.39494e-06
3.26992e-07
-1.91781e-06
1.07801e-07
-2.7356e-06
-9.59126e-08
-4.15335e-06
-2.39553e-07
-6.51107e-06
-1.01073e-05
2.51801e-07
1.92845e-06
4.56384e-07
3.1043e-06
7.6955e-07
3.47715e-06
1.25365e-06
3.74299e-06
1.74872e-06
3.80415e-06
2.17494e-06
3.58241e-06
2.46096e-06
3.06149e-06
2.59963e-06
2.3288e-06
2.60622e-06
1.50061e-06
2.4691e-06
7.13209e-07
2.16404e-06
6.46315e-08
1.75275e-06
-3.00363e-07
1.38011e-06
-5.06399e-07
1.06759e-06
-7.48908e-07
7.83726e-07
-1.11108e-06
5.10562e-07
-1.64465e-06
2.38222e-07
-2.46326e-06
-2.86829e-08
-3.88645e-06
-1.86583e-07
-6.35317e-06
-1.02939e-05
2.49419e-07
1.67903e-06
4.82869e-07
2.87085e-06
7.74646e-07
3.18538e-06
1.21262e-06
3.30501e-06
1.71953e-06
3.29724e-06
2.19637e-06
3.10557e-06
2.55339e-06
2.70446e-06
2.74586e-06
2.13633e-06
2.76066e-06
1.48581e-06
2.61502e-06
8.58855e-07
2.30241e-06
3.77235e-07
1.93533e-06
6.67176e-08
1.60143e-06
-1.725e-07
1.29643e-06
-4.43903e-07
9.97312e-07
-8.1196e-07
6.93626e-07
-1.34096e-06
3.81692e-07
-2.15132e-06
8.27391e-08
-3.58749e-06
-8.45587e-08
-6.18587e-06
-1.03785e-05
1.80186e-07
1.49885e-06
4.15729e-07
2.6353e-06
7.0068e-07
2.90042e-06
1.08599e-06
2.9197e-06
1.54644e-06
2.83679e-06
2.00755e-06
2.64446e-06
2.38572e-06
2.3263e-06
2.62716e-06
1.8949e-06
2.68713e-06
1.42584e-06
2.57659e-06
9.69392e-07
2.34491e-06
6.0892e-07
2.07701e-06
3.34619e-07
1.80614e-06
9.83709e-08
1.52651e-06
-1.64276e-07
1.22618e-06
-5.11633e-07
9.0286e-07
-1.01764e-06
5.60263e-07
-1.80872e-06
2.4255e-07
-3.26978e-06
5.25943e-08
-5.99591e-06
-1.03259e-05
1.03718e-07
1.39513e-06
3.46483e-07
2.39254e-06
6.48356e-07
2.59855e-06
1.01686e-06
2.5512e-06
1.43615e-06
2.4175e-06
1.85668e-06
2.22393e-06
2.2165e-06
1.96648e-06
2.45908e-06
1.65232e-06
2.57078e-06
1.31413e-06
2.5472e-06
9.9297e-07
2.42836e-06
7.27764e-07
2.25649e-06
5.06486e-07
2.04953e-06
3.05332e-07
1.8075e-06
7.77544e-08
1.5194e-06
-2.23532e-07
1.18506e-06
-6.83301e-07
8.13332e-07
-1.437e-06
4.47477e-07
-2.90393e-06
1.71804e-07
-5.72024e-06
-1.01541e-05
-1.05838e-07
1.50097e-06
1.6427e-07
2.12243e-06
5.32898e-07
2.22992e-06
9.52158e-07
2.13194e-06
1.38419e-06
1.98547e-06
1.79689e-06
1.81123e-06
2.15391e-06
1.60945e-06
2.42611e-06
1.38013e-06
2.59353e-06
1.14671e-06
2.65278e-06
9.33715e-07
2.62897e-06
7.5157e-07
2.54481e-06
5.90652e-07
2.41048e-06
4.39665e-07
2.22507e-06
2.63157e-07
1.97147e-06
3.00741e-08
1.64813e-06
-3.59965e-07
1.24225e-06
-1.03112e-06
7.80524e-07
-2.4422e-06
3.48859e-07
-5.28857e-06
-9.80523e-06
-3.04886e-07
1.80585e-06
-2.51995e-09
1.82006e-06
4.46228e-07
1.78118e-06
9.4862e-07
1.62955e-06
1.44569e-06
1.48839e-06
1.91019e-06
1.34673e-06
2.31681e-06
1.20284e-06
2.64414e-06
1.05279e-06
2.87758e-06
9.13276e-07
3.03057e-06
7.8072e-07
3.11378e-06
6.68361e-07
3.14091e-06
5.63525e-07
3.10899e-06
4.71581e-07
3.01829e-06
3.53855e-07
2.84584e-06
2.02524e-07
2.58889e-06
-1.03012e-07
2.16725e-06
-6.09481e-07
1.59281e-06
-1.86776e-06
7.786e-07
-4.47436e-06
-9.02663e-06
-3.93666e-07
2.19952e-06
2.71423e-08
1.39926e-06
7.36944e-07
1.07137e-06
1.45236e-06
9.14129e-07
2.10672e-06
8.3403e-07
2.69662e-06
7.56843e-07
3.21407e-06
6.85382e-07
3.65801e-06
6.08852e-07
4.02237e-06
5.48918e-07
4.32299e-06
4.80104e-07
4.55497e-06
4.36382e-07
4.74633e-06
3.72166e-07
4.8745e-06
3.43404e-07
4.97116e-06
2.57201e-07
4.97107e-06
2.02609e-07
4.85317e-06
1.48937e-08
4.55154e-06
-3.07853e-07
3.87881e-06
-1.19503e-06
2.26475e-06
-2.86031e-06
-6.76188e-06
2.19952e-06
3.59878e-06
4.67015e-06
5.58428e-06
6.41831e-06
7.17515e-06
7.86053e-06
8.46939e-06
9.0183e-06
9.49841e-06
9.93479e-06
1.0307e-05
1.06504e-05
1.09076e-05
1.11102e-05
1.11251e-05
1.08172e-05
9.62218e-06
6.76188e-06
)
;

boundaryField
{
    movingWall
    {
        type            calculated;
        value           uniform 0;
    }
    fixedWalls
    {
        type            calculated;
        value           uniform 0;
    }
    frontAndBack
    {
        type            empty;
        value           nonuniform 0();
    }
}


// ************************************************************************* //
