/*--------------------------------*- C++ -*----------------------------------*\
| =========                 |                                                 |
| \\      /  F ield         | OpenFOAM: The Open Source CFD Toolbox           |
|  \\    /   O peration     | Version:  3.0.0                                 |
|   \\  /    A nd           | Web:      www.OpenFOAM.org                      |
|    \\/     M anipulation  |                                                 |
\*---------------------------------------------------------------------------*/
FoamFile
{
    version     2.0;
    format      ascii;
    class       volVectorField;
    location    "3";
    object      U;
}
// * * * * * * * * * * * * * * * * * * * * * * * * * * * * * * * * * * * * * //

dimensions      [0 1 -1 0 0 0 0];

internalField   nonuniform List<vector> 
400
(
(0.000570839 -0.000657258 0)
(0.00165436 -0.00064075 0)
(0.0021485 -0.000196435 0)
(0.000864866 0.000319079 0)
(-0.0041987 0.000623164 0)
(-0.0148904 0.00319483 0)
(-0.0412197 0.0138932 0)
(-0.0774209 0.0152795 0)
(-0.0945943 0.00831312 0)
(-0.110442 0.0091707 0)
(-0.119058 0.00426744 0)
(-0.124132 0.0035741 0)
(-0.125967 0.00115128 0)
(-0.123986 -0.00171477 0)
(-0.117285 -0.00353388 0)
(-0.105753 -0.00748358 0)
(-0.0878688 -0.00976753 0)
(-0.0634873 -0.0131004 0)
(-0.0346717 -0.0136358 0)
(-0.00782925 -0.00306978 0)
(0.000328299 -0.00166945 0)
(-2.59478e-06 -0.00119892 0)
(-0.00263762 0.001224 0)
(-0.0107922 0.00642715 0)
(-0.0297113 0.0181227 0)
(-0.0654818 0.0382186 0)
(-0.0889461 0.0399786 0)
(-0.106817 0.0309679 0)
(-0.116263 0.0244527 0)
(-0.125762 0.0156856 0)
(-0.129689 0.00941199 0)
(-0.132086 0.00334112 0)
(-0.130814 -0.00195607 0)
(-0.127198 -0.00759836 0)
(-0.120774 -0.0140317 0)
(-0.109974 -0.0226261 0)
(-0.0951055 -0.0331334 0)
(-0.0737021 -0.0451923 0)
(-0.047373 -0.0502168 0)
(-0.0167816 -0.0329462 0)
(-0.000556913 -0.000880571 0)
(-0.00458024 0.00209714 0)
(-0.0127072 0.010886 0)
(-0.030789 0.0290399 0)
(-0.0604072 0.0506824 0)
(-0.0827795 0.0586445 0)
(-0.0959663 0.0530604 0)
(-0.103964 0.0403666 0)
(-0.109646 0.0302504 0)
(-0.111021 0.0204943 0)
(-0.109735 0.0111268 0)
(-0.108131 0.00346687 0)
(-0.105259 -0.00439726 0)
(-0.102105 -0.0114684 0)
(-0.0970345 -0.0203088 0)
(-0.0902702 -0.0312591 0)
(-0.0803512 -0.0460422 0)
(-0.065765 -0.0647564 0)
(-0.0446499 -0.0808091 0)
(-0.018274 -0.0726598 0)
(-0.00202512 0.00385059 0)
(-0.0106953 0.0119353 0)
(-0.024427 0.0294351 0)
(-0.0475743 0.0543739 0)
(-0.0695863 0.0702017 0)
(-0.082309 0.0708192 0)
(-0.0889581 0.0594724 0)
(-0.0903474 0.0451218 0)
(-0.0912904 0.0328267 0)
(-0.0889885 0.0197981 0)
(-0.0871307 0.00924175 0)
(-0.0841223 0.000501156 0)
(-0.080562 -0.00746169 0)
(-0.0768185 -0.0152242 0)
(-0.0724367 -0.0244983 0)
(-0.0676721 -0.0363463 0)
(-0.0616192 -0.0530661 0)
(-0.0521559 -0.076379 0)
(-0.036921 -0.10013 0)
(-0.0154896 -0.102101 0)
(-0.00339302 0.0126141 0)
(-0.0149433 0.0253465 0)
(-0.0304677 0.0478072 0)
(-0.0521533 0.073514 0)
(-0.0647354 0.0820176 0)
(-0.0730078 0.0779658 0)
(-0.0745301 0.0625953 0)
(-0.0742551 0.0464327 0)
(-0.074899 0.0322509 0)
(-0.0727339 0.0179253 0)
(-0.0697897 0.00623524 0)
(-0.0655428 -0.00336824 0)
(-0.0611425 -0.0114982 0)
(-0.0570077 -0.0194376 0)
(-0.0528447 -0.0288752 0)
(-0.04889 -0.0409512 0)
(-0.0448015 -0.0580642 0)
(-0.0391035 -0.0839116 0)
(-0.0284088 -0.116308 0)
(-0.0136167 -0.126523 0)
(-0.0039484 0.0227447 0)
(-0.0160507 0.0391131 0)
(-0.0313164 0.0645806 0)
(-0.0468004 0.0853309 0)
(-0.0536243 0.0895277 0)
(-0.059915 0.0818435 0)
(-0.0598208 0.0638119 0)
(-0.0603004 0.0467697 0)
(-0.0615283 0.0312906 0)
(-0.059646 0.015509 0)
(-0.0558923 0.00204964 0)
(-0.0505514 -0.00842019 0)
(-0.0455072 -0.0160943 0)
(-0.0412898 -0.023518 0)
(-0.0376012 -0.0326355 0)
(-0.0344683 -0.0444965 0)
(-0.0316042 -0.0612484 0)
(-0.027985 -0.0866038 0)
(-0.0228121 -0.125082 0)
(-0.00868065 -0.145202 0)
(-0.00359068 0.032979 0)
(-0.0142405 0.0515438 0)
(-0.0267606 0.0770306 0)
(-0.036706 0.0929928 0)
(-0.0404348 0.0946028 0)
(-0.045491 0.0844631 0)
(-0.0454438 0.0652057 0)
(-0.0470148 0.0475402 0)
(-0.0488518 0.0306818 0)
(-0.047493 0.0129224 0)
(-0.0437086 -0.00316809 0)
(-0.0380381 -0.0151102 0)
(-0.0326623 -0.0216627 0)
(-0.028566 -0.0275797 0)
(-0.0255378 -0.0358333 0)
(-0.0233426 -0.0473364 0)
(-0.0216667 -0.0641418 0)
(-0.0192916 -0.0904714 0)
(-0.0176906 -0.131067 0)
(-0.00677462 -0.160196 0)
(-0.00230151 0.0413135 0)
(-0.0105908 0.061343 0)
(-0.0187401 0.0848873 0)
(-0.0243186 0.0978484 0)
(-0.026052 0.0982362 0)
(-0.0299823 0.0869661 0)
(-0.0303234 0.067542 0)
(-0.0321925 0.0490659 0)
(-0.0339503 0.0309064 0)
(-0.0329935 0.0113614 0)
(-0.0299911 -0.00738195 0)
(-0.0253447 -0.0210604 0)
(-0.020979 -0.0270058 0)
(-0.0176988 -0.0310173 0)
(-0.0156409 -0.0379798 0)
(-0.014535 -0.0487718 0)
(-0.0141105 -0.0650752 0)
(-0.0127438 -0.0914787 0)
(-0.0140047 -0.133791 0)
(-0.00417784 -0.171581 0)
(-0.00106439 0.0474873 0)
(-0.00629352 0.0679399 0)
(-0.00925363 0.0885663 0)
(-0.0117888 0.100211 0)
(-0.0115588 0.100359 0)
(-0.0133793 0.0891276 0)
(-0.0138702 0.069801 0)
(-0.0152524 0.0506337 0)
(-0.0161669 0.0313334 0)
(-0.0151606 0.0106186 0)
(-0.0131676 -0.00977595 0)
(-0.0102132 -0.0244755 0)
(-0.00857627 -0.0301869 0)
(-0.00752086 -0.0328578 0)
(-0.00706829 -0.0387702 0)
(-0.00731877 -0.0489997 0)
(-0.00840273 -0.0650702 0)
(-0.0078681 -0.0921746 0)
(-0.0115529 -0.135421 0)
(-0.00277369 -0.181031 0)
(0.00138119 0.0498695 0)
(-0.00208878 0.0708731 0)
(-0.000443473 0.0883137 0)
(0.000451945 0.100686 0)
(0.00274785 0.100085 0)
(0.00356422 0.0902467 0)
(0.00384683 0.0716373 0)
(0.00329409 0.0517693 0)
(0.00336127 0.0314361 0)
(0.00442795 0.0101677 0)
(0.00559862 -0.0106211 0)
(0.00629518 -0.0253761 0)
(0.00420654 -0.0302047 0)
(0.0022448 -0.0322738 0)
(0.000659334 -0.0377646 0)
(-0.00106583 -0.0476659 0)
(-0.00385989 -0.0635144 0)
(-0.00387803 -0.0909636 0)
(-0.00965281 -0.135029 0)
(-0.00124413 -0.188313 0)
(0.0022973 0.049075 0)
(0.00189471 0.0708353 0)
(0.00595083 0.0852201 0)
(0.0108099 0.0975961 0)
(0.0163597 0.0973542 0)
(0.0195067 0.0894033 0)
(0.0217087 0.0724907 0)
(0.0226051 0.0524134 0)
(0.0232913 0.0314876 0)
(0.0240219 0.0102345 0)
(0.0242733 -0.00994277 0)
(0.0217296 -0.0230314 0)
(0.0158393 -0.0269226 0)
(0.0110195 -0.0291809 0)
(0.00749289 -0.0349139 0)
(0.00436509 -0.0448875 0)
(-0.000243199 -0.060879 0)
(-0.000460425 -0.0887815 0)
(-0.00888453 -0.134022 0)
(0.000121752 -0.194607 0)
(0.0029608 0.0464962 0)
(0.00518142 0.0686795 0)
(0.00997106 0.0797169 0)
(0.0175092 0.0903152 0)
(0.0259592 0.091807 0)
(0.0323896 0.0853795 0)
(0.0371283 0.070903 0)
(0.0396706 0.0519618 0)
(0.0410501 0.0317087 0)
(0.0411704 0.0114332 0)
(0.0396013 -0.00697455 0)
(0.0334191 -0.017636 0)
(0.0248764 -0.0209716 0)
(0.0183259 -0.0241308 0)
(0.0133638 -0.0304996 0)
(0.0090159 -0.0408089 0)
(0.00286886 -0.0570688 0)
(0.00293675 -0.0851606 0)
(-0.00859163 -0.131714 0)
(0.00182736 -0.199409 0)
(0.00317576 0.0414546 0)
(0.00699272 0.0645108 0)
(0.0117485 0.0728408 0)
(0.0197801 0.0799865 0)
(0.0299033 0.0819118 0)
(0.0389844 0.077159 0)
(0.0461204 0.0655166 0)
(0.0506021 0.0493796 0)
(0.0525005 0.0308895 0)
(0.0518088 0.0131938 0)
(0.0481171 -0.00179297 0)
(0.0398262 -0.00987127 0)
(0.0309422 -0.0136383 0)
(0.0240773 -0.0180389 0)
(0.0183469 -0.0251003 0)
(0.0131533 -0.0357345 0)
(0.00574658 -0.052128 0)
(0.00628646 -0.0805006 0)
(-0.0087838 -0.129007 0)
(0.00441461 -0.203626 0)
(0.00267985 0.0360171 0)
(0.00755925 0.0601714 0)
(0.0122488 0.0669165 0)
(0.0193621 0.0703315 0)
(0.029089 0.070847 0)
(0.0390415 0.066816 0)
(0.0474212 0.057733 0)
(0.0534008 0.0447528 0)
(0.0554665 0.0298671 0)
(0.0549585 0.0157962 0)
(0.0502406 0.00456833 0)
(0.0425846 -0.00194439 0)
(0.0351725 -0.00650057 0)
(0.0288148 -0.0117877 0)
(0.0228712 -0.0192027 0)
(0.0172002 -0.0299064 0)
(0.00877514 -0.0462621 0)
(0.00987771 -0.0748667 0)
(-0.00894133 -0.125499 0)
(0.00802569 -0.207027 0)
(0.00144072 0.0316498 0)
(0.00618372 0.0547165 0)
(0.0110076 0.0604951 0)
(0.0174847 0.0617141 0)
(0.0260152 0.0606304 0)
(0.0353931 0.0567395 0)
(0.0440044 0.0496356 0)
(0.0503282 0.039766 0)
(0.0539805 0.0290333 0)
(0.053455 0.018189 0)
(0.0497186 0.0101618 0)
(0.0444275 0.00443354 0)
(0.0388683 -0.000433518 0)
(0.0333562 -0.0058993 0)
(0.0275524 -0.0131713 0)
(0.0217021 -0.0236273 0)
(0.0124413 -0.0397504 0)
(0.0141648 -0.0688609 0)
(-0.00872624 -0.1224 0)
(0.0130271 -0.21048 0)
(0.000239073 0.0283078 0)
(0.00445412 0.051186 0)
(0.00991029 0.0559493 0)
(0.0164036 0.0551408 0)
(0.0242471 0.0524886 0)
(0.0327894 0.0483084 0)
(0.0408355 0.0424341 0)
(0.0470651 0.0350628 0)
(0.0507651 0.027241 0)
(0.0518104 0.0198177 0)
(0.0501875 0.0137425 0)
(0.0471199 0.008786 0)
(0.0432205 0.00433841 0)
(0.0387298 -0.000645377 0)
(0.0333595 -0.00724993 0)
(0.0276278 -0.0170584 0)
(0.017583 -0.0326966 0)
(0.0200188 -0.062403 0)
(-0.00808674 -0.119635 0)
(0.0191219 -0.213295 0)
(-0.00342874 0.0267699 0)
(-7.93849e-05 0.0438331 0)
(0.00697587 0.0481084 0)
(0.014744 0.0468064 0)
(0.0231828 0.0439069 0)
(0.031741 0.0401516 0)
(0.0396169 0.035581 0)
(0.0459765 0.0302877 0)
(0.050652 0.0246291 0)
(0.052937 0.0195236 0)
(0.0532143 0.0151453 0)
(0.052016 0.0113487 0)
(0.0497414 0.00779371 0)
(0.0466021 0.00369713 0)
(0.0420229 -0.0017539 0)
(0.0369869 -0.0103584 0)
(0.0264319 -0.025082 0)
(0.0292218 -0.0548573 0)
(-0.00640337 -0.115009 0)
(0.0274005 -0.21113 0)
(-0.00600952 0.0381894 0)
(-0.0048641 0.0456039 0)
(0.00472287 0.0442673 0)
(0.0138628 0.0402838 0)
(0.0238113 0.0364489 0)
(0.033532 0.0326911 0)
(0.0423856 0.0288991 0)
(0.0498974 0.0249881 0)
(0.055553 0.0213408 0)
(0.0593996 0.0178869 0)
(0.0617305 0.0149031 0)
(0.0628516 0.0122294 0)
(0.0626413 0.00976849 0)
(0.0615502 0.00681082 0)
(0.0584627 0.00302311 0)
(0.0551689 -0.00385102 0)
(0.0452926 -0.0165301 0)
(0.0471403 -0.0452677 0)
(0.00319325 -0.104064 0)
(0.0422015 -0.190959 0)
(-0.00565656 0.0236165 0)
(-0.00776252 0.0155776 0)
(0.00863259 0.0177958 0)
(0.0218839 0.0186894 0)
(0.0354805 0.0188068 0)
(0.048079 0.0180311 0)
(0.0591716 0.0167738 0)
(0.0689597 0.0151851 0)
(0.0769605 0.0136184 0)
(0.0837417 0.0120254 0)
(0.0889055 0.0106439 0)
(0.0933536 0.00929216 0)
(0.0961195 0.00809432 0)
(0.0986703 0.0064021 0)
(0.098771 0.00406038 0)
(0.0984531 -0.00112693 0)
(0.0912999 -0.00968446 0)
(0.0905065 -0.0330075 0)
(0.044477 -0.0776696 0)
(0.0765297 -0.144298 0)
(0.0481632 0.0768195 0)
(0.0522696 0.0535021 0)
(0.0810972 0.0347823 0)
(0.103429 0.0246579 0)
(0.121005 0.019625 0)
(0.1366 0.0163258 0)
(0.150343 0.0140751 0)
(0.163507 0.0120442 0)
(0.174768 0.0107748 0)
(0.185505 0.00922345 0)
(0.194266 0.00862118 0)
(0.202629 0.00713062 0)
(0.209241 0.00714224 0)
(0.215102 0.00528838 0)
(0.219617 0.00568501 0)
(0.221745 0.00229106 0)
(0.21885 0.000303074 0)
(0.208808 -0.00612941 0)
(0.163953 -0.0167765 0)
(0.153366 -0.095657 0)
)
;

boundaryField
{
    movingWall
    {
        type            fixedValue;
        value           uniform (1 0 0);
    }
    fixedWalls
    {
        type            fixedValue;
        value           uniform (0 0 0);
    }
    frontAndBack
    {
        type            empty;
    }
}


// ************************************************************************* //
