/*--------------------------------*- C++ -*----------------------------------*\
| =========                 |                                                 |
| \\      /  F ield         | OpenFOAM: The Open Source CFD Toolbox           |
|  \\    /   O peration     | Version:  3.0.0                                 |
|   \\  /    A nd           | Web:      www.OpenFOAM.org                      |
|    \\/     M anipulation  |                                                 |
\*---------------------------------------------------------------------------*/
FoamFile
{
    version     2.0;
    format      ascii;
    class       volScalarField;
    location    "9.5";
    object      p;
}
// * * * * * * * * * * * * * * * * * * * * * * * * * * * * * * * * * * * * * //

dimensions      [0 2 -2 0 0 0 0];

internalField   nonuniform List<scalar> 
4096
(
0.00421161
0.0100768
0.0178096
0.0238753
0.0267828
0.0254495
0.0196872
0.0105086
-0.000231221
-0.010423
-0.0182845
-0.0225587
-0.0230779
-0.0202624
-0.0149627
-0.00502647
0.0114634
0.0196361
0.0264827
0.0298252
0.029241
0.0247389
0.0167088
0.00612243
-0.00535313
-0.0157982
-0.0233835
-0.0268138
-0.0256284
-0.0202632
-0.0116724
0.000831341
0.0210937
0.0265178
0.0312204
0.0319207
0.0287197
0.0220923
0.0127207
0.00174235
-0.00925336
-0.0184234
-0.0240306
-0.0248893
-0.0207668
-0.0126555
-0.00210151
0.0125138
0.0277503
0.0282365
0.0300184
0.0280226
0.0229288
0.0155375
0.00651607
-0.00318729
-0.0122563
-0.0191283
-0.0222395
-0.0204998
-0.0139205
-0.00411316
0.00688335
0.0225406
0.0291355
0.0239307
0.0221985
0.0178639
0.0119689
0.00541467
-0.00140407
-0.00798584
-0.0135872
-0.0171521
-0.0174396
-0.013505
-0.00555686
0.00434685
0.0138314
0.0277889
0.0245942
0.0142563
0.00880823
0.00296563
-0.00232508
-0.00637058
-0.0092868
-0.0112392
-0.0122252
-0.0118383
-0.00926962
-0.00381236
0.00416777
0.0124112
0.0185092
0.0272794
0.0157647
0.00171345
-0.00695233
-0.0133807
-0.0168064
-0.0171721
-0.0152
-0.0118735
-0.00795293
-0.00366539
0.00134902
0.00751638
0.0142931
0.0195422
0.0210331
0.0221222
0.00587185
-0.0106005
-0.0214516
-0.0273888
-0.0282463
-0.0245937
-0.0178571
-0.00973961
-0.00164903
0.00571082
0.0123853
0.0185113
0.0233839
0.02509
0.0218091
0.0152876
-0.00214596
-0.0203676
-0.0316125
-0.0361386
-0.0343187
-0.0272436
-0.0168883
-0.00545543
0.0052214
0.0142255
0.0214767
0.0269245
0.0297366
0.0281601
0.020871
0.00994811
-0.00678108
-0.0266561
-0.0359188
-0.0382198
-0.0341001
-0.0247704
-0.0125668
7.95027e-05
0.011262
0.0201472
0.0267292
0.0308852
0.0317671
0.0276491
0.0175237
0.00771356
-0.00870163
-0.0296312
-0.0347208
-0.0341589
-0.0282566
-0.0179921
-0.00585169
0.00583159
0.0154417
0.0224817
0.0271506
0.0294146
0.028543
0.0227726
0.0109907
0.00679502
-0.00896841
-0.0295956
-0.029654
-0.0259905
-0.0187483
-0.00871253
0.00175687
0.0107207
0.0171413
0.0210201
0.0228432
0.0227433
0.0202789
0.0136679
0.00166705
0.00475542
-0.00913875
-0.0267403
-0.022345
-0.0159198
-0.00788299
0.00100509
0.00868768
0.0138562
0.0161897
0.0162376
0.0147926
0.0122247
0.00843305
0.00187994
-0.00874774
-0.000160343
-0.00947462
-0.0210617
-0.0135637
-0.00532636
0.0026688
0.00958094
0.0138319
0.0148227
0.0129018
0.0091033
0.00452733
-0.000192648
-0.00483138
-0.0104549
-0.0180978
-0.00706484
-0.00886794
-0.0126005
-0.00330982
0.00544471
0.0122456
0.0163353
0.0168085
0.0137465
0.00802838
0.00100326
-0.00599249
-0.0120839
-0.0167754
-0.0206381
-0.0242372
-0.013105
-0.00412897
-0.00143999
0.00839716
0.0169286
0.0219292
0.0225365
0.0188232
0.0118438
0.00317722
-0.00550257
-0.012871
-0.0181641
-0.0209831
-0.0218916
-0.0213966
-0.0118972
0.00967688
0.0167349
0.023954
0.0290452
0.0308859
0.0287157
0.0224871
0.0130032
0.0018765
-0.00879063
-0.0169283
-0.0211138
-0.0209174
-0.0168503
-0.00997503
0.000331519
0.020679
0.0288623
0.0351397
0.0374878
0.0357887
0.030307
0.0215279
0.0104314
-0.00151057
-0.0122751
-0.0198219
-0.0226911
-0.0204609
-0.0136759
-0.00371628
0.00966137
0.0313362
0.0369671
0.0409606
0.0405822
0.0362323
0.0285792
0.0183596
0.00666821
-0.00492179
-0.0144293
-0.0199024
-0.0200511
-0.0148112
-0.00524142
0.00663828
0.0216693
0.0368505
0.0386907
0.0396297
0.0366056
0.0303959
0.0219069
0.011898
0.00135395
-0.00835707
-0.0155271
-0.0184301
-0.0159709
-0.00842284
0.0027339
0.0149261
0.0298623
0.0355561
0.0329975
0.0306822
0.0255525
0.0186751
0.0109942
0.00306261
-0.00449796
-0.0108199
-0.0147282
-0.0149005
-0.010419
-0.00178285
0.00920509
0.0197973
0.0321111
0.0277221
0.0209164
0.0154293
0.00908567
0.00297062
-0.00223728
-0.00643762
-0.00956541
-0.0114438
-0.0115666
-0.00906941
-0.00332456
0.00507609
0.0140555
0.0212533
0.0283653
0.0154638
0.00499835
-0.00308914
-0.00956866
-0.0136717
-0.0152863
-0.0148324
-0.0129613
-0.0101683
-0.00656567
-0.00176686
0.00452115
0.0115709
0.0173625
0.0198902
0.0202371
0.00216123
-0.0113099
-0.0209231
-0.0265039
-0.0278821
-0.0255326
-0.0206022
-0.0142574
-0.00751858
-0.000924013
0.00553142
0.0118085
0.0169855
0.0191526
0.0167529
0.0106552
-0.00908824
-0.0247558
-0.0343555
-0.0381741
-0.0366471
-0.0308994
-0.0225908
-0.0132663
-0.00413472
0.00413394
0.0113356
0.0171378
0.0204132
0.0193044
0.0126898
0.00269413
-0.0164288
-0.0335934
-0.0412149
-0.0425916
-0.0384808
-0.0304123
-0.0204183
-0.0101065
-0.000536921
0.00776541
0.0145655
0.0193343
0.0208372
0.0172359
0.00768666
-0.00201903
-0.020052
-0.0377193
-0.0416122
-0.0400688
-0.0338577
-0.0246743
-0.0147249
-0.00537006
0.00275388
0.00945562
0.0146023
0.0176422
0.0174187
0.0121211
0.00109789
-0.00424621
-0.0213339
-0.0376575
-0.0371387
-0.0325487
-0.0247707
-0.0155567
-0.00703268
-0.000105853
0.00515024
0.0089582
0.0113993
0.0120722
0.0101136
0.00391167
-0.00725255
-0.00713116
-0.0212083
-0.0335852
-0.0291289
-0.0219663
-0.0133858
-0.00514128
0.000981389
0.00461073
0.00619838
0.00637736
0.00553583
0.0035826
6.68967e-05
-0.00624624
-0.0159179
-0.0117475
-0.0192567
-0.0254137
-0.0181049
-0.00945674
-0.00121104
0.00507324
0.0081485
0.00811703
0.00581853
0.00223057
-0.00188843
-0.00619723
-0.0107014
-0.0160945
-0.0226266
-0.0163235
-0.0142518
-0.0134261
-0.00438386
0.00437753
0.0109296
0.0143811
0.0139833
0.0102993
0.00438535
-0.00250699
-0.00924422
-0.0150597
-0.0195557
-0.0229841
-0.0253262
-0.0178447
-0.00386578
0.00171053
0.0110566
0.0189908
0.0235004
0.0235145
0.0193819
0.0120499
0.00300024
-0.00609688
-0.0137749
-0.0190639
-0.0215713
-0.0215979
-0.0195015
-0.0113468
0.0160021
0.0237266
0.0304667
0.0345382
0.0353596
0.032517
0.0258326
0.0157525
0.00370596
-0.00798046
-0.0167884
-0.0209143
-0.0198151
-0.01424
-0.00554975
0.00602241
0.0285719
0.0370325
0.0430536
0.0447298
0.0421651
0.0357937
0.0261452
0.0141207
0.0012797
-0.0101672
-0.0179027
-0.0202798
-0.0169273
-0.00877628
0.00260508
0.0168811
0.0390664
0.0456075
0.0492655
0.0484019
0.0433942
0.0349545
0.0238501
0.0111909
-0.00133869
-0.01154
-0.0172324
-0.0168972
-0.0106078
0.000142927
0.0132493
0.0283789
0.0430001
0.046447
0.0473206
0.0440876
0.0374647
0.0283157
0.0174519
0.00594226
-0.004709
-0.0125699
-0.0157001
-0.012873
-0.00445361
0.00758674
0.0207681
0.0347717
0.0393726
0.0391879
0.037085
0.0320558
0.0249774
0.016683
0.00783197
-0.00078659
-0.00808245
-0.0127017
-0.0131352
-0.00840815
0.000891479
0.0125222
0.0238894
0.0346799
0.0290799
0.0250291
0.0201542
0.014176
0.00793653
0.00198083
-0.00336933
-0.00776582
-0.0107504
-0.0116314
-0.00943253
-0.00349797
0.00542189
0.0150103
0.0228553
0.0286771
0.0144799
0.00670349
-0.0003328
-0.00627884
-0.0105372
-0.0132025
-0.0142317
-0.0138977
-0.0123692
-0.00957796
-0.00506177
0.00145861
0.00904324
0.0154497
0.0186428
0.0185936
-0.00120416
-0.0121612
-0.0203736
-0.0253769
-0.0271869
-0.0260248
-0.0228023
-0.0181658
-0.0127715
-0.0069878
-0.000755651
0.00582835
0.0115875
0.0143869
0.0126797
0.0071091
-0.0147895
-0.0279611
-0.0359918
-0.0392596
-0.0382501
-0.0338976
-0.027361
-0.0196748
-0.011769
-0.00421144
0.00283139
0.00894303
0.0127463
0.0122119
0.00625302
-0.00291599
-0.0240665
-0.0381639
-0.0444661
-0.0455028
-0.0420574
-0.0354196
-0.0270068
-0.0179897
-0.00932024
-0.00153079
0.00514173
0.0101159
0.0119732
0.00884927
3.25156e-05
-0.00947371
-0.0286231
-0.0421863
-0.0454833
-0.0440452
-0.0387057
-0.0308842
-0.0221142
-0.0135087
-0.00582863
0.000584813
0.00558665
0.00864912
0.00857089
0.00376524
-0.00619703
-0.012811
-0.02963
-0.0408949
-0.040651
-0.0367205
-0.0300275
-0.0220086
-0.0141467
-0.00739341
-0.00216436
0.00150077
0.00371458
0.00422881
0.0022703
-0.00334929
-0.0128932
-0.0153359
-0.0280979
-0.0351079
-0.0315478
-0.0254808
-0.0181017
-0.0108082
-0.00490023
-0.0010167
0.000755221
0.000792442
-0.000391995
-0.00260708
-0.00606469
-0.0117267
-0.0193305
-0.0183554
-0.0236477
-0.0250471
-0.0188022
-0.0114253
-0.00435994
0.0011923
0.00427753
0.00458795
0.00241428
-0.00142116
-0.00594222
-0.0105016
-0.0149683
-0.0193999
-0.0237351
-0.0203193
-0.0151866
-0.0109964
-0.00282892
0.0047522
0.0102991
0.0130774
0.0126139
0.00901718
0.00296633
-0.00431299
-0.0114328
-0.0173169
-0.0214367
-0.0237934
-0.0241577
-0.0183726
-0.000860877
0.00649094
0.0151065
0.0219124
0.025538
0.0252863
0.0211243
0.0135589
0.00382345
-0.00622182
-0.0146482
-0.0200883
-0.0220143
-0.0207359
-0.0167288
-0.00836055
0.0206465
0.0287374
0.0354639
0.0391746
0.0396282
0.0364928
0.0293636
0.0184257
0.00512211
-0.00785651
-0.0175017
-0.0216636
-0.0197838
-0.0128925
-0.00273447
0.0101156
0.0332915
0.0423008
0.0485289
0.0501909
0.0473646
0.0404434
0.0299208
0.0167748
0.00278826
-0.00951151
-0.0175615
-0.0196242
-0.0154287
-0.0061891
0.00626436
0.0211897
0.0428803
0.0504044
0.0544616
0.0538204
0.0488045
0.0400083
0.0281802
0.0145428
0.000956287
-0.0100125
-0.0159996
-0.0155084
-0.00866463
0.00280441
0.0166288
0.0316449
0.0452905
0.0501709
0.0515656
0.0488216
0.0424386
0.0331194
0.0216792
0.00933738
-0.00216907
-0.0106762
-0.014112
-0.01124
-0.00255282
0.00979212
0.0232591
0.0364735
0.0400271
0.0414995
0.0401537
0.0358509
0.0291698
0.0207575
0.0113258
0.00188301
-0.00621534
-0.0114025
-0.0120852
-0.00733351
0.00208759
0.0137544
0.0250934
0.0348219
0.0283624
0.026015
0.0221565
0.0170318
0.0111565
0.00493175
-0.0011993
-0.00659676
-0.010474
-0.0119261
-0.0099151
-0.00386242
0.00522838
0.0148311
0.0225619
0.0275928
0.0126976
0.00661793
0.000793641
-0.00434614
-0.00852798
-0.0117248
-0.0138662
-0.0147814
-0.0142776
-0.0120775
-0.0076632
-0.00086041
0.00707873
0.0136529
0.0168663
0.0166189
-0.00391804
-0.0130995
-0.0200207
-0.0244015
-0.0263559
-0.0262381
-0.0244267
-0.0211815
-0.0168365
-0.0115968
-0.00536021
0.00163494
0.0078965
0.0110389
0.00956412
0.00433348
-0.0184563
-0.0295261
-0.0364008
-0.0393712
-0.0389359
-0.0358508
-0.0307917
-0.0243833
-0.0173388
-0.0101546
-0.00302552
0.00349583
0.00777545
0.00767225
0.0020824
-0.00666555
-0.0286374
-0.0400082
-0.0456216
-0.0467877
-0.0442204
-0.038906
-0.0317407
-0.0235956
-0.0153876
-0.00772885
-0.000932641
0.00430981
0.00643666
0.00362959
-0.00446249
-0.0142969
-0.0337913
-0.0438564
-0.0472261
-0.0463932
-0.0421048
-0.0354419
-0.0274431
-0.0191149
-0.011428
-0.00490977
0.000189316
0.00332155
0.0032849
-0.00125543
-0.0101576
-0.0184575
-0.0347412
-0.0420415
-0.0425864
-0.039664
-0.0340608
-0.0268877
-0.0192726
-0.0122245
-0.00662583
-0.00276723
-0.000548356
-0.000128792
-0.0021671
-0.00747504
-0.0155959
-0.0209296
-0.0321971
-0.0354874
-0.0330666
-0.0282019
-0.0218255
-0.0150394
-0.00895531
-0.00454622
-0.0023613
-0.00222324
-0.00353645
-0.00591808
-0.00946041
-0.0145499
-0.0205714
-0.0227397
-0.0257357
-0.02439
-0.019192
-0.012958
-0.00673766
-0.00149177
0.00182768
0.00250941
0.000480638
-0.00348959
-0.00823297
-0.0128472
-0.0170014
-0.0207575
-0.0235939
-0.0224296
-0.0146465
-0.00899071
-0.00151857
0.00516742
0.0100361
0.0125008
0.0119729
0.00826672
0.00191681
-0.00573732
-0.0130663
-0.0188058
-0.0223572
-0.0236934
-0.0226758
-0.017727
0.0022485
0.0101779
0.018365
0.0245578
0.0278389
0.0275259
0.0232684
0.0152089
0.00453972
-0.00655308
-0.0156815
-0.0211567
-0.0224124
-0.0198907
-0.0143437
-0.00544897
0.0226728
0.0311285
0.0381971
0.042168
0.0429054
0.0399256
0.0325423
0.0207379
0.00608064
-0.0083111
-0.0189358
-0.0233639
-0.0209993
-0.0131687
-0.00196108
0.0119138
0.0343217
0.0440308
0.0507572
0.0529007
0.0503509
0.0432729
0.032064
0.0178271
0.00268366
-0.0104972
-0.0189078
-0.0208329
-0.0161342
-0.0062068
0.00692574
0.0221714
0.0426943
0.051107
0.0557987
0.0558732
0.0513977
0.042704
0.030437
0.0159509
0.00145779
-0.0102273
-0.0165445
-0.0160523
-0.00902823
0.00266954
0.0166967
0.031419
0.0440046
0.0497534
0.0518911
0.0500439
0.0443796
0.0353547
0.0236958
0.0107706
-0.00137918
-0.0103443
-0.0139712
-0.0111433
-0.00253115
0.0095994
0.0227428
0.0351801
0.0381015
0.0403104
0.0397859
0.0364433
0.0305162
0.0223955
0.0127699
0.00284737
-0.00572698
-0.0111634
-0.011851
-0.0070312
0.00227592
0.0135047
0.0241662
0.0329591
0.0263897
0.0247002
0.0216857
0.0174364
0.0121267
0.0059672
-0.000528379
-0.00649154
-0.0108278
-0.0124296
-0.0102522
-0.00392569
0.00521425
0.0144353
0.0214551
0.0256828
0.0111719
0.00580203
0.000779622
-0.00373555
-0.0077431
-0.0112448
-0.0140612
-0.0157148
-0.0157148
-0.013609
-0.00888835
-0.00160706
0.0066106
0.0130291
0.0157667
0.0150407
-0.00478038
-0.0130363
-0.0192688
-0.0233876
-0.0256143
-0.0262612
-0.0254088
-0.0230028
-0.0191337
-0.0139035
-0.00727027
0.000294462
0.00695405
0.0101505
0.00855792
0.00319048
-0.0187501
-0.0285539
-0.0349719
-0.0380889
-0.0383835
-0.0363681
-0.0323511
-0.0266734
-0.0199211
-0.0126128
-0.00506087
0.00193926
0.00653572
0.00652876
0.00123329
-0.00756514
-0.0286884
-0.0384275
-0.0439894
-0.0457075
-0.0441513
-0.0399534
-0.0336205
-0.0258548
-0.0176222
-0.00967199
-0.00250846
0.00299285
0.00521149
0.002507
-0.0051545
-0.0153891
-0.03391
-0.0421354
-0.0459601
-0.0459864
-0.0427592
-0.0369771
-0.0293588
-0.0209317
-0.0129129
-0.00594213
-0.000586199
0.00257167
0.00240456
-0.0021012
-0.010476
-0.0200251
-0.0349276
-0.040507
-0.0418978
-0.0399835
-0.0352978
-0.0286117
-0.0208762
-0.0133284
-0.00710349
-0.00289536
-0.000567292
-0.000280718
-0.00254499
-0.00782608
-0.0154132
-0.0226528
-0.0320136
-0.0341524
-0.0326636
-0.0287655
-0.0230648
-0.0164079
-0.00992209
-0.00489986
-0.00222272
-0.00187646
-0.00323119
-0.00578312
-0.0094584
-0.014369
-0.0199274
-0.023795
-0.0246489
-0.0229962
-0.0185207
-0.0130554
-0.00728366
-0.00201513
0.00164188
0.002651
0.00073651
-0.00332288
-0.00821648
-0.0128743
-0.0168119
-0.0202593
-0.0225564
-0.0221356
-0.0126175
-0.00720467
-0.000151285
0.00603546
0.010598
0.0129707
0.0123713
0.00843596
0.00171456
-0.00628478
-0.0137438
-0.0192971
-0.0224071
-0.0229666
-0.0212651
-0.016002
0.00485142
0.0125616
0.0206242
0.0266597
0.0300059
0.0298711
0.0255533
0.0169416
0.00529776
-0.00683644
-0.016651
-0.0221934
-0.0229223
-0.0194547
-0.0129218
-0.00300861
0.0219112
0.0308031
0.0382827
0.0428453
0.0442929
0.0418716
0.0345259
0.0220732
0.00623036
-0.0094791
-0.0211122
-0.0259669
-0.0234442
-0.0150454
-0.003131
0.0112867
0.0318706
0.0421645
0.0493859
0.052204
0.0502562
0.0433739
0.0317846
0.016709
0.000633188
-0.0132286
-0.0219344
-0.0238041
-0.0188548
-0.00862312
0.00479359
0.0199837
0.0390172
0.0478755
0.0531444
0.0540766
0.0504433
0.0422129
0.029855
0.0148222
-0.000342682
-0.0125114
-0.0190074
-0.0185037
-0.0114727
0.000110953
0.0138989
0.0280527
0.0398243
0.0457405
0.0484456
0.0475124
0.0427917
0.034361
0.0228212
0.00964198
-0.00284619
-0.0119717
-0.0155377
-0.0126257
-0.0041509
0.0074991
0.0198806
0.031362
0.0343224
0.0364709
0.0364186
0.033866
0.0287301
0.0211066
0.0116142
0.0015937
-0.00705556
-0.012339
-0.0126697
-0.00755018
0.00167228
0.012282
0.0218999
0.0295246
0.023896
0.0220517
0.019326
0.0155958
0.0107173
0.00477117
-0.00174924
-0.0078103
-0.0120896
-0.0133321
-0.0105549
-0.00369049
0.00553585
0.0142273
0.0202464
0.0233576
0.0106194
0.00512369
0.000224055
-0.00415266
-0.00818179
-0.0119038
-0.015008
-0.0168417
-0.0167338
-0.0141484
-0.00868857
-0.000735385
0.00771064
0.0137899
0.0158081
0.0142894
-0.00312269
-0.0114105
-0.0176858
-0.0220542
-0.0247909
-0.0260411
-0.0256887
-0.0235086
-0.0194764
-0.0137016
-0.00632978
0.00185597
0.00873219
0.0117435
0.00980063
0.00413079
-0.015087
-0.0249197
-0.031541
-0.0352585
-0.0364049
-0.0351955
-0.031708
-0.0261633
-0.0191343
-0.0112592
-0.00309819
0.00426521
0.00891636
0.00877366
0.00343746
-0.00523111
-0.0237347
-0.0336373
-0.0396279
-0.0421548
-0.0415526
-0.0380882
-0.0320697
-0.0241842
-0.015507
-0.00701862
0.000521163
0.0060868
0.00811223
0.0052275
-0.00237381
-0.0123904
-0.0285938
-0.0373048
-0.0417429
-0.0426144
-0.0401944
-0.0348283
-0.0271381
-0.0182707
-0.00961438
-0.00221588
0.00329629
0.00625393
0.00568995
0.000880085
-0.0075804
-0.017103
-0.0299132
-0.0364059
-0.0384716
-0.0372995
-0.0331349
-0.026469
-0.0182916
-0.0100859
-0.00329465
0.00131426
0.00363036
0.00357998
0.000834807
-0.00482732
-0.0126868
-0.0200421
-0.0275362
-0.0309818
-0.030073
-0.0267381
-0.0212749
-0.0143494
-0.00725679
-0.0016009
0.00151641
0.00200274
0.000482187
-0.0024171
-0.00647238
-0.0116806
-0.0175221
-0.0212397
-0.0208504
-0.0205821
-0.0165315
-0.0114466
-0.00573184
-0.000134684
0.0039813
0.00531442
0.00347192
-0.00073122
-0.0058653
-0.0107314
-0.0147955
-0.0181245
-0.0205309
-0.019505
-0.00979719
-0.00544737
0.00134259
0.0072936
0.0118392
0.014316
0.0137443
0.00963459
0.00259552
-0.00570769
-0.0133164
-0.0187847
-0.0215405
-0.0217581
-0.0197887
-0.0136436
0.00632519
0.0136101
0.0216228
0.0277517
0.0314213
0.0316818
0.0274569
0.0184535
0.00601673
-0.00701434
-0.0174783
-0.0231981
-0.0235916
-0.0195122
-0.0123342
-0.00154892
0.0185703
0.0278147
0.0355117
0.0406974
0.0430447
0.0414383
0.034445
0.0217686
0.00521135
-0.0114298
-0.023886
-0.0292351
-0.0268382
-0.0182557
-0.00602122
0.00834459
0.0264733
0.036974
0.0444615
0.0478756
0.0466262
0.0402196
0.0285617
0.0131867
-0.00334032
-0.0175101
-0.026298
-0.0281187
-0.0231319
-0.0129595
0.000302973
0.014998
0.0325536
0.0412802
0.046814
0.0484731
0.0457208
0.0381696
0.0260491
0.010899
-0.00451568
-0.0168068
-0.0232234
-0.0225952
-0.0156183
-0.00437777
0.00879273
0.0220599
0.0334353
0.0389283
0.0417944
0.0415145
0.0376446
0.0299305
0.0187832
0.00571683
-0.0067254
-0.0156585
-0.0188685
-0.0156692
-0.00726683
0.00382162
0.0152105
0.0254643
0.0292183
0.0307395
0.030724
0.028502
0.023926
0.0168243
0.00769628
-0.00206675
-0.0103915
-0.0151382
-0.0147807
-0.00913502
9.725e-05
0.0100809
0.018563
0.0248226
0.0211342
0.0185317
0.0154519
0.011842
0.00713723
0.00137961
-0.00493544
-0.0106973
-0.0144658
-0.0149186
-0.0112117
-0.00365412
0.00566253
0.0137789
0.018762
0.0207144
0.0109013
0.00450222
-0.000790737
-0.00547385
-0.00978232
-0.0136633
-0.0167345
-0.0182773
-0.0175564
-0.0140542
-0.00759885
0.00102694
0.00952769
0.0151079
0.0163455
0.0142104
0.000375165
-0.00889322
-0.0156719
-0.0206461
-0.0239796
-0.0256048
-0.0253053
-0.0228219
-0.0181313
-0.0114556
-0.0032363
0.00538151
0.0121341
0.0146914
0.0122568
0.00669999
-0.00881151
-0.0198209
-0.0270137
-0.0314721
-0.0333097
-0.0324683
-0.0289575
-0.0230284
-0.0153338
-0.00670651
0.00198074
0.0094296
0.0136841
0.0130903
0.0074706
-0.000462787
-0.0157004
-0.0271849
-0.0337389
-0.0369454
-0.0368747
-0.0335359
-0.0272576
-0.0188467
-0.00952495
-0.000499346
0.00720221
0.0124541
0.0138855
0.0104861
0.00258425
-0.00638755
-0.0201027
-0.0308366
-0.0357835
-0.0371217
-0.0348978
-0.0292822
-0.0210335
-0.0115104
-0.00224768
0.00546958
0.0108543
0.0132541
0.0119492
0.0065004
-0.00246854
-0.0109756
-0.0220456
-0.0308174
-0.0333075
-0.0323634
-0.0280582
-0.020816
-0.0118575
-0.00291466
0.00436658
0.00911505
0.0111296
0.0104298
0.00692225
0.000555143
-0.00799793
-0.0144892
-0.0210108
-0.0266008
-0.0260433
-0.0227803
-0.016981
-0.00933158
-0.00143226
0.00486631
0.00832068
0.00877545
0.00686541
0.00337865
-0.00130774
-0.0070986
-0.0135713
-0.0165215
-0.0162344
-0.0175445
-0.0138176
-0.00876748
-0.00269619
0.00355167
0.00829822
0.0100281
0.00827882
0.00389507
-0.00160079
-0.00687485
-0.0112873
-0.014859
-0.0175702
-0.015917
-0.00758159
-0.00404752
0.00242174
0.00828518
0.0130692
0.0158873
0.0155741
0.011535
0.00440979
-0.00405134
-0.011813
-0.0173737
-0.0201256
-0.0202781
-0.0182416
-0.011716
0.00596164
0.013032
0.0208597
0.027183
0.0313295
0.0321636
0.0282702
0.0192293
0.00643062
-0.00712597
-0.0180604
-0.0240154
-0.0243511
-0.0200242
-0.0125314
-0.00163581
0.0131628
0.0223391
0.0299546
0.0356139
0.0388383
0.0381367
0.0317883
0.019393
0.00281797
-0.0140826
-0.026905
-0.0326673
-0.0306541
-0.0223567
-0.0103892
0.00347446
0.0188319
0.0289886
0.0364209
0.0402348
0.0396266
0.0338051
0.0226333
0.00748101
-0.00884622
-0.0227873
-0.0313578
-0.0331058
-0.0283183
-0.0186222
-0.00603827
0.00775136
0.0240224
0.0320988
0.0375572
0.0396759
0.0376814
0.0309147
0.0193018
0.00448836
-0.0106511
-0.0226189
-0.0286797
-0.0278471
-0.0209997
-0.0103169
0.00191935
0.0140033
0.0253965
0.0300553
0.0327079
0.0327663
0.0295369
0.0225223
0.0119578
-0.000646952
-0.0126507
-0.0210571
-0.0236926
-0.0201091
-0.0117815
-0.0013051
0.00901587
0.0179435
0.023056
0.0235314
0.0230468
0.0209482
0.0167047
0.0100728
0.00146095
-0.00775665
-0.0154388
-0.0193976
-0.0182087
-0.012012
-0.00280962
0.00654614
0.0139748
0.0190762
0.0178958
0.0140419
0.0105199
0.0065602
0.00179917
-0.00376418
-0.00967344
-0.0148386
-0.0178054
-0.0172671
-0.0125812
-0.00444928
0.00478395
0.01226
0.0163207
0.0176346
0.011133
0.00332382
-0.00258862
-0.0077956
-0.0124162
-0.0162774
-0.018994
-0.0198892
-0.0182659
-0.013708
-0.00634085
0.00265566
0.0108829
0.0157886
0.0162841
0.0142379
0.00406836
-0.00680404
-0.0141768
-0.0197433
-0.023451
-0.0250417
-0.0243194
-0.0211152
-0.0155064
-0.00789892
0.00093009
0.00953544
0.0157357
0.0175767
0.0145842
0.00977582
-0.00234371
-0.0150569
-0.0227789
-0.0277324
-0.0297707
-0.0286745
-0.0245543
-0.017824
-0.00929383
-2.16311e-05
0.00882805
0.0158189
0.0192872
0.0179544
0.0118847
0.00506439
-0.0076455
-0.0209142
-0.027889
-0.0313352
-0.0311055
-0.0271559
-0.0200294
-0.0107595
-0.000757996
0.00857657
0.0160187
0.0204907
0.0209651
0.0167817
0.00839003
0.000500749
-0.0117838
-0.0243127
-0.0295687
-0.0308344
-0.0280516
-0.0214801
-0.0121843
-0.00176002
0.00801552
0.0157481
0.0206004
0.022052
0.0197158
0.0134196
0.00382303
-0.00395104
-0.0145513
-0.0249234
-0.0276755
-0.0264507
-0.0213356
-0.0129519
-0.00289734
0.0068406
0.0145236
0.0191726
0.0206107
0.0189724
0.0144709
0.00725611
-0.00200072
-0.008223
-0.0151609
-0.0218761
-0.0216308
-0.018073
-0.0114359
-0.00267423
0.0062237
0.0132234
0.0169953
0.0173411
0.014937
0.0106384
0.00511616
-0.00138126
-0.00841932
-0.0115492
-0.0127435
-0.0145651
-0.01125
-0.00603671
0.000722369
0.007865
0.0134436
0.0157599
0.0142876
0.00985042
0.00399823
-0.00182317
-0.00682319
-0.0108683
-0.0139202
-0.0127742
-0.00701395
-0.00355097
0.00243348
0.00827709
0.0134523
0.0168568
0.0171248
0.0135679
0.00678701
-0.0015049
-0.00930116
-0.0150834
-0.0181644
-0.018639
-0.0168049
-0.011001
0.00353188
0.0105237
0.0179614
0.0244398
0.0291795
0.0307218
0.027415
0.018788
0.00624354
-0.00722902
-0.0182385
-0.0243715
-0.0249195
-0.0208143
-0.0135257
-0.00344369
0.00650435
0.0148176
0.0221287
0.0280889
0.0320494
0.032192
0.0265968
0.0148721
-0.00103024
-0.0173187
-0.029861
-0.0357601
-0.0342718
-0.0267426
-0.0156482
-0.00284461
0.00983984
0.0190594
0.0262181
0.0302594
0.030203
0.0250687
0.0146614
0.000295257
-0.0152001
-0.0283628
-0.0364116
-0.0380605
-0.0337289
-0.0249453
-0.0135812
-0.000998904
0.0142312
0.0213827
0.0265401
0.0289015
0.0274748
0.0213208
0.0105426
-0.00352779
-0.017914
-0.0291504
-0.0346348
-0.0336073
-0.0270836
-0.0172085
-0.00615048
0.00463605
0.0163523
0.0200549
0.0223346
0.0224823
0.0196874
0.0132673
0.00340074
-0.00848096
-0.0197474
-0.0274049
-0.0294102
-0.0255495
-0.017472
-0.00771646
0.0015731
0.00944277
0.0161187
0.0154301
0.0144803
0.0122448
0.00816637
0.00196327
-0.00603307
-0.0145242
-0.0213903
-0.0245106
-0.0226131
-0.0161244
-0.00719279
0.00147587
0.00804322
0.0126884
0.014001
0.00859593
0.00460499
0.000311117
-0.00449884
-0.00975853
-0.0150736
-0.0194537
-0.0215219
-0.0200677
-0.0146844
-0.0063913
0.00242337
0.00918079
0.0125264
0.0141746
0.0106071
0.000973929
-0.00540391
-0.0110013
-0.0157087
-0.0192363
-0.0212691
-0.0212724
-0.018677
-0.0132316
-0.00535867
0.00349775
0.0110517
0.0151665
0.0150481
0.0139495
0.00657634
-0.00605883
-0.0138419
-0.0197102
-0.0233425
-0.02438
-0.0227709
-0.0185474
-0.0119705
-0.00366574
0.00530455
0.0133662
0.0186542
0.0196306
0.0160949
0.0124236
0.00238786
-0.0117111
-0.0197648
-0.0248014
-0.0264328
-0.0244452
-0.0191966
-0.011367
-0.00198288
0.00767587
0.0162508
0.0223539
0.0247219
0.0225025
0.0159317
0.00997436
-0.0017628
-0.0158932
-0.023114
-0.0263539
-0.0253226
-0.0201429
-0.0117043
-0.00135543
0.00931693
0.0187235
0.02558
0.0289615
0.0282567
0.0231812
0.0142883
0.00666171
-0.00578346
-0.0186585
-0.0241139
-0.0249265
-0.0210372
-0.0130429
-0.00235542
0.00902546
0.0192991
0.026914
0.0310571
0.0313919
0.0278948
0.0207165
0.0106
0.00238386
-0.00923985
-0.0195292
-0.022529
-0.0207767
-0.0144687
-0.00466144
0.00664601
0.0172422
0.0253316
0.0298815
0.030675
0.0280562
0.0225057
0.0144581
0.00468843
-0.00256887
-0.0112211
-0.0175792
-0.017715
-0.0137523
-0.00608078
0.00390975
0.0138924
0.021676
0.0258941
0.0262901
0.0234902
0.018466
0.0120722
0.00482368
-0.00269443
-0.00722077
-0.0109079
-0.0123592
-0.00955612
-0.00415658
0.00334814
0.0114838
0.018005
0.0211215
0.0202567
0.0161346
0.0102143
0.00391798
-0.00178772
-0.00654049
-0.0101294
-0.0104587
-0.00796222
-0.00443514
0.00098007
0.00681888
0.0124459
0.0165807
0.0176897
0.0150287
0.00910728
0.00147894
-0.00603518
-0.0119977
-0.0156593
-0.0169165
-0.0158187
-0.0113979
-0.000369206
0.00604954
0.0130112
0.0196365
0.0249909
0.0272697
0.0246799
0.0168243
0.00512399
-0.00752303
-0.0180066
-0.0240613
-0.0249823
-0.0216228
-0.0152828
-0.0065423
-0.000254403
0.00621563
0.0131943
0.0193657
0.0238876
0.0246679
0.0196762
0.00873852
-0.00606923
-0.0210852
-0.0326389
-0.0382215
-0.0371994
-0.0308105
-0.0213166
-0.00944028
0.000657194
0.00856794
0.0153885
0.0196086
0.0200385
0.0156235
0.00608438
-0.00720735
-0.0214852
-0.0335272
-0.0408836
-0.0424199
-0.0387454
-0.0312171
-0.0214845
-0.0101323
0.00432118
0.0105588
0.0154346
0.0179443
0.0169513
0.011459
0.00139277
-0.0117713
-0.0251312
-0.0354045
-0.0402214
-0.0391723
-0.0332266
-0.0243884
-0.0146007
-0.00491703
0.00732536
0.0101647
0.0121877
0.0123583
0.00983522
0.00391584
-0.00528534
-0.0163692
-0.026759
-0.033627
-0.0351382
-0.0313034
-0.0237755
-0.0148666
-0.00644659
0.00102239
0.00923794
0.00730949
0.00614164
0.00378419
-0.000177225
-0.00596438
-0.0133141
-0.0210129
-0.0270792
-0.0295128
-0.0272572
-0.0209358
-0.0126135
-0.00468912
0.00130576
0.00656115
0.00994679
0.00276052
-0.00143486
-0.00589509
-0.0106162
-0.0154128
-0.0199941
-0.0235183
-0.0247614
-0.0226755
-0.0170888
-0.00917398
-0.00110423
0.00493428
0.00783343
0.0108909
0.00937036
-0.00224437
-0.00882393
-0.0145391
-0.0190245
-0.0218728
-0.0229568
-0.0219482
-0.0184737
-0.0124838
-0.0046317
0.00358261
0.0101919
0.0135757
0.0130286
0.0135111
0.0076569
-0.00659578
-0.0146023
-0.0204417
-0.0235571
-0.0235976
-0.0207639
-0.0153663
-0.00790346
0.000788832
0.00947089
0.0166547
0.020944
0.0210629
0.0170494
0.0144409
0.00506195
-0.00985618
-0.0181522
-0.0229651
-0.0237444
-0.0204363
-0.0137451
-0.00467198
0.00551806
0.0153671
0.0234332
0.028529
0.0297839
0.0267176
0.0196584
0.0138456
0.00179478
-0.0122938
-0.0197535
-0.0225846
-0.0204362
-0.0137417
-0.00380605
0.007729
0.0190568
0.0284969
0.0347612
0.03711
0.0353073
0.0294029
0.0200498
0.0116794
-0.00193137
-0.014176
-0.0198659
-0.0201706
-0.0150624
-0.00554785
0.00647205
0.0188737
0.0296721
0.0373018
0.0409171
0.0403442
0.035848
0.0278794
0.0173289
0.00780909
-0.00559413
-0.0151166
-0.0183919
-0.0161677
-0.00875893
0.00236251
0.0147968
0.0262165
0.0348037
0.0394762
0.0399761
0.0367016
0.0303229
0.021526
0.0112824
0.00255802
-0.00837494
-0.0143192
-0.0147984
-0.0105166
-0.00199244
0.00902557
0.0198997
0.0284239
0.0332545
0.0340572
0.0313182
0.0259581
0.0189193
0.010904
0.00272215
-0.00313598
-0.00967886
-0.0114442
-0.00902809
-0.00347584
0.00462205
0.0135655
0.0208824
0.0248268
0.0248367
0.0214891
0.0159926
0.00962346
0.00335578
-0.00230065
-0.00691933
-0.00831131
-0.00924946
-0.006792
-0.00177962
0.00411297
0.0101704
0.0150121
0.0169832
0.0153796
0.0106382
0.00412631
-0.00267741
-0.00856693
-0.0128302
-0.0152206
-0.0156098
-0.0120682
-0.00454466
0.00011499
0.00675778
0.0136379
0.019552
0.0224423
0.0204542
0.013474
0.00284952
-0.00833854
-0.017651
-0.0232038
-0.0244508
-0.0222351
-0.0176529
-0.0100488
-0.00591371
-0.00198398
0.00480809
0.0112762
0.0161842
0.0173113
0.0125776
0.00220727
-0.0114424
-0.0248986
-0.0350017
-0.0398778
-0.039083
-0.033927
-0.0264596
-0.0152244
-0.00730654
-0.000720629
0.00595335
0.0103622
0.0112222
0.00747421
-0.00132281
-0.0135132
-0.0265499
-0.0374446
-0.0440536
-0.0456668
-0.0427862
-0.0366237
-0.0286278
-0.0182489
-0.0041956
0.0013568
0.00618827
0.00885051
0.00815647
0.00313138
-0.00631132
-0.0185865
-0.0309004
-0.0402432
-0.0446188
-0.0437124
-0.0385774
-0.0308729
-0.0222355
-0.0131479
-0.000224283
0.00194785
0.00400085
0.0042261
0.00184368
-0.00370526
-0.0123535
-0.0226942
-0.0322611
-0.0384802
-0.0397968
-0.0363603
-0.0296631
-0.0216312
-0.0138026
-0.00584453
0.0037095
0.000506772
-0.000560516
-0.00290654
-0.00673772
-0.0121553
-0.0189139
-0.025891
-0.0312841
-0.0333035
-0.0311245
-0.0254272
-0.0179605
-0.0107234
-0.0049915
0.00195429
0.00674934
-0.00233507
-0.00643308
-0.0108754
-0.0153812
-0.019608
-0.0234123
-0.0261239
-0.0267175
-0.0243546
-0.019046
-0.0119136
-0.00471079
0.000722294
0.00345021
0.00874809
0.00820037
-0.00544115
-0.0120439
-0.0176479
-0.0216517
-0.0236248
-0.0236411
-0.0216322
-0.017459
-0.0112648
-0.00382148
0.00353368
0.00930621
0.0120528
0.0112294
0.0135223
0.0079857
-0.00776392
-0.0159751
-0.021597
-0.0239349
-0.0227571
-0.0185717
-0.0120032
-0.0038056
0.00507201
0.0132899
0.0196143
0.0230063
0.0225356
0.018109
0.0161289
0.00647018
-0.00907951
-0.0177428
-0.0222549
-0.0220314
-0.0172908
-0.00911186
0.00117788
0.0121002
0.0221025
0.0297607
0.0340873
0.0345386
0.0308303
0.0232814