/*--------------------------------*- C++ -*----------------------------------*\
| =========                 |                                                 |
| \\      /  F ield         | OpenFOAM: The Open Source CFD Toolbox           |
|  \\    /   O peration     | Version:  3.0.0                                 |
|   \\  /    A nd           | Web:      www.OpenFOAM.org                      |
|    \\/     M anipulation  |                                                 |
\*---------------------------------------------------------------------------*/
FoamFile
{
    version     2.0;
    format      ascii;
    class       surfaceScalarField;
    location    "9.5";
    object      phi;
}
// * * * * * * * * * * * * * * * * * * * * * * * * * * * * * * * * * * * * * //

dimensions      [0 3 -1 0 0 0 0];

internalField   nonuniform List<scalar> 
11520
(
9.26914e-05
-0.000107457
0.000122965
-1.35305e-05
-1.44179e-05
0.000137582
-0.000130341
7.66094e-05
0.000124521
-0.000236998
0.000146734
8.52688e-05
-0.000319519
0.000180586
2.89498e-05
-0.000368853
0.00017205
-3.02476e-05
-0.000380179
0.000124988
-7.73855e-05
-0.000352781
5.09524e-05
-0.00010331
-0.000290666
-3.53892e-05
-0.000107176
-0.000201757
-0.000119689
-9.5626e-05
-9.70746e-05
-0.000190959
-7.77189e-05
1.03693e-05
-0.00024276
-5.90857e-05
0.000104656
-0.00027276
-3.88821e-05
0.00016803
-0.000279836
-1.0741e-05
0.000185657
-0.000260283
3.18726e-05
-0.000203838
8.82754e-05
-0.000105563
8.51791e-06
4.23553e-05
-0.000220647
9.89172e-05
6.89348e-05
-0.000329337
0.000170146
7.52611e-05
-0.000413585
0.000210387
6.35758e-05
-0.000462196
0.000211594
4.09512e-05
-0.000470545
0.000174099
1.62516e-05
-0.000439847
0.000106519
-3.5661e-06
-0.000376426
2.26871e-05
-1.48607e-05
-0.000289491
-6.20359e-05
-2.03055e-05
-0.000190243
-0.000134439
-2.54044e-05
-9.06722e-05
-0.000186002
-3.5754e-05
-3.5059e-06
-0.000213583
-5.20085e-05
5.75333e-05
-0.000217744
-6.67525e-05
7.91938e-05
-0.000199323
-6.7448e-05
5.39554e-05
-0.000157548
-4.49756e-05
-9.20038e-05
-2.64077e-06
-0.000269138
0.000144599
-1.95699e-05
-0.000381004
0.000212686
2.00949e-05
-0.000471684
0.000251334
4.85627e-05
-0.000528102
0.000253999
6.48348e-05
-0.000543977
0.000219429
7.2076e-05
-0.000519725
0.000153794
7.41965e-05
-0.000461139
6.95759e-05
7.35355e-05
-0.000377596
-1.77232e-05
6.98137e-05
-0.000280332
-9.31329e-05
6.00427e-05
-0.000181241
-0.000145206
3.93996e-05
-9.24497e-05
-0.000168211
4.1448e-06
-2.63555e-05
-0.000162695
-4.31191e-05
4.91565e-06
-0.000133554
-8.9299e-05
-7.55505e-06
-8.61776e-05
-0.000115338
-6.45588e-05
-2.50615e-05
-0.000108123
4.26103e-05
-7.03563e-05
-0.000378576
0.00028459
-6.01346e-05
-0.000476555
0.000315561
-9.46334e-06
-0.000544365
0.000314302
3.73952e-05
-0.00057437
0.000276502
7.4703e-05
-0.000564631
0.000206576
0.00010179
-0.000519185
0.000115616
0.000119434
-0.000446245
1.89827e-05
0.000127785
-0.000356263
-6.70656e-05
0.000125876
-0.00026052
-0.000128414
0.000111254
-0.00017046
-0.000155526
7.99116e-05
-9.74775e-05
-0.000145322
2.84454e-05
-5.28112e-05
-0.000101954
-3.96748e-05
-4.63508e-05
-3.55018e-05
-0.000107894
-8.27588e-05
4.19798e-05
-0.000151763
-0.000158391
0.000119829
-0.000153573
0.000185163
-0.000114022
-0.000420927
0.00040985
-8.57246e-05
-0.000497299
0.000396857
-2.94395e-05
-0.000540806
0.000353067
2.77148e-05
-0.000548481
0.000274979
7.52859e-05
-0.000521755
0.000172075
0.000110143
-0.000466753
5.96629e-05
0.000131836
-0.000392382
-4.47833e-05
0.000140506
-0.000308509
-0.000125064
0.000136416
-0.000225244
-0.00016852
0.000118788
-0.000152549
-0.000167923
8.44025e-05
-9.99357e-05
-0.000122962
2.88897e-05
-7.61446e-05
-4.11773e-05
-4.59188e-05
-8.79732e-05
6.22452e-05
-0.000123231
-0.000136716
0.00016815
-0.000175641
-0.000216431
0.000259575
-0.000181703
0.000320764
-0.000139364
-0.000388886
0.000500926
-0.00010429
-0.000438
0.000446022
-4.77921e-05
-0.000457677
0.000360769
1.12626e-05
-0.000447972
0.000245444
5.93999e-05
-0.000413165
0.000114367
9.21775e-05
-0.000360179
-1.34705e-05
0.000108902
-0.000297043
-0.000119387
0.000111176
-0.000231485
-0.00018848
0.000102074
-0.000171189
-0.000210303
8.36327e-05
-0.000123481
-0.000180693
5.35638e-05
-9.47114e-05
-0.000102514
5.65653e-06
-8.98881e-05
1.35609e-05
-6.17616e-05
-0.000112206
0.000148418
-0.000134989
-0.000161034
0.000277186
-0.000187083
-0.000230489
0.000377747
-0.000194763
0.000433668
-0.0001532
-0.000283276
0.000539598
-0.000114522
-0.000301272
0.000453098
-6.02568e-05
-0.000298399
0.000332287
-4.48797e-06
-0.000277461
0.000186592
3.83868e-05
-0.000244416
3.63058e-05
6.23179e-05
-0.000205788
-9.7276e-05
6.68158e-05
-0.00016645
-0.000196398
5.6298e-05
-0.000130579
-0.000248197
3.84484e-05
-0.000102152
-0.000245523
1.93812e-05
-8.4758e-05
-0.000187971
-1.99663e-06
-8.06787e-05
-8.19615e-05
-3.40878e-05
-9.0679e-05
5.92564e-05
-8.33141e-05
-0.000114785
0.000214623
-0.000141571
-0.000151871
0.000356585
-0.000185881
-0.000198109
0.000459621
-0.000193458
0.000507545
-0.000157339
-0.000114949
0.000512155
-9.92463e-05
-9.99867e-05
0.000410244
-4.76489e-05
-7.83567e-05
0.000265864
2.20383e-06
-5.46494e-05
0.000103087
3.55239e-05
-3.5295e-05
-5.21433e-05
4.41607e-05
-2.3674e-05
-0.000178746
2.84558e-05
-1.97313e-05
-0.000261636
-2.62824e-06
-2.24746e-05
-0.000291126
-3.46964e-05
-3.12543e-05
-0.000263722
-5.66467e-05
-4.53024e-05
-0.00018306
-6.83092e-05
-6.26628e-05
-5.89222e-05
-8.05393e-05
-8.04722e-05
9.38077e-05
-0.000104635
-9.67014e-05
0.000254341
-0.000139344
-0.000111154
0.000395971
-0.00016831
-0.000123326
0.000492083
-0.000171684
0.000525436
-0.00014134
9.45196e-05
0.000416707
-3.68701e-05
0.000139989
0.000316387
1.02509e-05
0.000173015
0.000167121
5.01843e-05
0.000188209
7.12627e-06
6.759e-05
0.000181259
-0.000134699
5.28237e-05
0.000154508
-0.000240706
8.16414e-06
0.000114756
-0.000299637
-5.10211e-05
6.90726e-05
-0.000305008
-0.000102709
2.31172e-05
-0.000256848
-0.000130531
-1.79987e-05
-0.000162429
-0.000133491
-4.88408e-05
-3.39749e-05
-0.000124691
-6.44232e-05
0.000113397
-0.000119547
-6.21947e-05
0.000261026
-0.000123271
-4.38844e-05
0.000386063
-0.000127306
-1.33263e-05
0.000463623
-0.000116987
0.000472235
-8.40704e-05
0.000310685
0.000271793
7.01522e-05
0.000377531
0.000184748
0.000110472
0.00041206
5.18001e-05
0.000135227
0.000408041
-8.29235e-05
0.000130102
0.000365508
-0.000193188
8.49638e-05
0.000294246
-0.000267526
5.40998e-06
0.000208615
-0.00029869
-8.58862e-05
0.000122032
-0.000282876
-0.000159097
4.51949e-05
-0.000222965
-0.000193764
-1.30736e-05
-0.000128573
-0.000188951
-4.53493e-05
-1.25768e-05
-0.00015956
-4.66176e-05
0.000111495
-0.000123652
-1.56628e-05
0.000228478
-9.12916e-05
4.31906e-05
0.000321209
-6.14e-05
0.000121355
0.000369278
-2.56041e-05
0.000347472
2.41365e-05
0.000490813
0.000111666
0.000188244
0.000564296
4.17894e-05
0.000220284
0.000590097
-5.73086e-05
0.000228779
0.000560671
-0.000148372
0.000199429
0.00048062
-0.000214239
0.000122838
0.000367019
-0.000251008
9.2397e-06
0.00024143
-0.000255678
-0.000111278
0.000123451
-0.000226593
-0.000202376
2.83265e-05
-0.000168246
-0.000241552
-3.27459e-05
-9.03324e-05
-0.000228964
-5.25658e-05
-3.69732e-06
-0.000180874
-2.84137e-05
8.17761e-05
-0.000116722
3.73999e-05
0.000155795
-4.98166e-05
0.000137613
0.000207279
1.44588e-05
0.000259601
0.00022072
8.13006e-05
0.00017378
0.000161333
0.00060289
-3.06412e-05
0.000279174
0.000665381
-8.25478e-05
0.000302866
0.000671986
-0.000137959
0.000298119
0.00061488
-0.00017621
0.00024859
0.000502646
-0.000193253
0.000146562
0.000357196
-0.0001935
7.43183e-06
0.000205859
-0.000178223
-0.000132226
7.31506e-05
-0.00014764
-0.00023241
-2.27656e-05
-0.000105906
-0.000271114
-7.06234e-05
-5.97368e-05
-0.000250496
-6.58673e-05
-1.50649e-05
-0.00018783
-1.0247e-05
2.38915e-05
-0.000103113
8.90617e-05
5.22895e-05
-1.15206e-05
0.000220938
6.3776e-05
7.83894e-05
0.000370756
4.73624e-05
0.000168755
-7.1536e-06
0.000278088
0.000633126
-0.000137346
0.000323037
0.000669225
-0.000166713
0.00033871
0.000646847
-0.000175297
0.000324209
0.000562026
-0.000161754
0.000261038
0.000427005
-0.000135182
0.000144163
0.000266223
-0.000107226
-6.2697e-06
0.00010961
-8.32293e-05
-0.000150227
-1.64668e-05
-6.43256e-05
-0.000248111
-9.41481e-05
-5.18012e-05
-0.000280913
-0.000115066
-4.65137e-05
-0.000253145
-7.93638e-05
-4.75511e-05
-0.000182485
6.22545e-06
-5.32438e-05
-8.84416e-05
0.000129918
-6.3404e-05
1.3437e-05
0.000277268
-8.15498e-05
0.000113468
0.000431743
-0.000114939
0.000213813
-0.000157344
0.000338149
0.000582418
-0.000201586
0.000317248
0.000581872
-0.000200249
0.000326508
0.000524862
-0.000164471
0.000305209
0.000415412
-0.000108808
0.00023554
0.000269811
-5.21538e-05
0.000116408
0.000113189
-1.07331e-05
-2.90813e-05
-2.59907e-05
8.05768e-06
-0.000161779
-0.000124198
4.29007e-06
-0.00024689
-0.000168069
-1.81583e-05
-0.000270134
-0.000154578
-5.32905e-05
-0.000237955
-8.88912e-05
-9.38158e-05
-0.000167354
1.82626e-05
-0.000133566
-7.61604e-05
0.000152547
-0.000169408
2.1707e-05
0.000297451
-0.000203009
0.00011708
0.000434421
-0.000237769
0.000212847
-0.000255288
0.000331674
0.000462091
-0.00022015
0.000270304
0.000420927
-0.00018158
0.000276475
0.000330697
-0.000109739
0.000252419
0.000204754
-2.81182e-05
0.000184547
6.31645e-05
3.96058e-05
7.60814e-05
-7.00573e-05
7.6615e-05
-4.98117e-05
-0.000172064
7.73202e-05
-0.000159169
-0.000227061
4.57066e-05
-0.000224903
-0.000229317
-8.80155e-06
-0.000237918
-0.000181909
-7.46795e-05
-0.000205788
-9.37321e-05
-0.000141008
-0.000143698
2.28113e-05
-0.00019975
-6.6602e-05
0.000153029
-0.000246841
1.47374e-05
0.000279782
-0.000282416
9.40603e-05
0.000383788
-0.000305726
0.000174338
-0.000294794
0.000271755
0.000294798
0.000196923
0.000215033
0.000204593
9.80852e-05
0.000184665
-3.33156e-05
0.000128887
-0.000156008
4.27913e-05
-0.000250025
-5.31632e-05
-0.000302089
-0.000133085
-0.000307447
-0.000178025
-0.00026912
-0.000183308
-0.000195037
-0.000156672
-9.56536e-05
-0.000110832
1.71635e-05
-5.69218e-05
0.000130356
-1.19682e-06
0.000228072
5.43179e-05
0.000293178
0.000112978
0.000182812
-1.07541e-05
-0.000136319
8.45241e-05
-9.54057e-05
-5.32277e-05
0.000120253
-0.000190486
3.37996e-05
0.000122548
-0.000277501
0.000107368
9.1431e-05
-0.000343654
0.000153498
3.57566e-05
-0.000381649
0.000164984
-2.92401e-05
-0.000388306
0.00014253
-8.7245e-05
-0.000364347
9.23306e-05
-0.000127346
-0.000313735
2.4355e-05
-0.000147537
-0.000243312
-4.99687e-05
-0.000153147
-0.000161957
-0.000120185
-0.000151266
-8.00619e-05
-0.00017885
-0.000145045
-9.03535e-06
-0.000221493
-0.000130819
3.92912e-05
-0.000244359
-0.000100521
5.55992e-05
-0.00024184
-4.85217e-05
-0.000206766
2.0804e-05
-0.000150004
-1.67028e-05
4.77933e-08
-0.000240715
6.06687e-05
4.57489e-05
-0.000326875
0.000128334
6.68868e-05
-0.000393377
0.000174396
6.30501e-05
-0.000429853
0.000190223
4.07019e-05
-0.000431956
0.000173894
9.4453e-06
-0.000401119
0.000130052
-2.19252e-05
-0.000343185
6.80037e-05
-4.84675e-05
-0.000267647
-7.85468e-07
-7.07038e-05
-0.000185535
-6.4762e-05
-9.27224e-05
-0.000108111
-0.000115252
-0.000118111
-4.56918e-05
-0.000148397
-0.000144881
-6.96026e-06
-0.000163882
-0.000163095
1.58292e-06
-0.000161215
-0.000159135
-2.21145e-05
-0.00013789
-0.000125229
-9.23206e-05
-6.65049e-05
-0.000246029
0.000118863
-6.37445e-05
-0.0003335
0.000174928
-6.6936e-06
-0.000404413
0.000212728
3.50811e-05
-0.000447637
0.000223742
5.87131e-05
-0.000456576
0.000204838
6.64e-05
-0.000430522
0.000159203
6.28336e-05
-0.000374255
9.55056e-05
5.18144e-05
-0.000296782
2.56987e-05
3.46462e-05
-0.000209879
-3.73577e-05
9.71167e-06
-0.000126317
-8.25511e-05
-2.63728e-05
-5.826e-05
-0.000103711
-7.54535e-05
-1.56848e-05
-0.000101725
-0.000132366
-5.05001e-06
-8.23724e-05
-0.000181444
-2.81535e-05
-5.07566e-05
-0.000202692
-8.10906e-05
-8.54897e-06
-0.000184527
4.16063e-05
-0.000130736
-0.000292811
0.000254998
-0.000104515
-0.000368579
0.000279864
-3.86319e-05
-0.000420586
0.000281232
2.08989e-05
-0.000441593
0.000253358
6.6094e-05
-0.000428667
0.000198108
9.55936e-05
-0.000384143
0.000123604
0.000110509
-0.00031498
4.23206e-05
0.000111807
-0.000231411
-3.14679e-05
9.94736e-05
-0.000145539
-8.41797e-05
7.22039e-05
-6.99487e-05
-0.000105566
2.73365e-05
-1.61312e-05
-9.21593e-05
-3.69236e-05
7.16165e-06
-4.98357e-05
-0.000114857
-4.29913e-06
8.60245e-06
-0.000187409
-4.89387e-05
7.0879e-05
-0.000228759
-0.000118416
0.000130213
-0.000222858
0.000181366
-0.000171141
-0.000289202
0.000375084
-0.000127541
-0.00034627
0.000364382
-5.68894e-05
-0.000376848
0.000326391
1.31339e-05
-0.000377539
0.00025849
7.0844e-05
-0.000348805
0.00016766
0.000111858
-0.000295409
6.70111e-05
0.000135033
-0.000225384
-2.75078e-05
0.00014031
-0.000148604
-0.000100236
0.000128403
-7.58341e-05
-0.000137985
9.98232e-05
-1.77179e-05
-0.000132366
5.30862e-05
1.67976e-05
-8.30095e-05
-1.47756e-05
2.16057e-05
-2.16405e-07
-0.000100346
-5.13384e-06
9.67758e-05
-0.000184664
-5.99001e-05
0.000188466
-0.000238462
-0.000132628
0.000262639
-0.000241401
0.000312642
-0.000192336
-0.000236879
0.000461519
-0.000138414
-0.000269081
0.000416163
-6.73704e-05
-0.000276405
0.000338945
6.03253e-06
-0.000259044
0.000232715
6.78147e-05
-0.000220777
0.00011048
0.000111091
-0.000168204
-9.81511e-06
0.000133155
-0.000109215
-0.000109672
0.000134351
-5.16552e-05
-0.000173872
0.000118151
-3.329e-06
-0.000191305
8.86271e-05
2.87699e-05
-0.000156872
4.59708e-05
3.97726e-05
-7.37413e-05
-1.46144e-05
2.76275e-05
4.41996e-05
-9.40326e-05
-7.09489e-06
0.00017346
-0.000176951
-6.02801e-05
0.000288903
-0.000234334
-0.000123075
0.000373656
-0.000242985
0.000420176
-0.00019924
-0.000140945
0.000497678
-0.000134727
-0.000143101
0.000423222
-6.51598e-05
-0.00012656
0.000310643
7.2722e-06
-9.49143e-05
0.000172225
6.72314e-05
-5.50411e-05
2.79145e-05
0.00010501
-1.43893e-05
-0.000100513
0.000116862
2.14873e-05
-0.000194502
0.000105252
4.84189e-05
-0.00024112
7.87644e-05
6.31487e-05
-0.000233346
4.66923e-05
6.3592e-05
-0.000170551
1.1239e-05
5.00041e-05
-5.96723e-05
-3.45688e-05
2.46255e-05
8.30967e-05
-9.68325e-05
-9.87692e-06
0.000232772
-0.00016638
-5.04554e-05
0.000361751
-0.000218151
-9.13689e-05
0.000449747
-0.000228636
0.000488308
-0.00019185
-9.1837e-06
0.000472036
-0.000101041
2.17417e-05
0.000377456
-3.28086e-05
5.97098e-05
0.000238939
3.59395e-05
9.81106e-05
8.09198e-05
8.84283e-05
0.000128125
-7.01521e-05
0.000112213
0.000144315
-0.000191422
0.000103175
0.000145447
-0.000266963
6.87011e-05
0.000132875
-0.000288143
2.48981e-05
0.000108882
-0.000253136
-1.28636e-05
7.68936e-05
-0.000166245
-4.0627e-05
4.21397e-05
-3.76956e-05
-6.77621e-05
1.03771e-05
0.00011558
-0.000105356
-1.47008e-05
0.000269822
-0.000151317
-3.21458e-05
0.000398329
-0.000187442
-4.06807e-05
0.000479282
-0.000192684
0.000502143
-0.000159235
0.000149376
0.000383291
-1.95041e-05
0.000210758
0.000280254
4.60719e-05
0.000262252
0.000131688
0.000105942
0.000294826
-2.65632e-05
0.000142499
0.000300913
-0.000164813
0.000141397
0.000280096
-0.000263028
0.000100588
0.000237743
-0.000310032
3.44006e-05
0.000181422
-0.000302417
-3.21139e-05
0.000119154
-0.000243496
-7.79026e-05
5.96062e-05
-0.00014177
-9.84182e-05
1.19116e-05
-9.50448e-06
-0.000105187
-1.62184e-05
0.000137235
-0.000113072
-2.13968e-05
0.000278069
-0.000126339
-5.41415e-06
0.000390031
-0.000134991
2.78054e-05
0.00045222
-0.000123144
0.000450058
-8.21777e-05
0.000315533
0.000246023
0.000104313
0.000397569
0.000145673
0.000163018
0.0004495
7.75854e-06
0.000207224
0.000461661
-0.000127776
0.000219154
0.00043136
-0.000233859
0.000184312
0.000365713
-0.000296706
0.000104736
0.000277338
-0.000310837
3.29395e-06
0.000179799
-0.000277594
-8.63807e-05
8.63169e-05
-0.000204285
-0.000139493
9.69604e-06
-0.0001019
-0.000152201
-3.8737e-05
1.71631e-05
-0.000137794
-5.12813e-05
0.000139366
-0.000113239
-2.60542e-05
0.00024907
-8.75196e-05
3.1981e-05
0.000329221
-5.8625e-05
0.000113905
0.000362227
-1.75351e-05
0.000330482
4.51906e-05
0.000456288
8.84151e-05
0.000232584
0.000542199
-9.50924e-07
0.000280996
0.000580045
-0.000108094
0.000306786
0.000561224
-0.000200631
0.000291105
0.000489913
-0.000260585
0.000220875
0.000380884
-0.000282422
0.000103985
0.000253038
-0.000266269
-2.80011e-05
0.000124998
-0.000216958
-0.000134971
1.40256e-05
-0.000143797
-0.000191068
-6.47125e-05
-5.77616e-05
-0.000194364
-9.98954e-05
3.09706e-05
-0.000159499
-8.59071e-05
0.00011307
-0.000104415
-2.39842e-05
0.000178654
-4.13229e-05
7.73593e-05
0.000217083
2.52533e-05
0.000205405
0.000216545
9.89378e-05
0.000161838
0.000192363
0.000536015
-5.95033e-05
0.000322661
0.000607205
-0.000130061
0.000360786
0.000618926
-0.000192432
0.000370736
0.000566088
-0.000230632
0.000331428
0.000459281
-0.000239752
0.000232535
0.000318625
-0.000222992
8.86576e-05
0.000167153
-0.000185412
-6.16095e-05
2.67945e-05
-0.000133775
-0.000175236
-8.31324e-05
-7.6794e-05
-0.00022819
-0.000147589
-2.25485e-05
-0.000221252
-0.0001577
2.33788e-05
-0.000170128
-0.000111864
5.72508e-05
-9.31294e-05
-1.57126e-05
7.52936e-05
-4.31238e-06
0.000118983
7.26267e-05
8.81503e-05
0.000276598
4.26028e-05
0.000185081
-1.97988e-05
0.00030474
0.000535751
-0.000175188
0.000354255
0.000577211
-0.00021723
0.00038442
0.000555698
-0.000229466
0.000382756
0.000472519
-0.000213728
0.000327313
0.000343028
-0.000177961
0.000211864
0.000189604
-0.000132821
5.69827e-05
3.63751e-05
-8.69743e-05
-9.54356e-05
-9.42891e-05
-4.71854e-05
-0.000204036
-0.000184091
-1.90136e-05
-0.000248891
-0.000220971
-5.23693e-06
-0.000233576
-0.00020044
-5.44738e-06
-0.000174191
-0.000125586
-1.75923e-05
-8.84527e-05
-6.24326e-06
-4.02251e-05
9.61325e-06
0.000142869
-7.39422e-05
0.000110924
0.000304252
-0.000120811
0.000215845
-0.000173857
0.000345174
0.00045869
-0.000244787
0.000329595
0.000462398
-0.00024944
0.000355009
0.000407206
-0.000214913
0.000345848
0.000302361
-0.000156175
0.000282833
0.000166248
-9.02799e-05
0.00016484
2.09117e-05
-3.25279e-05
1.59618e-05
-0.000111708
7.40832e-06
-0.000123542
-0.000212573
2.4856e-05
-0.000218065
-0.000267839
1.90415e-05
-0.000252923
-0.000270693
-6.65152e-06
-0.000233687
-0.000221579
-4.62828e-05
-0.000175632
-0.000127506
-9.33936e-05
-9.44324e-05
-7.94036e-07
-0.000143056
-2.17315e-06
0.000142195
-0.000192987
9.31362e-05
0.000283012
-0.00024119
0.000192408
-0.00027326
0.000312652
0.000324961
-0.000261465
0.000263191
0.000290685
-0.000226025
0.000287336
0.000208161
-0.000155659
0.000275688
9.36438e-05
-7.16474e-05
0.000214537
-3.32712e-05
5.35915e-06
0.000107357
-0.000152448
5.84312e-05
-2.15937e-05
-0.000247228
8.1006e-05
-0.000137988
-0.000305172
7.18944e-05
-0.000213997
-0.000319555
3.54313e-05
-0.000239925
-0.000289552
-2.035e-05
-0.000222092
-0.000219828
-8.58447e-05
-0.00017386
-0.000119414
-0.000152374
-0.000108035
-1.03191e-06
-0.000213542
-3.31592e-05
0.000119237
-0.000265278
4.60822e-05
0.000223891
-0.000302383
0.000130878
-0.000309294
0.00023051
0.000166658
0.000174179
0.00010007
0.000200363
-9.085e-07
0.000193238
-0.00011463
0.000144446
-0.00022001
5.93795e-05
-0.0003014
-4.13393e-05
-0.000348892
-0.0001306
-0.000359144
-0.000188133
-0.000333697
-0.000207929
-0.000277417
-0.000196235
-0.000197619
-0.000164097
-0.000103408
-0.000120593
-5.73222e-06
-7.00118e-05
8.19353e-05
-1.28156e-05
0.000145553
5.29036e-05
0.000129042
-9.75952e-05
-0.000168907
2.73097e-05
-0.000155288
-9.55401e-05
7.76661e-05
-0.000221891
-1.04624e-05
9.39348e-05
-0.000283979
7.15209e-05
7.31167e-05
-0.000331068
0.000136376
2.28993e-05
-0.000356828
0.000174367
-4.09116e-05
-0.000359013
0.000180667
-0.000100971
-0.000338913
0.000155181
-0.000145596
-0.000300532
0.00010294
-0.000172518
-0.000249815
3.35218e-05
-0.000186818
-0.000193929
-4.15918e-05
-0.000194992
-0.000140254
-0.000112518
-0.000198995
-9.54879e-05
-0.000171982
-0.000193678
-6.5402e-05
-0.000213442
-0.000169733
-5.4324e-05
-0.000229645
-0.000120685
-0.000213928
-5.06685e-05
-0.000169148
-5.09388e-05
-6.0939e-05
-0.000232258
1.52119e-05
-1.8931e-06
-0.000291237
8.22033e-05
3.32005e-05
-0.000335324
0.000138244
4.04142e-05
-0.000356044
0.000173541
2.42572e-05
-0.000349361
0.000182757
-5.62795e-06
-0.000316446
0.000165195
-3.93686e-05
-0.00026327
0.00012449
-7.09529e-05
-0.000199391
6.84232e-05
-0.000100066
-0.000135955
7.72802e-06
-0.000130364
-8.34151e-05
-4.7382e-05
-0.000164861
-4.91328e-05
-9.11548e-05
-0.000200526
-3.62602e-05
-0.000121687
-0.000226262
-4.43504e-05
-0.000136763
-0.000227724
-7.09598e-05
-0.000132074
-0.000196191
-0.000104125
-0.000135101
-0.000198361
7.87855e-05
-0.000125742
-0.000259186
0.000126252
-5.6909e-05
-0.000305906
0.000165686
-1.68163e-06
-0.000330248
0.000188161
3.3137e-05
-0.000326683
0.000188375
4.80015e-05
-0.00029409
0.00016571
4.72882e-05
-0.000236612
0.00012397
3.5561e-05
-0.000163235
7.07135e-05
1.50463e-05
-8.64368e-05
1.64854e-05
-1.51486e-05
-1.99943e-05
-2.69932e-05
-5.80941e-05
2.41643e-05
-5.16898e-05
-0.000115304
3.88903e-05
-5.75238e-05
-0.000180723
2.40338e-05
-5.06305e-05
-0.000237643
-1.46464e-05
-3.53878e-05
-0.000265387
-6.8939e-05
-1.10183e-05
-0.00025129
2.39192e-05
-0.000197085
-0.000189855
0.000206019
-0.000165218
-0.0002414
0.000227795
-8.86303e-05
-0.000272043
0.000233893
-1.66645e-05
-0.000276838
0.000218584
4.0467e-05
-0.000253379
0.00018122
7.9289e-05
-0.000203395
0.000126149
0.000100086
-0.000133246
6.17811e-05
0.000103847
-5.32926e-05
-6.22595e-07
9.08559e-05
2.34143e-05
-4.82821e-05
6.02645e-05
8.30676e-05
-6.92375e-05
9.92761e-06
0.000114104
-5.78373e-05
-6.18124e-05
0.000110742
-2.01943e-05
-0.000148825
7.49514e-05
2.86859e-05
-0.000230934
1.59389e-05
7.62282e-05
-0.000281363
-5.40221e-05
0.000118787
-0.000282703
0.000157108
-0.000235028
-0.000151573
0.000316139
-0.000183488
-0.00018673
0.000308767
-0.000102705
-0.000197961
0.000278385
-2.01272e-05
-0.00018357
0.000223713
5.13231e-05
-0.000144592
0.000149206
0.000104895
-8.55786e-05
6.45004e-05
0.000137667
-1.44323e-05
-1.75613e-05
0.000148506
5.86089e-05
-8.29865e-05
0.000137726
0.000121912
-0.000118232
0.00010647
0.000164097
-0.000112667
5.43311e-05
0.000176665
-6.38903e-05
-2.12905e-05
0.000156629
1.66036e-05
-0.000117108
0.000107661
0.000106219
-0.00021323
4.00245e-05
0.000184423
-0.000279019
-3.27422e-05
0.000242681
-0.000292528
0.00028121
-0.000251781
-9.09424e-05
0.000393826
-0.000184266
-0.000103206
0.000356167
-0.000102507
-9.21182e-05
0.000288556
-1.5226e-05
-5.92933e-05
0.000195837
6.28662e-05
-9.47647e-06
8.8492e-05
0.000121988
5.00159e-05
-1.83279e-05
0.000156491
0.000110677
-0.000108457
0.000164585
0.00016392
-0.000167129
0.00014905
0.00020152
-0.000182452
0.000115246
0.0002167
-0.000147315
6.54394e-05
0.000206169
-6.35834e-05
-4.39016e-06
0.000171145
5.31052e-05
-9.55103e-05
0.000116833
0.000175574
-0.000191995
5.23655e-05
0.000277676
-0.00026312
-1.03423e-05
0.000346352
-0.000283949
0.000380987
-0.000250251
-1.44709e-05
0.000424612
-0.000164459
1.57113e-06
0.000357626
-8.2661e-05
3.64338e-05
0.000255199
5.76718e-06
8.49779e-05
0.000130257
8.42673e-05
0.000138877
-2.77459e-07
0.000139881
0.000188564
-0.000115869
0.000164715
0.000226911
-0.000200281
0.000158729
0.000248785
-0.000240341
0.000130102
0.000251135
-0.000228493
9.03833e-05
0.000233371
-0.000163012
4.46995e-05
0.000198478
-5.05084e-05
-1.27505e-05
0.000152153
9.0779e-05
-8.81814e-05
0.000100653
0.000232602
-0.000171908
5.0452e-05
0.000346752
-0.000237026
9.50476e-06
0.000416938
-0.000258275
0.00044117
-0.000229111
7.46246e-05
0.000398411
-0.000111065
0.000121719
0.000306106
-2.83835e-05
0.000178306
0.000176443
5.81084e-05
0.000235665
3.14852e-05
0.000129841
0.000282286
-0.00010545
0.000170764
0.000309853
-0.000213187
0.000172926
0.000314226
-0.0002767
0.000140747
0.000295778
-0.000287921
9.09265e-05
0.000257808
-0.000245314
4.19272e-05
0.000206547
-0.000153135
7.57705e-07
0.00015092
-2.21881e-05
-4.04554e-05
0.000100174
0.000128522
-9.23531e-05
6.06122e-05
0.00027268
-0.000151833
3.51269e-05
0.000383495
-0.0001987
2.63251e-05
0.000443426
-0.000210369
0.000448337
-0.000178476
0.000176078
0.000314467
-1.04429e-05
0.000251674
0.00020528
7.1302e-05
0.000321799
6.27671e-05
0.000149493
0.000374857
-8.31385e-05
0.000204064
0.000399884
-0.000206457
0.000217377
0.000392068
-0.000288532
0.000183749
0.000353322
-0.000319377
0.000115822
0.000290327
-0.000297232
4.01934e-05
0.000212955
-0.000226818
-1.9027e-05
0.000133653
-0.000117523
-5.47287e-05
6.58882e-05
1.73441e-05
-7.69551e-05
2.07451e-05
0.000159922
-9.93289e-05
3.40929e-06
0.00028801
-0.000124333
1.28175e-05
0.000379048
-0.000139952
4.57293e-05
0.00041654
-0.00012917
0.000393893
-8.32008e-05
0.000283397
0.000185293
0.000128524
0.000377109
7.13414e-05
0.000203244
0.000446355
-6.37619e-05
0.000264508
0.000479021
-0.000188012
0.000291362
0.000468411
-0.000278101
0.000266566
0.000416409
-0.000321531
0.000189737
0.000331706
-0.000315024
8.36443e-05
0.000227098
-0.000262966
-1.60397e-05
0.000118197
-0.00017512
-8.22891e-05
2.21555e-05
-6.3896e-05
-0.000109786
-4.51687e-05
5.71903e-05
-0.000110317
-7.29131e-05
0.000173309
-9.88818e-05
-5.80738e-05
0.000267931
-8.22804e-05
-5.66861e-06
0.00032481
-5.6793e-05
7.54885e-05
0.000331146
-1.32984e-05
0.000279052
5.70871e-05
0.000373126
3.48059e-05
0.000265523
0.000468045
-7.04309e-05
0.00032785
0.000520306
-0.000176833
0.000367596
0.000520049
-0.000259121
0.00036247
0.000467549
-0.000302292
0.000297564
0.000372003
-0.000302069
0.000180068
0.000248022
-0.000261843
4.27988e-05
0.000113313
-0.000190764
-7.24634e-05
-1.23335e-05
-0.000101396
-0.000139145
-0.00010937
-6.41991e-06
-0.000154803
-0.000162134
8.30467e-05
-0.000132592
-0.000162102
0.000157062
-8.81995e-05
-0.00010966
0.000205925
-3.1759e-05
-1.37445e-05
0.000220606
3.35427e-05
0.000112418
0.000194028
0.000109893
0.000120806
0.000207448
0.000412589
-0.000109371
0.000354578
0.000490968
-0.000192333
0.000404309
0.000514351
-0.000253964
0.000424485
0.000477868
-0.00028271
0.000391501
0.000388629
-0.000274935
0.000294418
0.000261304
-0.000234852
0.000148766
0.000114405
-0.000171394
-5.16004e-06
-3.14076e-05
-9.65479e-05
-0.000123639
-0.000154523
-2.28272e-05
-0.000183644
-0.000235899
3.97473e-05
-0.000186043
-0.000262709
8.48817e-05
-0.000145153
-0.000230626
0.000108902
-7.70518e-05
-0.000144319
0.000109117
6.18841e-06
-1.63297e-05
8.35328e-05
9.7234e-05
0.00013761
3.0427e-05
0.000194743
-4.84156e-05
0.000311241
0.0003828
-0.000223252
0.000374023
0.00043156
-0.000271486
0.000414814
0.000421677
-0.00028215
0.000420825
0.000354833
-0.000257772
0.000369218
0.000243008
-0.000205647
0.000254401
0.000103456
-0.000137059
9.87413e-05
-4.41863e-05
-6.46903e-05
-5.44968e-05
-0.000178962
-1.01151e-06
-0.000164797
-0.000280713
4.40494e-05
-0.000214016
-0.00033382
6.5491e-05
-0.000206213
-0.000330183
6.31853e-05
-0.000156131
-0.000270402
3.99763e-05
-7.93088e-05
-0.000162704
-1.27687e-06
1.23091e-05
-2.25735e-05
-5.61837e-05
0.00011051
0.000133073
-0.000122841
0.000213466
-0.000191897
0.000333041
0.000290376
-0.000289865
0.00032961
0.000304108
-0.000296184
0.000365976
0.000264071
-0.000260207
0.000363942
0.000178405
-0.000193982
0.000304709
6.16669e-05
-0.000112422
0.000188352
-6.8917e-05
-3.10974e-05
4.05839e-05
-0.000195412
3.60206e-05
-9.77574e-05
-0.000299999
7.80913e-05
-0.000192582
-0.000367162
8.94488e-05
-0.000231159
-0.000386818
7.0892e-05
-0.000219432
-0.000355979
2.79761e-05
-0.000171262
-0.000279259
-3.08643e-05
-0.000100312
-0.00016752
-9.87658e-05
-1.64239e-05
-3.59678e-05
-0.000168928
7.43292e-05
9.7951e-05
-0.000234708
0.000170357
-0.000283832
0.000278761
0.00016187
-0.000301173
0.00024188
0.000142669
-0.000267472
0.000277825
8.09427e-05
-0.000197229
0.000274436
-1.04416e-05
-0.000106758
0.000218697
-0.000116113
-1.42942e-05
0.000114901
-0.000220537
6.37308e-05
-1.19977e-05
-0.000309896
0.000114762
-0.00012737
-0.000372444
0.000131277
-0.000204635
-0.000399681
0.000112123
-0.000235362
-0.000387807
6.28814e-05
-0.000225956
-0.000338568
-6.67501e-06
-0.000188448
-0.000258352
-8.57388e-05
-0.000133377
-0.000157987
-0.000164877
-6.74128e-05
-5.14653e-05
-0.000235901
6.53282e-06
4.63953e-05
-0.000290031
8.83401e-05
-0.000315571
0.000179393
3.37478e-05
0.000136033
-1.17224e-05
0.000174182
-8.66554e-05
0.000176619
-0.000174738
0.000134653
-0.000259602
5.35188e-05
-0.000328197
-4.59494e-05
-0.000372223
-0.000136569
-0.000388163
-0.000197946
-0.000376199
-0.00022411
-0.000339069
-0.000221051
-0.000281568
-0.000198842
-0.000210181
-0.000164926
-0.000133111
-0.000121884
-6.03836e-05
-6.88758e-05
-2.24641e-06
-4.53415e-06
6.92444e-05
-0.000156315
-0.000196821
-4.11745e-05
-0.000188816
-0.000130755
1.55699e-05
-0.000227628
-4.49338e-05
4.29003e-05
-0.000265004
4.77636e-05
3.43393e-05
-0.000293351
0.000133058
-4.87019e-06
-0.000307526
0.000197851
-5.9798e-05
-0.000305761
0.000231345
-0.000113027
-0.000289426
0.000227122
-0.000152911
-0.00026211
0.000185828
-0.000177534
-0.000228839
0.000116025
-0.000192508
-0.000195421
3.13395e-05
-0.00020477
-0.000166859
-5.48845e-05
-0.000216392
-0.000146012
-0.000132057
-0.000222052
-0.000133657
-0.000191246
-0.000211477
-0.000129808
-0.00022388
-0.000176108
-0.000222641
-0.000116479
-0.000163737
-8.68938e-05
-0.000129984
-0.000202907
-2.81073e-05
-6.53703e-05
-0.00023651
4.09214e-05
-1.90521e-05
-0.000258374
0.000108787
1.25428e-06
-0.000262503
0.000164572
-3.12764e-06
-0.000245626
0.000199223
-2.38766e-05
-0.000208978
0.000206388
-5.10595e-05
-0.000158489
0.000183902
-7.82209e-05
-0.000103764
0.000135879
-0.000104844
-5.60472e-05
7.28757e-05
-0.000134931
-2.53323e-05
8.04771e-06
-0.000172284
-1.66374e-05
-4.9552e-05
-0.000214553
-2.83065e-05
-9.5916e-05
-0.000250734
-5.40813e-05
-0.000127427
-0.000265769
-8.71305e-05
-0.000138435
-0.000248587
-0.00012384
-0.000198178
-0.000137908
3.07552e-05
-0.000192789
-0.000176738
7.35196e-05
-0.000119706
-0.000200462
0.00011698
-5.40165e-05
-0.000204733
0.000152255
-6.05917e-06
-0.000185872
0.000172342
2.13706e-05
-0.000143195
0.000172798
3.10343e-05
-8.07893e-05
0.000152243
2.72999e-05
-7.82694e-06
0.000113264
1.27219e-05
6.266e-05
6.37031e-05
-1.34598e-05
0.000115664
1.63384e-05
-5.45605e-05
0.000138771
-1.70673e-05
-0.000113297
0.000127304
-3.39516e-05
-0.000184856
8.67671e-05
-4.01649e-05
-0.000252858