/*--------------------------------*- C++ -*----------------------------------*\
| =========                 |                                                 |
| \\      /  F ield         | OpenFOAM: The Open Source CFD Toolbox           |
|  \\    /   O peration     | Version:  3.0.0                                 |
|   \\  /    A nd           | Web:      www.OpenFOAM.org                      |
|    \\/     M anipulation  |                                                 |
\*---------------------------------------------------------------------------*/
FoamFile
{
    version     2.0;
    format      ascii;
    class       volVectorField;
    location    "9.5";
    object      U;
}
// * * * * * * * * * * * * * * * * * * * * * * * * * * * * * * * * * * * * * //

dimensions      [0 1 -1 0 0 0 0];

internalField   nonuniform List<vector> 
4096
(
(0.0343062 -0.0420182 0.0341479)
(0.0121038 -0.0180591 0.0348025)
(-0.018353 0.00744075 0.0295033)
(-0.0480712 0.028486 0.0186959)
(-0.0730325 0.0404575 0.00455519)
(-0.0904998 0.0414684 -0.0094221)
(-0.0985816 0.0321557 -0.0196188)
(-0.0964715 0.0149805 -0.0237441)
(-0.0846075 -0.00668668 -0.0218382)
(-0.0645961 -0.0292909 -0.0159379)
(-0.0389516 -0.0498041 -0.00876947)
(-0.0108042 -0.0661733 -0.00228744)
(0.016203 -0.0772894 0.00334693)
(0.0375607 -0.0825903 0.0095504)
(0.048056 -0.0806739 0.0181971)
(0.0480905 -0.0673194 0.0298372)
(-0.0132491 -0.013796 0.0145488)
(-0.0410785 0.0107762 0.0184975)
(-0.0714136 0.0324601 0.0181754)
(-0.0971102 0.0473178 0.0143523)
(-0.114637 0.0522208 0.00886599)
(-0.122084 0.0463402 0.00387267)
(-0.119039 0.031317 0.000999271)
(-0.106525 0.0105395 0.000738363)
(-0.0866123 -0.0119769 0.00226934)
(-0.0619944 -0.0326047 0.00380242)
(-0.0356809 -0.0488079 0.00352431)
(-0.0108454 -0.0593667 0.000800323)
(0.00913567 -0.0640299 -0.0028795)
(0.0205123 -0.0626795 -0.00439687)
(0.0198798 -0.0546607 -0.00113186)
(0.00890548 -0.0385961 0.00664758)
(-0.0549829 0.0191217 -0.000708128)
(-0.0833749 0.0404395 0.00695221)
(-0.110984 0.0551071 0.0124159)
(-0.130522 0.0608656 0.0157641)
(-0.139949 0.0566165 0.0178775)
(-0.138699 0.0432508 0.0196326)
(-0.127636 0.0235221 0.0214079)
(-0.108803 0.00124687 0.0228861)
(-0.0849177 -0.0196367 0.0230476)
(-0.0589804 -0.0359572 0.0203917)
(-0.0340662 -0.0458863 0.0136022)
(-0.0133221 -0.0490827 0.00284152)
(2.48936e-05 -0.0461794 -0.00900179)
(0.00279332 -0.0378336 -0.0170623)
(-0.00696987 -0.0244367 -0.0176034)
(-0.0240622 -0.0068553 -0.0109214)
(-0.0852006 0.0554412 -0.0108061)
(-0.109952 0.0686807 3.09355e-05)
(-0.132948 0.0737503 0.0103459)
(-0.145885 0.0692722 0.0189523)
(-0.14834 0.0557517 0.0258235)
(-0.140875 0.0354733 0.0310915)
(-0.125138 0.0120586 0.0346638)
(-0.103611 -0.0103956 0.0361314)
(-0.0791252 -0.0281379 0.0346818)
(-0.054595 -0.0384772 0.0290488)
(-0.0329164 -0.0402903 0.0180152)
(-0.0169961 -0.0341837 0.00195479)
(-0.00971272 -0.0220452 -0.0153952)
(-0.0136174 -0.00602998 -0.0277486)
(-0.0295163 0.0119519 -0.0301705)
(-0.0484991 0.0292981 -0.0225485)
(-0.0995868 0.0904064 -0.0175129)
(-0.118097 0.0927335 -0.00494183)
(-0.135189 0.0869575 0.0079913)
(-0.1419 0.0719976 0.0188918)
(-0.139091 0.0496591 0.0272025)
(-0.128112 0.0233587 0.0328847)
(-0.110957 -0.00265811 0.0359762)
(-0.0900894 -0.0241948 0.0364617)
(-0.0680862 -0.0377831 0.0339471)
(-0.0475069 -0.0412543 0.0273373)
(-0.0308086 -0.0341614 0.0151847)
(-0.0203236 -0.0180134 -0.0024915)
(-0.0182329 0.0039194 -0.0218647)
(-0.0263298 0.0276043 -0.0359068)
(-0.0447299 0.0494593 -0.0387515)
(-0.0625829 0.0657108 -0.0296721)
(-0.0953441 0.119076 -0.0231592)
(-0.106422 0.109939 -0.0103707)
(-0.116665 0.0931545 0.00286194)
(-0.117855 0.0681046 0.0134836)
(-0.111633 0.0377892 0.0206706)
(-0.0998629 0.00664923 0.024532)
(-0.0845023 -0.0206669 0.0256051)
(-0.0675687 -0.0400606 0.0245995)
(-0.0510292 -0.048543 0.0217658)
(-0.0367967 -0.0446224 0.0161671)
(-0.0265908 -0.0286077 0.00590123)
(-0.021836 -0.00285828 -0.0098021)
(-0.0237167 0.0281371 -0.0277996)
(-0.033233 0.0585924 -0.0412348)
(-0.0502665 0.083409 -0.0438201)
(-0.064818 0.0982802 -0.0341782)
(-0.0723573 0.136704 -0.0276349)
(-0.0754027 0.11776 -0.015405)
(-0.0781468 0.0907763 -0.00321023)
(-0.0747762 0.056761 0.00567392)
(-0.0672862 0.0200794 0.0101673)
(-0.0576984 -0.0140043 0.010601)
(-0.047443 -0.040754 0.0082959)
(-0.0376029 -0.0565 0.00509999)
(-0.0291935 -0.0589749 0.00220216)
(-0.0231891 -0.0475714 -0.00111503)
(-0.0203127 -0.02348 -0.00734023)
(-0.0208952 0.0101825 -0.0183429)
(-0.0250851 0.04813 -0.0322997)
(-0.0332153 0.0834389 -0.0433776)
(-0.0452846 0.10989 -0.0455146)
(-0.0546532 0.123124 -0.0367811)
(-0.0336272 0.138952 -0.0263685)
(-0.0277979 0.11374 -0.014963)
(-0.0232199 0.07871 -0.004402)
(-0.0169248 0.0381517 0.00184959)
(-0.010934 -0.00198641 0.00233099)
(-0.00684416 -0.0361147 -0.00237367)
(-0.00492163 -0.059916 -0.00977424)
(-0.00487601 -0.0704852 -0.0164184)
(-0.00647175 -0.0664629 -0.0198637)
(-0.00954086 -0.0482719 -0.0205466)
(-0.0136978 -0.0180264 -0.0216095)
(-0.0182498 0.0205963 -0.0261626)
(-0.022549 0.0620887 -0.0340564)
(-0.0265717 0.0992988 -0.0411472)
(-0.0307246 0.125412 -0.0421971)
(-0.0324788 0.136072 -0.0349788)
(0.0150803 0.122996 -0.0132322)
(0.0307387 0.0961106 -0.00319563)
(0.0409976 0.0570932 0.00480662)
(0.0476654 0.0143245 0.00714316)
(0.0489181 -0.0249249 0.00191589)
(0.0442887 -0.0555138 -0.00988409)
(0.0352824 -0.0740279 -0.0242536)
(0.0238728 -0.0784335 -0.0357631)
(0.0117012 -0.0683213 -0.0405751)
(0.000153256 -0.0451393 -0.0388794)
(-0.00936973 -0.0117898 -0.0344566)
(-0.0154724 0.0277936 -0.0315488)
(-0.0171403 0.0684446 -0.0316476)
(-0.0144102 0.103659 -0.0325885)
(-0.00846616 0.126681 -0.0304984)
(0.00109594 0.132611 -0.0231935)
(0.0652873 0.0904505 0.0117078)
(0.0905711 0.065931 0.0199422)
(0.103432 0.0285435 0.0242115)
(0.107649 -0.0105844 0.0212263)
(0.101509 -0.0439284 0.00880074)
(0.0861011 -0.0675992 -0.0114985)
(0.0650619 -0.0792375 -0.03393)
(0.0421641 -0.0775698 -0.0510011)
(0.0205065 -0.0630249 -0.0576296)
(0.00263822 -0.0378683 -0.053915)
(-0.00931007 -0.00544543 -0.0441784)
(-0.0137325 0.0304387 -0.033479)
(-0.00976897 0.0653782 -0.0246009)
(0.00197814 0.0941624 -0.0172521)
(0.0189526 0.110858 -0.00916335)
(0.0440955 0.109526 0.00181898)
(0.107337 0.0489612 0.040354)
(0.139664 0.0287074 0.0466212)
(0.151302 -0.00170569 0.0470264)
(0.150881 -0.0314834 0.0384395)
(0.136365 -0.0546237 0.0186363)
(0.110219 -0.0690457 -0.010007)
(0.0781794 -0.0734296 -0.0399393)
(0.045783 -0.0670905 -0.0618577)
(0.0175394 -0.0510574 -0.0698853)
(-0.0030766 -0.0279678 -0.0642834)
(-0.0136845 -0.00103552 -0.0497986)
(-0.0130739 0.0265673 -0.0319781)
(-0.00110271 0.0515382 -0.0145058)
(0.0205108 0.0702706 0.00140327)
(0.0472957 0.0781513 0.0168551)
(0.0893382 0.068932 0.0348111)
(0.134443 0.00848811 0.0633917)
(0.168688 -0.00731394 0.0676079)
(0.175389 -0.0273419 0.064939)
(0.168679 -0.0440681 0.0517397)
(0.146286 -0.0546252 0.0259581)
(0.111548 -0.0590823 -0.008999)
(0.071739 -0.0571908 -0.0440054)
(0.0338841 -0.0487805 -0.0685898)
(0.00357394 -0.0350902 -0.0767643)
(-0.0153306 -0.0184209 -0.0692284)
(-0.0208518 -0.00108038 -0.05104)
(-0.0127752 0.0149863 -0.0279673)
(0.00789078 0.0278875 -0.00423509)
(0.0379904 0.0354869 0.017924)
(0.0710922 0.0344456 0.0392979)
(0.125066 0.0203615 0.0645991)
(0.144089 -0.0241743 0.0757971)
(0.17389 -0.0349986 0.077832)
(0.172783 -0.0431791 0.0728485)
(0.158471 -0.0459064 0.0565024)
(0.129436 -0.0440071 0.0271799)
(0.0896102 -0.0396867 -0.0106622)
(0.0469652 -0.03385 -0.0469617)
(0.00922265 -0.0267467 -0.0711464)
(-0.0177658 -0.0192259 -0.0778941)
(-0.0306057 -0.0123963 -0.0685143)
(-0.028388 -0.00694375 -0.0481896)
(-0.012214 -0.00318941 -0.022599)
(0.015711 -0.00159773 0.00391751)
(0.0510902 -0.00332159 0.0286693)
(0.0862593 -0.0106887 0.0525673)
(0.142098 -0.0242336 0.0819477)
(0.136494 -0.0464244 0.076496)
(0.156007 -0.0503842 0.0766268)
(0.145607 -0.0465999 0.0699129)
(0.123313 -0.0368588 0.0519584)
(0.0895514 -0.0250775 0.0220051)
(0.0489153 -0.0150746 -0.014669)
(0.0091544 -0.0086878 -0.0481062)
(-0.0225394 -0.00622223 -0.0688793)
(-0.0412729 -0.00746633 -0.0729716)
(-0.0450136 -0.0117267 -0.0622765)
(-0.0342634 -0.0178322 -0.0418019)
(-0.0112885 -0.0246108 -0.0167655)
(0.0208682 -0.0314853 0.00885851)
(0.0574625 -0.0390467 0.0325286)
(0.0907201 -0.0486636 0.0552782)
(0.138092 -0.0569762 0.08358)
(0.11345 -0.0575384 0.0670622)
(0.118917 -0.0521742 0.0661403)
(0.099324 -0.0376097 0.0585864)
(0.0702861 -0.0189379 0.0409009)
(0.0347057 -0.00182206 0.0134679)
(-0.00218215 0.00934493 -0.0181767)
(-0.033716 0.0125889 -0.0453221)
(-0.0545755 0.00820596 -0.060655)
(-0.061971 -0.00216193 -0.061739)
(-0.0557249 -0.0161075 -0.0508428)
(-0.0375986 -0.0310527 -0.0324579)
(-0.0104911 -0.044939 -0.0109874)
(0.0222919 -0.0566689 0.0104259)
(0.0561862 -0.0664064 0.0299811)
(0.0841822 -0.0743926 0.0487198)
(0.116625 -0.0751679 0.0716455)
(0.0787911 -0.054969 0.05075)
(0.0696812 -0.0402575 0.0500484)
(0.0421069 -0.0177743 0.0433482)
(0.00857846 0.00560745 0.028525)
(-0.0254464 0.0230895 0.00673468)
(-0.0544413 0.0304777 -0.0169714)
(-0.0738096 0.0270666 -0.0359953)
(-0.0812055 0.0149312 -0.045428)
(-0.0765692 -0.00260543 -0.044237)
(-0.0615034 -0.0220817 -0.0347678)
(-0.0385182 -0.0406278 -0.0207396)
(-0.0105302 -0.056376 -0.00543217)
(0.0194271 -0.0684302 0.00921106)
(0.0474318 -0.0767996 0.0225526)
(0.0678364 -0.0808747 0.0356722)
(0.0844143 -0.0752942 0.0514318)
(0.00592854 -0.0499169 0.0283073)
(-0.011914 -0.0280252 0.0350797)
(-0.0364688 -0.00350024 0.0336622)
(-0.0608156 0.0183547 0.0243912)
(-0.0810944 0.0332572 0.00969536)
(-0.0948473 0.0391472 -0.00660285)
(-0.100733 0.0359613 -0.0205623)
(-0.0984371 0.0249389 -0.0295775)
(-0.0885598 0.00821582 -0.0332671)
(-0.0725084 -0.0115308 -0.0330807)
(-0.0523565 -0.0315744 -0.0309713)
(-0.0306558 -0.0496525 -0.027945)
(-0.01023 -0.0640962 -0.0233209)
(0.0057971 -0.0734684 -0.0152202)
(0.0142 -0.0757791 -0.00220559)
(0.0151744 -0.0680648 0.0148321)
(-0.0276841 -0.0203751 0.00713945)
(-0.049347 0.000985426 0.0166867)
(-0.0734389 0.0214863 0.020161)
(-0.0938941 0.0374487 0.0178932)
(-0.107556 0.0458233 0.0117198)
(-0.112624 0.0453629 0.00405296)
(-0.108752 0.0367252 -0.00304388)
(-0.0969357 0.0219527 -0.00855349)
(-0.0792061 0.0038944 -0.0127342)
(-0.058259 -0.014415 -0.0167673)
(-0.037039 -0.0304452 -0.0217248)
(-0.0184083 -0.0426833 -0.0273153)
(-0.00487214 -0.0504397 -0.031221)
(0.00149248 -0.0531024 -0.0300914)
(-0.000738763 -0.0496265 -0.0219157)
(-0.0094413 -0.0389074 -0.00804357)
(-0.0522775 0.0128391 -0.00897169)
(-0.0742377 0.0306313 0.0036122)
(-0.0959184 0.0446211 0.0125811)
(-0.111208 0.0522183 0.0173768)
(-0.118108 0.0519632 0.0188188)
(-0.115802 0.0440281 0.0180672)
(-0.104851 0.0301235 0.0159406)
(-0.0870963 0.0129879 0.0126002)
(-0.0652729 -0.00422709 0.00750424)
(-0.0425963 -0.0185922 -0.000324024)
(-0.0223493 -0.0281844 -0.0114861)
(-0.00750144 -0.0325862 -0.0248468)
(-0.000311639 -0.0324082 -0.0366244)
(-0.00202236 -0.0281225 -0.0418518)
(-0.0125861 -0.01958 -0.0375568)
(-0.0271758 -0.00693048 -0.0248591)
(-0.0657383 0.0484019 -0.0194573)
(-0.0851603 0.0591486 -0.0043496)
(-0.102858 0.0644187 0.00920584)
(-0.112631 0.0623683 0.0194471)
(-0.113639 0.0528678 0.0262075)
(-0.105981 0.0373812 0.0297925)
(-0.0908943 0.0186343 0.030388)
(-0.0706541 1.51137e-05 0.0279038)
(-0.0481832 -0.0150501 0.0219009)
(-0.0266982 -0.023792 0.0115934)
(-0.00935008 -0.0249665 -0.00356683)
(0.00113658 -0.0194488 -0.0222473)
(0.00285532 -0.00960593 -0.0397851)
(-0.00477801 0.00239845 -0.0498049)
(-0.0206517 0.0155128 -0.0482022)
(-0.0377743 0.0287029 -0.0355372)
(-0.0673339 0.0821079 -0.0258224)
(-0.0821159 0.0839555 -0.00941233)
(-0.0944904 0.0793149 0.0067971)
(-0.0986615 0.0670246 0.0199771)
(-0.0948192 0.0481945 0.0292217)
(-0.083866 0.0255354 0.0343925)
(-0.0674971 0.0027151 0.0355563)
(-0.0480665 -0.0163673 0.0328883)
(-0.0282579 -0.0281995 0.026395)
(-0.0108523 -0.0303308 0.0155231)
(0.0015983 -0.0222469 -0.000566316)
(0.00709161 -0.00606315 -0.0210493)
(0.0043647 0.014037 -0.0412478)
(-0.006679 0.033927 -0.0539773)
(-0.0244535 0.0511686 -0.0541044)
(-0.0412629 0.0641759 -0.0414763)
(-0.0571855 0.109485 -0.0297894)
(-0.0657071 0.102068 -0.013325)
(-0.0715634 0.0871682 0.00353843)
(-0.07017 0.0646583 0.0173617)
(-0.06259 0.0370244 0.0266624)
(-0.0504498 0.00827005 0.0310824)
(-0.035666 -0.0171543 0.0309481)
(-0.0202684 -0.0351315 0.0271664)
(-0.00627418 -0.0424556 0.0205569)
(0.00438609 -0.0373263 0.0108759)
(0.0101951 -0.0200839 -0.00321692)
(0.0102809 0.006103 -0.0219334)
(0.00428799 0.0356091 -0.041469)
(-0.00753741 0.0625584 -0.0547249)
(-0.0237309 0.0831723 -0.0559332)
(-0.0376713 0.0955563 -0.0442166)
(-0.0365392 0.126091 -0.0308559)
(-0.0373128 0.110277 -0.0149225)
(-0.0357617 0.0855416 0.00141146)
(-0.0291891 0.0536716 0.014366)
(-0.019426 0.0188305 0.0218884)
(-0.00865571 -0.0137942 0.0234917)
(0.00144106 -0.0393305 0.020156)
(0.00968616 -0.0539958 0.0140419)
(0.0151429 -0.0553964 0.00715149)
(0.0171023 -0.0427547 -0.000361583)
(0.0153738 -0.0173791 -0.0104346)
(0.0103684 0.0167833 -0.024588)
(0.00265147 0.053338 -0.0405614)
(-0.0073482 0.0853263 -0.0522634)
(-0.0187548 0.1079 -0.0539056)
(-0.02738 0.118951 -0.043983)
(-0.00740646 0.128053 -0.0248236)
(0.00104507 0.105721 -0.00944912)
(0.0100558 0.0727171 0.00568675)
(0.0204821 0.0337522 0.0165185)
(0.02985 -0.00516474 0.0203727)
(0.0359902 -0.038126 0.0168057)
(0.0381639 -0.0605294 0.00802344)
(0.0365435 -0.0695324 -0.00202552)
(0.0316201 -0.0639758 -0.0099156)
(0.0241196 -0.0443423 -0.0151145)
(0.0152385 -0.0128901 -0.02017)
(0.00651801 0.0260305 -0.0279147)
(-0.000814994 0.0660093 -0.0379231)
(-0.00639829 0.0998907 -0.0458315)
(-0.0102561 0.12217 -0.0465004)
(-0.0108427 0.130405 -0.0379752)
(0.027958 0.113245 -0.00658765)
(0.0465075 0.0871568 0.00788766)
(0.061438 0.0491436 0.0206518)
(0.0729237 0.00723558 0.0274791)
(0.0782531 -0.0311009 0.0252353)
(0.0761587 -0.0601323 0.0139904)
(0.0675912 -0.0762861 -0.00235668)
(0.054413 -0.0780223 -0.0177336)
(0.0386309 -0.0655708 -0.0273484)
(0.0224119 -0.0406441 -0.030469)
(0.00815995 -0.00622413 -0.0301984)
(-0.00183634 0.0333595 -0.030396)
(-0.00609939 0.0723302 -0.032316)
(-0.0046134 0.104161 -0.0336568)
(0.0014532 0.123219 -0.0305668)
(0.0124311 0.126317 -0.0208939)
(0.0656546 0.0830292 0.0229266)
(0.0934109 0.0563123 0.0356933)
(0.110772 0.018292 0.0445617)
(0.119521 -0.0207953 0.0454027)
(0.117154 -0.05322 0.0350054)
(0.104121 -0.0744588 0.0143985)
(0.0834761 -0.0823702 -0.010495)
(0.0587654 -0.0767495 -0.0315362)
(0.0334115 -0.0590492 -0.0429554)
(0.0108247 -0.0318905 -0.0441128)
(-0.0057631 0.00143445 -0.038544)
(-0.0138135 0.0370293 -0.0307021)
(-0.0120459 0.070197 -0.0230703)
(-0.00109963 0.0957075 -0.0153256)
(0.016409 0.108459 -0.00526268)
(0.0427286 0.104299 0.00952486)
(0.09846 0.043241 0.0545618)
(0.131994 0.0183917 0.0650553)
(0.147262 -0.0140022 0.0695309)
(0.149864 -0.0442412 0.0637511)
(0.137817 -0.0661329 0.0448017)
(0.113474 -0.0771057 0.0150762)
(0.0818356 -0.0765088 -0.017433)
(0.0478682 -0.0652127 -0.0429587)
(0.0161732 -0.0454773 -0.0553634)
(-0.00897309 -0.0202833 -0.0543963)
(-0.0240507 0.00731987 -0.0439171)
(-0.026845 0.0342909 -0.0286449)
(-0.0167366 0.0573171 -0.0118552)
(0.00460421 0.0728463 0.00520544)
(0.0328486 0.0770436 0.0234543)
(0.0754368 0.0655515 0.046267)
(0.118461 0.00220284 0.0779868)
(0.152149 -0.0188631 0.0861578)
(0.161299 -0.0410865 0.0869342)
(0.15575 -0.0581062 0.0755257)
(0.134436 -0.0668654 0.0496149)
(0.101157 -0.0670931 0.0131474)
(0.0621769 -0.0595073 -0.0241543)
(0.0234252 -0.0456857 -0.0517072)
(-0.0097588 -0.0280955 -0.0636966)
(-0.0328315 -0.00935535 -0.0604791)
(-0.0426507 0.00837895 -0.0461614)
(-0.0378968 0.0233662 -0.0255426)
(-0.0190175 0.0338874 -0.00231805)
(0.0111434 0.0380481 0.0212936)
(0.0466426 0.0335089 0.0457809)
(0.100011 0.0175405 0.0761611)
(0.12139 -0.0328064 0.0879135)
(0.148929 -0.0477951 0.0940816)
(0.149444 -0.057372 0.0921222)
(0.135317 -0.0597766 0.0768562)
(0.10697 -0.0556018 0.0468775)
(0.0690328 -0.0467884 0.00753111)
(0.0281235 -0.0352013 -0.0306137)
(-0.00960065 -0.0226946 -0.0572593)
(-0.03882 -0.0112378 -0.0675114)
(-0.0555257 -0.00233082 -0.0623778)
(-0.0575903 0.00333011 -0.0460518)
(-0.0449211 0.00556554 -0.0231745)
(-0.0191073 0.00418777 0.00255268)
(0.0160475 -0.00138773 0.0286394)
(0.0537477 -0.012221 0.0555639)
(0.107465 -0.0280499 0.0893674)
(0.107513 -0.0572053 0.0841967)
(0.123977 -0.0634166 0.0889788)
(0.115209 -0.0600848 0.0851705)
(0.0936252 -0.0495503 0.068053)
(0.0615112 -0.035359 0.0374262)
(0.0238653 -0.0210769 -0.000522248)
(-0.0131852 -0.0092379 -0.0355987)
(-0.0442008 -0.00145376 -0.0588563)
(-0.0648569 0.00140826 -0.0666636)
(-0.0724471 -0.000573743 -0.0605094)
(-0.0662125 -0.00646997 -0.0443902)
(-0.0472216 -0.0150552 -0.0224742)
(-0.0179007 -0.0253643 0.00198153)
(0.0175536 -0.0370789 0.0267685)
(0.0525054 -0.0501319 0.0524316)
(0.0967873 -0.0616596 0.0843129)
(0.0804251 -0.0686921 0.0697718)
(0.0837584 -0.064209 0.0740292)
(0.0667788 -0.0497627 0.0695278)
(0.0401902 -0.0302788 0.0528469)
(0.00796689 -0.0108984 0.0249622)
(-0.0248692 0.00431239 -0.00793457)
(-0.0533067 0.012893 -0.0371051)
(-0.0735172 0.0140169 -0.0555817)
(-0.0830135 0.00813696 -0.0609949)
(-0.0808399 -0.00321077 -0.055051)
(-0.0675704 -0.0178504 -0.0412807)
(-0.0450532 -0.0336518 -0.0231293)
(-0.0160258 -0.048993 -0.00300762)
(0.0155039 -0.0629322 0.0176935)
(0.0438235 -0.0743986 0.0395105)
(0.0735486 -0.0793788 0.0657772)
(0.0464239 -0.064653 0.0489963)
(0.0377777 -0.050799 0.053707)
(0.0144931 -0.0290279 0.0503118)
(-0.014559 -0.00531246 0.0367639)
(-0.0439202 0.014438 0.0145735)
(-0.0687821 0.0263412 -0.0109093)
(-0.0857522 0.0289492 -0.0329144)
(-0.0932126 0.0228717 -0.046439)
(-0.0910347 0.00999259 -0.0501154)
(-0.0801241 -0.00709197 -0.0456564)
(-0.0621125 -0.0257126 -0.0360007)
(-0.0391446 -0.043661 -0.0236505)
(-0.013735 -0.059374 -0.00990445)
(0.0108534 -0.0717765 0.00494232)
(0.0303255 -0.0793331 0.021516)
(0.0455581 -0.0783118 0.0410147)
(-0.0191805 -0.058307 0.0155464)
(-0.0310445 -0.038571 0.0270372)
(-0.048094 -0.0145296 0.0295511)
(-0.065393 0.00933845 0.0227227)
(-0.0799171 0.0289506 0.00876587)
(-0.0895578 0.0415869 -0.0082672)
(-0.0932464 0.0458397 -0.0240152)
(-0.090884 0.0413848 -0.0355336)
(-0.0831337 0.0290922 -0.0422172)
(-0.0712592 0.0110383 -0.0453276)
(-0.0570117 -0.0099631 -0.0465214)
(-0.0423892 -0.0311031 -0.0463601)
(-0.0292718 -0.0499487 -0.0436448)
(-0.0193489 -0.0642131 -0.0361403)
(-0.0141034 -0.0714192 -0.0224084)
(-0.0127552 -0.0690494 -0.00375455)
(-0.0359233 -0.0286352 -0.00672122)
(-0.050881 -0.0101775 0.00715237)
(-0.067601 0.00988678 0.0144685)
(-0.0815282 0.0281392 0.0147036)
(-0.0902432 0.0414679 0.00934875)
(-0.0921584 0.0478265 0.000949608)
(-0.0869075 0.0464251 -0.00803578)
(-0.0754459 0.0376968 -0.0161652)
(-0.0598154 0.0233228 -0.0234067)
(-0.0427553 0.00599011 -0.0306827)
(-0.0271928 -0.0114083 -0.0387423)
(-0.0155976 -0.0267291 -0.0468346)
(-0.0093762 -0.038653 -0.0521884)
(-0.0088861 -0.0459867 -0.0512324)
(-0.0137822 -0.0472919 -0.0419747)
(-0.0213804 -0.0413429 -0.0257245)
(-0.0431251 0.00351202 -0.0233781)
(-0.0587759 0.0185437 -0.00683172)
(-0.0735286 0.0326016 0.00574372)
(-0.0831703 0.0429641 0.013028)
(-0.0860567 0.0477209 0.015483)
(-0.0813561 0.0460958 0.0143615)
(-0.0694454 0.0384685 0.0107994)
(-0.0520487 0.0262684 0.00529422)
(-0.0319843 0.0118565 -0.00242801)
(-0.0127237 -0.00188126 -0.0131307)
(0.00222043 -0.0125674 -0.0271428)
(0.0101571 -0.0193992 -0.0429003)
(0.0100585 -0.0228002 -0.0561701)
(0.00265689 -0.0229244 -0.0617608)
(-0.0101303 -0.019101 -0.0566938)
(-0.0238103 -0.0107339 -0.0418753)
(-0.0417877 0.0370613 -0.0338835)
(-0.0559514 0.0462094 -0.0151547)
(-0.0672825 0.0522798 0.00181379)
(-0.0721431 0.0533429 0.0147444)
(-0.0697669 0.0486317 0.023097)
(-0.0601179 0.0386159 0.0271334)
(-0.0442308 0.0248622 0.0271673)
(-0.024294 0.0098067 0.0232805)
(-0.00337814 -0.0035085 0.0152408)
(0.0149627 -0.0120057 0.00248596)
(0.0273055 -0.0138944 -0.015327)
(0.0311844 -0.00996959 -0.0365546)
(0.0259231 -0.00294643 -0.0560732)
(0.0129418 0.00505816 -0.0671643)
(-0.00475487 0.0137154 -0.0656655)
(-0.0215494 0.0232933 -0.051943)
(-0.0338527 0.0682394 -0.0393917)
(-0.0444296 0.0701783 -0.0195279)
(-0.0509311 0.0671532 0.000172382)
(-0.0505979 0.0581993 0.0166085)
(-0.0435515 0.0437582 0.0284033)
(-0.030599 0.0255985 0.0351013)
(-0.0133631 0.00645878 0.0366093)
(0.00577661 -0.0103485 0.0331172)
(0.0239589 -0.0213327 0.0248894)
(0.0381396 -0.0234861 0.011727)
(0.0456587 -0.0157227 -0.00701512)
(0.0449048 -0.000359523 -0.0303639)
(0.0357562 0.0176442 -0.0532444)
(0.0198876 0.0339659 -0.0679913)
(0.000629066 0.0470584 -0.0692929)
(-0.0162705 0.0570346 -0.0568886)
(-0.0211788 0.0931289 -0.0410449)
(-0.0261755 0.0873405 -0.0210633)
(-0.0265826 0.0747315 -0.000300742)
(-0.0207501 0.0556692 0.0175954)
(-0.00971392 0.0320003 0.0304968)
(0.00481551 0.00690214 0.0373654)
(0.0207444 -0.0158344 0.0380681)
(0.0358517 -0.0323615 0.0334837)
(0.0479447 -0.0392656 0.0248901)
(0.0550218 -0.0341476 0.0126391)
(0.0557688 -0.0168916 -0.00436002)
(0.049931 0.00893703 -0.0263171)
(0.0381775 0.0367479 -0.0491406)
(0.022138 0.0603678 -0.0651734)
(0.00469549 0.0769847 -0.0683273)
(-0.00930495 0.0865623 -0.0576906)
(-0.00536915 0.107827 -0.0381116)
(-0.00293103 0.0942597 -0.0184024)
(0.00367167 0.0721748 0.00240402)
(0.0148647 0.0437751 0.020209)
(0.0286515 0.0126032 0.0320757)
(0.0424794 -0.0168645 0.0364952)
(0.054145 -0.0401147 0.0338217)
(0.0620975 -0.0534325 0.0262995)
(0.0652817 -0.0541955 0.0166903)
(0.0631922 -0.0411943 0.00597848)
(0.0562111 -0.015521 -0.00745073)
(0.0455883 0.0183708 -0.025172)
(0.0327843 0.0531652 -0.0447086)
(0.0191772 0.0816715 -0.0594053)
(0.00663954 0.100037 -0.0630615)
(-0.00161523 0.107939 -0.0541329)
(0.0128703 0.108903 -0.0269523)
(0.0242543 0.0880797 -0.0073587)
(0.03796 0.0576452 0.0127507)
(0.0533269 0.0221034 0.0288229)
(0.0673998 -0.0132415 0.0371239)
(0.0773161 -0.0430204 0.0360459)
(0.0814967 -0.0628183 0.0271345)
(0.0795554 -0.0698404 0.0147034)
(0.0719729 -0.062864 0.00320877)
(0.0599998 -0.0422241 -0.00588635)
(0.0457494 -0.0102283 -0.0147727)
(0.0317537 0.0282255 -0.026268)
(0.0199893 0.0659729 -0.0397072)
(0.0113777 0.0957679 -0.0501844)
(0.00647694 0.113154 -0.0521257)
(0.00675831 0.117336 -0.0434691)
(0.0340148 0.0946121 -0.00353577)
(0.0548031 0.0681017 0.0156109)
(0.0740985 0.0321002 0.0335574)
(0.0907584 -0.00651299 0.0454634)
(0.101363 -0.0411588 0.0471141)
(0.103627 -0.0664687 0.037427)
(0.0973544 -0.0790857 0.0198797)
(0.0837674 -0.0777127 0.00121506)
(0.0650063 -0.0627922 -0.0126333)
(0.0440459 -0.036167 -0.0200866)
(0.0244505 -0.00105588 -0.0238958)
(0.009568 0.0376911 -0.0277577)
(0.0014853 0.0737337 -0.0325938)
(0.000491401 0.100587 -0.0356068)
(0.00568004 0.113731 -0.0325708)
(0.0175451 0.111771 -0.0211959)
(0.057491 0.0663063 0.0302653)
(0.0860959 0.0368721 0.0476849)
(0.107452 -5.03265e-05 0.0615031)
(0.121241 -0.0360931 0.0667529)
(0.124281 -0.0645563 0.0592326)
(0.115848 -0.0812386 0.0390465)
(0.0976194 -0.0844036 0.0120612)
(0.0724312 -0.0744391 -0.0126988)
(0.0439541 -0.0533094 -0.0284281)
(0.0165951 -0.0239592 -0.0338474)
(-0.00514472 0.0100164 -0.0321621)
(-0.0176816 0.0443052 -0.0275191)
(-0.0192355 0.0738576 -0.0220065)
(-0.0103273 0.0935913 -0.0149213)
(0.00659396 0.0995877 -0.00390083)
(0.0327978 0.0899436 0.0135187)
(0.0784408 0.0288166 0.0643651)
(0.110954 -0.000157013 0.0789433)
(0.129767 -0.0322779 0.0876947)
(0.136789 -0.0597957 0.0853408)
(0.129764 -0.0774683 0.0681435)
(0.109945 -0.0830566 0.0379299)
(0.080767 -0.0766208 0.00298053)
(0.0463877 -0.0600028 -0.0260444)
(0.0116924 -0.0362187 -0.0422476)
(-0.0179926 -0.00866883 -0.0449763)
(-0.0379013 0.0193221 -0.0377814)
(-0.0448435 0.0444693 -0.0250096)
(-0.0377843 0.0633694 -0.00956607)
(-0.0182491 0.072776 0.00752234)
(0.00976113 0.0700632 0.0270544)
(0.0501484 0.0534396 0.0521111)
(0.0892563 -0.0107907 0.0873583)
(0.120278 -0.0357487 0.0990877)
(0.132653 -0.0579368 0.103353)
(0.130869 -0.0724748 0.0944044)
(0.11409 -0.0768855 0.069364)
(0.0851985 -0.0712036 0.0320167)
(0.0487886 -0.0571001 -0.00745254)
(0.009875 -0.0374168 -0.0377887)
(-0.0259613 -0.0155425 -0.0527591)
(-0.0531917 0.005434 -0.0525079)
(-0.0675367 0.0231469 -0.0408718)
(-0.0667867 0.0358054 -0.022275)
(-0.0510115 0.0418626 -7.84235e-05)
(-0.0228007 0.0399942 0.0236901)
(0.0125937 0.0291169 0.0490292)
(0.0615017 0.00869442 0.0800436)
(0.0851006 -0.045326 0.0939353)
(0.109334 -0.0627142 0.103589)
(0.113242 -0.0719851 0.104573)
(0.102885 -0.0720626 0.0911152)
(0.079072 -0.0635996 0.0615862)
(0.0456158 -0.0487396 0.0214679)
(0.00748205 -0.030389 -0.0182381)
(-0.0300984 -0.0118248 -0.0468797)
(-0.0616251 0.00393462 -0.0594412)
(-0.0822185 0.0148628 -0.0568356)
(-0.0887302 0.0201108 -0.0429972)
(-0.0802544 0.0196278 -0.0221883)
(-0.0579813 0.0136264 0.00226003)
(-0.0253363 0.00231429 0.0281334)
(0.0119366 -0.0139569 0.0552511)
(0.0599454 -0.0338338 0.0879013)
(0.0667646 -0.0692628 0.0852007)
(0.0807979 -0.07627 0.0937245)
(0.0762138 -0.0724194 0.0926803)
(0.0592737 -0.0597911 0.0771673)
(0.0323145 -0.0415166 0.0470041)
(-0.000549581 -0.021253 0.00860294)
(-0.0346828 -0.00258393 -0.027555)
(-0.0654474 0.011375 -0.0524098)
(-0.088341 0.0185688 -0.0623387)
(-0.0998616 0.0184762 -0.0587528)
(-0.0983066 0.0119182 -0.045359)
(-0.0839855 0.000374753 -0.0259039)
(-0.0589408 -0.0145866 -0.0031903)
(-0.0268436 -0.0316629 0.0209923)
(0.0069925 -0.0494107 0.0465178)
(0.045997 -0.0650737 0.0764629)
(0.0395567 -0.0795886 0.0656312)
(0.0427746 -0.0752989 0.0739022)
(0.031189 -0.0605606 0.0722876)
(0.010543 -0.0392825 0.0573477)
(-0.0157353 -0.0159367 0.0300948)
(-0.0436289 0.00528411 -0.00311794)
(-0.0693204 0.0208669 -0.0333738)
(-0.0895078 0.0283827 -0.0536103)
(-0.101456 0.0269603 -0.0614097)
(-0.103474 0.0174698 -0.0583345)
(-0.095316 0.00202858 -0.0475966)
(-0.0781201 -0.0168463 -0.032163)
(-0.0541475 -0.0367935 -0.0139633)
(-0.0267836 -0.0557694 0.00603741)
(-0.000379962 -0.0716322 0.0279079)
(0.0258377 -0.0811751 0.0529019)
(0.0114182 -0.0739038 0.0407761)
(0.00562022 -0.0608689 0.0495092)
(-0.0110141 -0.0394815 0.0491479)
(-0.0330725 -0.0142643 0.0374862)
(-0.0562569 0.00974286 0.0159245)
(-0.0766569 0.0283479 -0.010165)
(-0.0915052 0.0386582 -0.0337719)
(-0.0993474 0.0393154 -0.0496121)
(-0.0997897 0.0307269 -0.0560672)
(-0.0932232 0.0149456 -0.054628)
(-0.0806611 -0.00510706 -0.0479399)
(-0.0636058 -0.02653 -0.0380813)
(-0.0439443 -0.0468985 -0.0259068)
(-0.0241146 -0.0641248 -0.0113731)
(-0.00712968 -0.0759763 0.00584929)
(0.00666324 -0.0796114 0.0256137)
(-0.037054 -0.0647462 -0.00136768)
(-0.0432069 -0.0467214 0.0128588)
(-0.0530941 -0.0225992 0.0186932)
(-0.0634014 0.00387761 0.0148748)
(-0.0722148 0.0286413 0.00312188)
(-0.0779065 0.0480769 -0.0125284)
(-0.0796024 0.0593104 -0.0275647)
(-0.0772654 0.0605067 -0.0389451)
(-0.0714872 0.051461 -0.0460921)
(-0.063329 0.0338664 -0.0503319)
(-0.0542684 0.0108485 -0.0533236)
(-0.0458949 -0.014027 -0.0555026)
(-0.0393328 -0.037461 -0.0554586)
(-0.0350821 -0.0564143 -0.0506673)
(-0.0332593 -0.0679984 -0.0392768)
(-0.032116 -0.0697091 -0.0220356)
(-0.0372058 -0.0365325 -0.0243704)
(-0.046734 -0.0200985 -0.00799311)
(-0.0567518 0.00023554 0.0026914)
(-0.0643542 0.0213562 0.00617976)
(-0.0680118 0.0400017 0.00327736)
(-0.066489 0.0532036 -0.00363601)
(-0.0594756 0.0586363 -0.0119543)
(-0.0478974 0.0551014 -0.020035)
(-0.0337762 0.0431846 -0.0277402)
(-0.0198774 0.0254022 -0.0360033)
(-0.00916749 0.00533725 -0.0456182)
(-0.00386294 -0.0138973 -0.0557879)
(-0.00443171 -0.0302348 -0.063599)
(-0.00971024 -0.0419783 -0.0652847)
(-0.0178579 -0.0473823 -0.0583928)
(-0.0256254 -0.0450202 -0.04336)
(-0.0298896 -0.00710762 -0.0409975)
(-0.0408226 0.00628122 -0.0222474)
(-0.0493807 0.0210781 -0.00648444)
(-0.0533162 0.0346108 0.00411626)
(-0.0516253 0.0445705 0.00929557)
(-0.0436881 0.04921 0.0100498)
(-0.0298745 0.0475156 0.00758714)
(-0.0118738 0.0395221 0.00256039)
(0.00739583 0.0267512 -0.00521278)
(0.0241962 0.0121963 -0.0165178)
(0.0347134 -0.000916745 -0.0318138)
(0.0363577 -0.0110082 -0.0495818)
(0.0291675 -0.0181745 -0.0654804)
(0.0157056 -0.0223297 -0.0740999)
(-0.000423727 -0.0224191 -0.0719474)
(-0.0148019 -0.0173468 -0.0590359)
(-0.0183198 0.0229697 -0.0507942)
(-0.0284442 0.0313959 -0.0302274)
(-0.0339738 0.0387646 -0.0102749)
(-0.0334621 0.0432222 0.00610319)
(-0.0266156 0.0435001 0.0176653)
(-0.0135944 0.039082 0.0242869)
(0.00452365 0.0302715 0.0261677)
(0.0255054 0.0183508 0.0233843)
(0.0460946 0.00581334 0.0157421)
(0.0623722 -0.00382612 0.00269273)
(0.0705321 -0.00775745 -0.0162561)
(0.0681923 -0.00624457 -0.0396285)
(0.0557569 -0.00219718 -0.0622043)
(0.0365565 0.00221153 -0.0769608)
(0.0153613 0.00715976 -0.079172)
(-0.00269896 0.0137523 -0.0684594)
(-0.00575383 0.050429 -0.0547108)
(-0.0127357 0.0525933 -0.0331671)
(-0.0137126 0.0513556 -0.0104907)
(-0.00805867 0.0459824 0.00973632)
(0.00366978 0.0363656 0.0254219)
(0.0203879 0.0232714 0.0355241)
(0.0402766 0.00828236 0.0395616)
(0.0607563 -0.00621154 0.0375169)
(0.0786909 -0.0169871 0.0297144)
(0.0907078 -0.0203752 0.0161486)
(0.093946 -0.0142093 -0.00387456)
(0.0870513 -0.000496699 -0.0296426)
(0.0709236 0.0151891 -0.0560418)
(0.0489562 0.0282127 -0.0750205)
(0.0261457 0.0376348 -0.0806675)
(0.00773216 0.0446923 -0.0721465)
(0.00551029 0.0718961 -0.0535033)
(0.00387129 0.0667789 -0.0316352)
(0.00873372 0.056282 -0.00758303)
(0.0199559 0.0410108 0.0146012)
(0.0360289 0.0221939 0.0320333)
(0.054843 0.00193669 0.0428631)
(0.073885 -0.0170199 0.0462968)
(0.0904983 -0.0315419 0.0428957)
(0.102118 -0.038261 0.034138)
(0.106561 -0.0340649 0.0208401)
(0.102658 -0.017918 0.0020422)
(0.0907167 0.00670184 -0.0227125)
(0.0723734 0.0324262 -0.0493417)
(0.0506243 0.0526791 -0.0697676)
(0.0297389 0.0653109 -0.0773142)
(0.0143675 0.0715451 -0.0705934)
(0.01441 0.0839551 -0.0463488)
(0.0199647 0.070753 -0.0241764)
(0.0315036 0.0509215 0.000414723)
(0.0480994 0.0266137 0.0228971)