/*--------------------------------*- C++ -*----------------------------------*\
| =========                 |                                                 |
| \\      /  F ield         | OpenFOAM: The Open Source CFD Toolbox           |
|  \\    /   O peration     | Version:  3.0.0                                 |
|   \\  /    A nd           | Web:      www.OpenFOAM.org                      |
|    \\/     M anipulation  |                                                 |
\*---------------------------------------------------------------------------*/
FoamFile
{
    version     2.0;
    format      ascii;
    class       volScalarField;
    location    "0.02";
    object      p;
}
// * * * * * * * * * * * * * * * * * * * * * * * * * * * * * * * * * * * * * //

dimensions      [1 -1 -2 0 0 0 0];

internalField   nonuniform List<scalar> 
1000
(
42599.6
42591.4
42584.1
42577.7
42571.2
42564.5
42557.8
42551.1
42544.3
42537.6
42530.8
42524
42517.2
42510.3
42503.4
42496.5
42489.6
42482.7
42475.7
42468.7
42461.7
42454.6
42447.6
42440.5
42433.3
42426.2
42419
42411.8
42404.6
42397.4
42390.1
42382.8
42375.5
42368.2
42360.8
42353.4
42346
42338.6
42331.1
42323.6
42316.1
42308.5
42301
42293.4
42285.8
42278.1
42270.4
42262.7
42255
42247.2
42239.5
42231.7
42223.8
42216
42208.1
42200.2
42192.2
42184.3
42176.3
42168.2
42160.2
42152.1
42144
42135.9
42127.7
42119.5
42111.3
42103.1
42094.8
42086.5
42078.2
42069.8
42061.4
42053
42044.6
42036.1
42027.6
42019.1
42010.5
42002
41993.3
41984.7
41976
41967.3
41958.6
41949.8
41941
41932.2
41923.4
41914.5
41905.6
41896.6
41887.7
41878.7
41869.6
41860.6
41851.5
41842.3
41833.2
41824
41814.8
41805.5
41796.2
41786.9
41777.6
41768.2
41758.8
41749.4
41739.9
41730.4
41720.8
41711.3
41701.7
41692
41682.3
41672.6
41662.9
41653.1
41643.3
41633.5
41623.6
41613.7
41603.8
41593.8
41583.8
41573.7
41563.7
41553.5
41543.4
41533.2
41523
41512.7
41502.4
41492.1
41481.7
41471.3
41460.9
41450.4
41439.9
41429.4
41418.8
41408.2
41397.5
41386.8
41376
41365.3
41354.4
41343.6
41332.7
41321.7
41310.8
41299.8
41288.7
41277.6
41266.5
41255.3
41244.1
41232.9
41221.6
41210.3
41198.9
41187.5
41176.1
41164.6
41153
41141.4
41129.8
41118.1
41106.4
41094.6
41082.8
41070.9
41059
41047
41035
41023
41010.9
40998.7
40986.6
40974.3
40962
40949.7
40937.3
40924.9
40912.4
40899.9
40887.3
40874.7
40862
40849.2
40836.4
40823.6
40810.7
40797.7
40784.7
40771.7
40758.6
40745.4
40732.1
40718.9
40705.5
40692.1
40678.6
40665.1
40651.5
40637.9
40624.2
40610.4
40596.5
40582.6
40568.7
40554.6
40540.6
40526.4
40512.2
40497.9
40483.5
40469
40454.5
40439.9
40425.3
40410.6
40395.8
40380.9
40365.9
40350.9
40335.8
40320.6
40305.3
40289.9
40274.5
40258.9
40243.3
40227.6
40211.8
40196
40180
40163.9
40147.7
40131.5
40115.1
40098.7
40082.1
40065.4
40048.7
40031.8
40014.8
39997.7
39980.5
39963.2
39945.7
39928.2
39910.5
39892.7
39874.7
39856.6
39838.4
39820.1
39801.6
39783
39764.2
39745.3
39726.2
39707
39687.6
39668.1
39648.4
39628.5
39608.4
39588.2
39567.8
39547.2
39526.3
39505.3
39484.1
39462.7
39441.1
39419.3
39397.2
39374.9
39352.4
39329.6
39306.6
39283.3
39259.8
39236
39211.9
39187.5
39162.9
39137.9
39112.7
39087.1
39061.2
39035
39008.5
38981.6
38954.3
38926.7
38898.7
38870.4
38841.6
38812.5
38782.9
38753
38722.6
38691.8
38660.5
38628.8
38596.7
38564
38530.9
38497.4
38463.3
38428.7
38393.6
38358
38321.9
38285.2
38248
38210.3
38172
38133.2
38093.8
38053.8
38013.3
37972.2
37930.5
37888.3
37845.5
37802.1
37758.1
37713.6
37668.5
37622.8
37576.6
37529.8
37482.4
37434.5
37386.1
37337.1
37287.6
37237.6
37187
37136
37084.4
37032.4
36980
36927
36873.7
36819.9
36765.7
36711.1
36656.2
36600.8
36545.1
36489.1
36432.8
36376.2
36319.3
36262.1
36204.7
36147.1
36089.2
36031.1
35972.9
35914.5
35855.9
35797.2
35738.4
35679.5
35620.5
35561.4
35502.3
35443.1
35383.9
35324.6
35265.3
35206.1
35146.8
35087.6
35028.4
34969.2
34910.1
34851.1
34792.1
34733.3
34674.5
34615.8
34557.2
34498.7
34440.3
34382
34323.9
34265.9
34208.1
34150.4
34092.8
34035.5
33978.3
33921.2
33864.3
33807.6
33751.1
33694.8
33638.7
33582.8
33527.1
33471.5
33416.3
33361.2
33306.3
33251.7
33197.3
33143.2
33089.3
33035.7
32982.3
32929.2
32876.4
32823.8
32771.5
32719.5
32667.9
32616.5
32565.4
32514.7
32464.3
32414.2
32364.5
32315.1
32266.1
32217.4
32169.2
32121.3
32073.9
32026.9
31980.3
31934.1
31888.4
31843.1
31798.3
31754
31710.2
31666.9
31624.2
31582
31540.3
31499.2
31458.7
31418.8
31379.5
31340.8
31302.8
31265.4
31228.7
31192.7
31157.4
31122.8
31088.9
31055.8
31023.4
30991.8
30961
30931
30901.8
30873.4
30845.9
30819.1
30793.3
30768.2
30744.1
30720.7
30698.3
30676.7
30656
30636.1
30617.1
30598.9
30581.6
30565.1
30549.4
30534.6
30520.5
30507.2
30494.7
30482.9
30471.9
30461.5
30451.9
30442.8
30434.4
30426.7
30419.4
30412.8
30406.7
30401
30395.8
30391.1
30386.8
30382.9
30379.3
30376.1
30373.2
30370.6
30368.2
30366.1
30364.2
30362.5
30361
30359.7
30358.5
30357.5
30356.6
30355.8
30355.1
30354.5
30354
30353.5
30353.1
30352.7
30352.4
30352.2
30352
30351.8
30351.6
30351.5
30351.3
30351.2
30351.1
30351.1
30351
30350.9
30350.9
30350.9
30350.8
30350.8
30350.8
30350.7
30350.7
30350.7
30350.7
30350.7
30350.7
30350.6
30350.6
30350.6
30350.6
30350.6
30350.6
30350.6
30350.6
30350.6
30350.6
30350.6
30350.6
30350.5
30350.5
30350.5
30350.5
30350.5
30350.5
30350.5
30350.5
30350.5
30350.5
30350.5
30350.5
30350.5
30350.4
30350.4
30350.4
30350.4
30350.4
30350.4
30350.4
30350.4
30350.4
30350.4
30350.4
30350.4
30350.4
30350.4
30350.4
30350.3
30350.3
30350.3
30350.3
30350.3
30350.3
30350.3
30350.3
30350.3
30350.3
30350.3
30350.3
30350.3
30350.3
30350.3
30350.3
30350.3
30350.3
30350.3
30350.3
30350.3
30350.3
30350.3
30350.3
30350.3
30350.3
30350.3
30350.3
30350.3
30350.3
30350.3
30350.3
30350.3
30350.3
30350.3
30350.3
30350.3
30350.3
30350.3
30350.3
30350.3
30350.3
30350.3
30350.3
30350.3
30350.3
30350.2
30350.2
30350.2
30350.2
30350.2
30350.2
30350.2
30350.2
30350.2
30350.2
30350.2
30350.2
30350.2
30350.2
30350.2
30350.2
30350.2
30350.2
30350.2
30350.2
30350.2
30350.2
30350.2
30350.2
30350.2
30350.2
30350.2
30350.2
30350.2
30350.2
30350.2
30350.2
30350.2
30350.1
30350.1
30350.1
30350.1
30350.1
30350.1
30350.1
30350.1
30350.1
30350.1
30350.1
30350.1
30350.1
30350.1
30350.1
30350.1
30350.1
30350.1
30350.1
30350.1
30350.1
30350.1
30350.1
30350.1
30350.1
30350.1
30350.1
30350.1
30350.1
30350.1
30350.1
30350.1
30350.1
30350.1
30350.1
30350.1
30350.1
30350.1
30350.1
30350.1
30350.1
30350.1
30350.1
30350.1
30350
30350
30350
30350
30350
30350
30350
30350
30350
30350
30350
30350
30350
30350
30350
30350
30350
30350
30350
30350
30350
30350
30350
30350
30350
30350
30350
30350
30350
30350
30350
30350
30350
30350
30350
30350
30350
30350
30350
30350
30350
30350
30350
30350
30350
30350
30350
30350
30350
30350
30350
30350
30350
30350
30350
30350
30350
30350
30350
30350
30350
30350
30350
30350
30350
30350
30350
30350
30350
30350
30350
30350
30350
30349.9
30349.9
30349.9
30349.9
30349.9
30349.9
30349.9
30349.9
30349.9
30349.9
30349.9
30349.9
30349.9
30349.9
30349.9
30349.9
30349.9
30349.9
30349.9
30349.9
30349.9
30349.9
30349.9
30349.9
30349.9
30349.9
30349.9
30349.9
30349.9
30349.9
30349.9
30349.9
30349.9
30349.9
30349.9
30349.9
30349.9
30349.9
30349.9
30349.9
30349.9
30349.9
30349.9
30349.9
30349.9
30349.9
30349.9
30349.9
30349.9
30349.9
30349.9
30349.9
30349.9
30349.9
30349.9
30349.9
30349.9
30349.9
30349.9
30349.9
30349.9
30349.9
30349.9
30349.9
30349.9
30349.9
30349.9
30349.9
30349.9
30349.9
30349.9
30349.9
30349.9
30349.9
30349.9
30349.9
30349.9
30349.9
30349.9
30349.9
30349.9
30349.9
30349.9
30349.9
30349.9
30349.9
30349.9
30349.9
30349.9
30349.9
30349.9
30349.9
30349.9
30349.9
30349.9
30349.9
30349.9
30349.9
30349.9
30349.9
30349.9
30350
30350
30350
30350.1
30350.2
30350.2
30350.3
30350.5
30350.6
30350.8
30351.1
30351.4
30351.7
30352.2
30352.7
30353.3
30354
30354.9
30355.9
30357.1
30358.5
30360.1
30361.9
30364
30366.4
30369.1
30372.1
30375.5
30379.2
30383.4
30387.9
30392.9
30398.3
30404.1
30410.4
30417.1
30424.1
30431.6
30439.4
30447.5
30455.9
30464.5
30473.3
30482.2
30491.3
30500.3
30509.3
30518.2
30526.9
30535.5
30543.7
30551.7
30559.3
30566.6
30573.4
30579.9
30585.9
30591.4
30596.5
30601.2
30605.4
30609.2
30612.6
30615.6
30618.3
30620.7
30622.7
30624.5
30626
30627.3
30628.4
30629.3
30630.1
30630.8
30631.3
30631.7
30632.1
30632.4
30632.7
30632.9
30633.1
30633.3
30633.4
30633.6
30633.7
30633.9
30634
30634.2
30634.4
30634.5
30634.7
30634.8
30635
30635.1
30635.3
30635.4
30635.4
30635.4
30635.4
30635.3
30635.2
30634.9
30634.4
30633.9
30633.2
30632.3
30631.4
30630.3
30629.1
30627.9
30626.6
30625.4
30624.3
30623.2
30622.2
30621.4
30620.8
30620.3
30620
30619.7
)
;

boundaryField
{
    sides
    {
        type            zeroGradient;
    }
    empty
    {
        type            empty;
    }
}


// ************************************************************************* //
