/*--------------------------------*- C++ -*----------------------------------*\
| =========                 |                                                 |
| \\      /  F ield         | OpenFOAM: The Open Source CFD Toolbox           |
|  \\    /   O peration     | Version:  3.0.0                                 |
|   \\  /    A nd           | Web:      www.OpenFOAM.org                      |
|    \\/     M anipulation  |                                                 |
\*---------------------------------------------------------------------------*/
FoamFile
{
    version     2.0;
    format      ascii;
    class       surfaceScalarField;
    location    "0.02";
    object      phi;
}
// * * * * * * * * * * * * * * * * * * * * * * * * * * * * * * * * * * * * * //

dimensions      [1 0 -1 0 0 0 0];

internalField   nonuniform List<scalar> 
999
(
16.0848
17.6123
19.1396
20.6684
22.1986
23.7296
25.2607
26.7924
28.3244
29.8561
31.3878
32.9193
34.4506
35.9818
37.5129
39.0439
40.5748
42.1055
43.636
45.1664
46.6967
48.2268
49.7568
51.2866
52.8163
54.3458
55.8751
57.4043
58.9333
60.4621
61.9907
63.5192
65.0475
66.5756
68.1035
69.6312
71.1587
72.686
74.2131
75.74
77.2667
78.7932
80.3195
81.8455
83.3713
84.8969
86.4223
87.9475
89.4724
90.997
92.5214
94.0456
95.5695
97.0932
98.6166
100.14
101.663
103.185
104.708
106.23
107.752
109.273
110.794
112.315
113.836
115.356
116.876
118.396
119.916
121.435
122.954
124.472
125.99
127.508
129.026
130.543
132.06
133.576
135.092
136.608
138.124
139.639
141.154
142.668
144.182
145.696
147.209
148.722
150.234
151.747
153.258
154.77
156.281
157.791
159.301
160.811
162.32
163.829
165.338
166.846
168.353
169.86
171.367
172.873
174.379
175.884
177.389
178.894
180.398
181.901
183.404
184.907
186.409
187.91
189.411
190.912
192.412
193.911
195.41
196.908
198.406
199.904
201.4
202.897
204.392
205.887
207.382
208.876
210.369
211.862
213.354
214.846
216.337
217.828
219.317
220.807
222.295
223.783
225.27
226.757
228.243
229.729
231.213
232.697
234.181
235.663
237.145
238.627
240.107
241.587
243.066
244.545
246.023
247.499
248.976
250.451
251.926
253.399
254.872
256.344
257.815
259.286
260.756
262.225
263.693
265.161
266.627
268.093
269.558
271.022
272.485
273.947
275.408
276.869
278.328
279.787
281.243
282.701
284.155
285.61
287.065
288.516
289.969
291.418
292.868
294.317
295.763
297.21
298.655
300.099
301.542
302.984
304.425
305.864
307.302
308.739
310.175
311.61
313.043
314.476
315.906
317.336
318.764
320.191
321.617
323.041
324.464
325.886
327.306
328.725
330.142
331.558
332.972
334.385
335.796
337.206
338.614
340.02
341.425
342.828
344.23
345.63
347.028
348.424
349.819
351.212
352.603
353.992
355.379
356.765
358.148
359.529
360.909
362.286
363.661
365.034
366.405
367.774
369.14
370.504
371.866
373.226
374.583
375.937
377.29
378.639
379.986
381.33
382.672
384.011
385.347
386.68
388.011
389.338
390.662
391.983
393.301
394.616
395.927
397.235
398.539
399.84
401.137
402.431
403.721
405.006
406.288
407.566
408.839
410.108
411.373
412.633
413.889
415.139
416.385
417.626
418.862
420.092
421.318
422.537
423.751
424.959
426.161
427.357
428.547
429.73
430.907
432.077
433.239
434.395
435.543
436.684
437.817
438.942
440.059
441.168
442.268
443.36
444.442
445.515
446.579
447.633
448.678
449.712
450.736
451.749
452.752
453.744
454.724
455.693
456.65
457.596
458.529
459.45
460.359
461.254
462.137
463.007
463.863
464.706
465.535
466.35
467.151
467.938
468.711
469.469
470.213
470.943
471.657
472.357
473.042
473.712
474.367
475.008
475.633
476.244
476.84
477.422
477.988
478.541
479.079
479.602
480.112
480.607
481.089
481.558
482.013
482.454
482.883
483.3
483.704
484.096
484.476
484.845
485.202
485.549
485.885
486.211
486.526
486.832
487.129
487.417
487.696
487.967
488.23
488.485
488.733
488.973
489.207
489.434
489.655
489.869
490.079
490.282
490.481
490.674
490.863
491.047
491.227
491.402
491.574
491.742
491.906
492.067
492.225
492.379
492.531
492.679
492.825
492.969
493.109
493.248
493.384
493.517
493.649
493.778
493.905
494.031
494.154
494.276
494.396
494.514
494.63
494.744
494.857
494.968
495.078
495.186
495.292
495.397
495.5
495.602
495.703
495.801
495.899
495.995
496.089
496.182
496.274
496.364
496.452
496.54
496.626
496.71
496.793
496.875
496.955
497.034
497.111
497.187
497.262
497.335
497.407
497.478
497.547
497.614
497.681
497.746
497.809
497.871
497.932
497.991
498.049
498.106
498.161
498.215
498.267
498.319
498.368
498.417
498.464
498.509
498.553
498.596
498.638
498.678
498.717
498.755
498.791
498.826
498.859
498.892
498.923
498.953
498.981
499.009
499.035
499.06
499.083
499.106
499.128
499.148
499.167
499.186
499.203
499.219
499.234
499.249
499.262
499.275
499.286
499.297
499.307
499.317
499.325
499.333
499.341
499.347
499.353
499.359
499.364
499.369
499.373
499.377
499.38
499.383
499.386
499.388
499.39
499.392
499.393
499.395
499.396
499.397
499.398
499.398
499.399
499.4
499.4
499.4
499.401
499.401
499.401
499.401
499.401
499.401
499.401
499.401
499.401
499.4
499.4
499.4
499.4
499.4
499.399
499.399
499.399
499.399
499.399
499.398
499.398
499.398
499.398
499.397
499.397
499.397
499.397
499.396
499.396
499.396
499.395
499.395
499.395
499.395
499.394
499.394
499.394
499.394
499.393
499.393
499.393
499.392
499.392
499.392
499.392
499.391
499.391
499.391
499.391
499.39
499.39
499.39
499.389
499.389
499.389
499.389
499.388
499.388
499.388
499.387
499.387
499.387
499.386
499.386
499.386
499.386
499.385
499.385
499.385
499.384
499.384
499.384
499.383
499.383
499.383
499.382
499.382
499.382
499.381
499.381
499.381
499.38
499.38
499.38
499.379
499.379
499.379
499.378
499.378
499.378
499.377
499.377
499.377
499.376
499.376
499.376
499.375
499.375
499.375
499.374
499.374
499.374
499.373
499.373
499.373
499.372
499.372
499.371
499.371
499.371
499.37
499.37
499.37
499.369
499.369
499.368
499.368
499.368
499.367
499.367
499.367
499.366
499.366
499.365
499.365
499.365
499.364
499.364
499.363
499.363
499.363
499.362
499.362
499.361
499.361
499.361
499.36
499.36
499.359
499.359
499.358
499.358
499.358
499.357
499.357
499.356
499.356
499.355
499.355
499.355
499.354
499.354
499.353
499.353
499.352
499.352
499.351
499.351
499.351
499.35
499.35
499.349
499.349
499.348
499.348
499.347
499.347
499.346
499.346
499.345
499.345
499.344
499.344
499.343
499.343
499.342
499.342
499.341
499.341
499.34
499.34
499.339
499.339
499.338
499.338
499.337
499.337
499.336
499.336
499.335
499.335
499.334
499.334
499.333
499.333
499.332
499.331
499.331
499.33
499.33
499.329
499.329
499.328
499.327
499.327
499.326
499.326
499.325
499.325
499.324
499.323
499.323
499.322
499.322
499.321
499.32
499.32
499.319
499.319
499.318
499.317
499.317
499.316
499.315
499.315
499.314
499.313
499.313
499.312
499.311
499.311
499.31
499.309
499.309
499.308
499.307
499.307
499.306
499.305
499.305
499.304
499.303
499.303
499.302
499.301
499.3
499.3
499.299
499.298
499.297
499.297
499.296
499.295
499.294
499.294
499.293
499.292
499.291
499.291
499.29
499.289
499.288
499.287
499.287
499.286
499.285
499.284
499.283
499.282
499.282
499.281
499.28
499.279
499.278
499.277
499.276
499.276
499.275
499.274
499.273
499.272
499.271
499.27
499.269
499.268
499.267
499.266
499.265
499.265
499.264
499.263
499.262
499.261
499.26
499.259
499.258
499.257
499.256
499.255
499.254
499.253
499.252
499.25
499.249
499.248
499.247
499.246
499.245
499.244
499.243
499.242
499.241
499.24
499.238
499.237
499.236
499.235
499.234
499.233
499.231
499.23
499.229
499.228
499.227
499.225
499.224
499.223
499.222
499.22
499.219
499.218
499.216
499.215
499.214
499.212
499.211
499.21
499.208
499.207
499.206
499.204
499.203
499.201
499.2
499.198
499.197
499.195
499.194
499.192
499.191
499.189
499.188
499.186
499.185
499.183
499.182
499.18
499.178
499.177
499.175
499.173
499.172
499.17
499.168
499.166
499.165
499.163
499.161
499.159
499.157
499.155
499.153
499.152
499.15
499.147
499.145
499.143
499.141
499.139
499.136
499.134
499.131
499.129
499.126
499.123
499.119
499.116
499.112
499.109
499.104
499.1
499.095
499.09
499.085
499.079
499.072
499.066
499.059
499.051
499.043
499.034
499.025
499.016
499.006
498.996
498.985
498.974
498.963
498.951
498.939
498.928
498.916
498.904
498.892
498.88
498.868
498.857
498.846
498.835
498.825
498.815
498.805
498.796
498.787
498.779
498.771
498.763
498.756
498.749
498.743
498.737
498.731
498.725
498.72
498.715
498.71
498.705
498.7
498.696
498.691
498.686
498.682
498.677
498.673
498.668
498.663
498.659
498.654
498.649
498.644
498.639
498.634
498.629
498.623
498.618
498.612
498.607
498.601
498.595
498.589
498.583
498.577
498.571
498.565
498.559
498.552
498.546
498.54
498.533
498.527
498.52
498.514
498.508
498.501
498.495
498.489
498.482
498.476
498.469
498.462
498.455
498.447
498.439
498.43
498.421
498.411
498.402
498.391
498.381
)
;

boundaryField
{
    sides
    {
        type            calculated;
        value           nonuniform List<scalar> 2(498.37 -14.5558);
    }
    empty
    {
        type            empty;
        value           nonuniform 0();
    }
}


// ************************************************************************* //
