/*--------------------------------*- C++ -*----------------------------------*\
| =========                 |                                                 |
| \\      /  F ield         | OpenFOAM: The Open Source CFD Toolbox           |
|  \\    /   O peration     | Version:  3.0.0                                 |
|   \\  /    A nd           | Web:      www.OpenFOAM.org                      |
|    \\/     M anipulation  |                                                 |
\*---------------------------------------------------------------------------*/
FoamFile
{
    version     2.0;
    format      ascii;
    class       volScalarField;
    location    "0.02";
    object      T;
}
// * * * * * * * * * * * * * * * * * * * * * * * * * * * * * * * * * * * * * //

dimensions      [0 0 0 1 0 0 0];

internalField   nonuniform List<scalar> 
1000
(
272.621
272.677
272.769
272.83
272.856
272.863
272.862
272.856
272.843
272.83
272.817
272.804
272.791
272.778
272.765
272.753
272.74
272.727
272.714
272.701
272.688
272.675
272.662
272.648
272.635
272.622
272.609
272.595
272.582
272.568
272.555
272.541
272.528
272.514
272.5
272.487
272.473
272.459
272.445
272.431
272.417
272.403
272.389
272.375
272.361
272.347
272.332
272.318
272.304
272.289
272.275
272.26
272.246
272.231
272.216
272.202
272.187
272.172
272.157
272.142
272.127
272.112
272.097
272.082
272.067
272.052
272.036
272.021
272.006
271.99
271.975
271.959
271.944
271.928
271.912
271.896
271.881
271.865
271.849
271.833
271.817
271.801
271.785
271.768
271.752
271.736
271.719
271.703
271.686
271.67
271.653
271.637
271.62
271.603
271.586
271.569
271.553
271.536
271.518
271.501
271.484
271.467
271.45
271.432
271.415
271.397
271.38
271.362
271.344
271.327
271.309
271.291
271.273
271.255
271.237
271.219
271.201
271.183
271.164
271.146
271.127
271.109
271.09
271.072
271.053
271.034
271.015
270.997
270.978
270.958
270.939
270.92
270.901
270.882
270.862
270.843
270.823
270.804
270.784
270.764
270.744
270.725
270.705
270.685
270.664
270.644
270.624
270.604
270.583
270.563
270.542
270.521
270.501
270.479
270.46
270.437
270.419
270.394
270.378
270.35
270.336
270.307
270.293
270.264
270.25
270.221
270.206
270.177
270.162
270.133
270.118
270.088
270.073
270.043
270.028
269.999
269.981
269.956
269.932
269.913
269.885
269.866
269.841
269.816
269.795
269.769
269.746
269.723
269.698
269.675
269.651
269.626
269.602
269.577
269.553
269.528
269.503
269.479
269.454
269.429
269.403
269.378
269.353
269.327
269.301
269.276
269.25
269.223
269.197
269.171
269.145
269.118
269.091
269.064
269.037
269.01
268.983
268.956
268.928
268.9
268.873
268.845
268.817
268.788
268.76
268.731
268.703
268.674
268.645
268.615
268.586
268.557
268.527
268.497
268.467
268.437
268.406
268.376
268.345
268.314
268.282
268.251
268.219
268.188
268.156
268.123
268.091
268.058
268.025
267.992
267.959
267.925
267.891
267.857
267.823
267.788
267.753
267.718
267.683
267.647
267.611
267.574
267.538
267.501
267.463
267.426
267.388
267.35
267.311
267.272
267.232
267.193
267.152
267.112
267.071
267.03
266.988
266.946
266.903
266.86
266.816
266.772
266.727
266.682
266.636
266.59
266.543
266.496
266.448
266.399
266.35
266.3
266.25
266.199
266.147
266.095
266.041
265.987
265.933
265.877
265.821
265.764
265.706
265.647
265.587
265.527
265.465
265.403
265.34
265.275
265.21
265.144
265.076
265.008
264.939
264.868
264.797
264.724
264.65
264.575
264.499
264.422
264.344
264.264
264.183
264.101
264.018
263.934
263.848
263.761
263.673
263.584
263.494
263.402
263.309
263.215
263.119
263.023
262.925
262.826
262.726
262.625
262.523
262.419
262.315
262.209
262.103
261.995
261.886
261.777
261.666
261.555
261.442
261.329
261.215
261.1
260.985
260.868
260.751
260.634
260.515
260.396
260.277
260.157
260.036
259.915
259.793
259.672
259.549
259.427
259.304
259.18
259.057
258.933
258.809
258.685
258.561
258.436
258.311
258.187
258.062
257.937
257.812
257.687
257.562
257.438
257.313
257.188
257.063
256.939
256.814
256.69
256.566
256.442
256.318
256.194
256.07
255.947
255.824
255.701
255.578
255.456
255.333
255.212
255.09
254.969
254.847
254.727
254.606
254.486
254.367
254.247
254.128
254.01
253.892
253.774
253.657
253.54
253.424
253.308
253.192
253.078
252.963
252.85
252.736
252.624
252.512
252.401
252.29
252.18
252.071
251.962
251.855
251.748
251.641
251.536
251.432
251.328
251.225
251.124
251.023
250.923
250.824
250.727
250.63
250.535
250.441
250.348
250.256
250.166
250.077
249.989
249.903
249.818
249.735
249.653
249.573
249.494
249.417
249.342
249.268
249.196
249.126
249.058
248.991
248.927
248.864
248.803
248.744
248.687
248.632
248.579
248.528
248.479
248.432
248.386
248.343
248.302
248.263
248.225
248.19
248.156
248.124
248.094
248.066
248.039
248.014
247.991
247.969
247.949
247.93
247.913
247.897
247.882
247.868
247.855
247.844
247.833
247.824
247.815
247.807
247.8
247.794
247.788
247.783
247.778
247.774
247.771
247.768
247.765
247.762
247.76
247.758
247.757
247.755
247.754
247.753
247.752
247.751
247.751
247.75
247.75
247.749
247.749
247.749
247.749
247.748
247.748
247.748
247.748
247.748
247.748
247.748
247.748
247.748
247.748
247.749
247.749
247.749
247.749
247.749
247.749
247.749
247.749
247.749
247.749
247.75
247.75
247.75
247.75
247.75
247.75
247.75
247.75
247.75
247.751
247.751
247.751
247.751
247.751
247.751
247.751
247.751
247.752
247.752
247.752
247.752
247.752
247.752
247.752
247.753
247.753
247.753
247.753
247.753
247.753
247.753
247.753
247.754
247.754
247.754
247.754
247.754
247.754
247.754
247.755
247.755
247.755
247.755
247.755
247.755
247.756
247.756
247.756
247.756
247.756
247.756
247.756
247.757
247.757
247.757
247.757
247.757
247.757
247.758
247.758
247.758
247.758
247.758
247.759
247.759
247.759
247.759
247.759
247.759
247.76
247.76
247.76
247.76
247.76
247.76
247.761
247.761
247.761
247.761
247.761
247.761
247.762
247.762
247.762
247.762
247.762
247.763
247.763
247.763
247.763
247.763
247.764
247.764
247.764
247.764
247.764
247.764
247.765
247.765
247.765
247.765
247.765
247.766
247.766
247.766
247.766
247.766
247.767
247.767
247.767
247.767
247.768
247.768
247.768
247.768
247.768
247.769
247.769
247.769
247.769
247.769
247.77
247.77
247.77
247.77
247.771
247.771
247.771
247.771
247.771
247.772
247.772
247.772
247.772
247.773
247.773
247.773
247.773
247.774
247.774
247.774
247.774
247.774
247.775
247.775
247.775
247.775
247.776
247.776
247.776
247.776
247.777
247.777
247.777
247.777
247.778
247.778
247.778
247.779
247.779
247.779
247.779
247.78
247.78
247.78
247.78
247.781
247.781
247.781
247.782
247.782
247.782
247.782
247.783
247.783
247.783
247.784
247.784
247.784
247.784
247.785
247.785
247.785
247.786
247.786
247.786
247.787
247.787
247.787
247.787
247.788
247.788
247.789
247.789
247.789
247.789
247.79
247.79
247.79
247.791
247.791
247.791
247.792
247.792
247.792
247.793
247.793
247.793
247.794
247.794
247.795
247.795
247.795
247.796
247.796
247.796
247.797
247.797
247.797
247.798
247.798
247.799
247.799
247.799
247.8
247.8
247.801
247.801
247.801
247.802
247.802
247.803
247.803
247.803
247.804
247.804
247.805
247.805
247.805
247.806
247.806
247.807
247.807
247.808
247.808
247.809
247.809
247.809
247.81
247.81
247.811
247.811
247.812
247.812
247.813
247.813
247.814
247.814
247.815
247.815
247.816
247.816
247.817
247.817
247.818
247.818
247.819
247.819
247.82
247.82
247.821
247.821
247.822
247.822
247.823
247.823
247.824
247.824
247.825
247.826
247.826
247.827
247.827
247.828
247.829
247.829
247.83
247.83
247.831
247.831
247.832
247.833
247.833
247.834
247.835
247.835
247.836
247.837
247.837
247.838
247.839
247.839
247.84
247.841
247.841
247.842
247.843
247.844
247.844
247.845
247.846
247.846
247.847
247.848
247.848
247.849
247.85
247.851
247.852
247.853
247.853
247.854
247.855
247.856
247.856
247.858
247.858
247.859
247.86
247.861
247.862
247.863
247.863
247.865
247.865
247.867
247.867
247.869
247.869
247.871
247.872
247.874
247.875
247.876
247.878
247.88
247.881
247.884
247.886
247.889
247.891
247.895
247.898
247.903
247.906
247.913
247.917
247.925
247.93
247.94
247.946
247.958
247.966
247.98
247.99
248.005
248.017
248.035
248.049
248.068
248.085
248.106
248.124
248.146
248.165
248.189
248.209
248.233
248.254
248.279
248.299
248.323
248.343
248.366
248.385
248.406
248.424
248.443
248.459
248.477
248.491
248.506
248.518
248.532
248.541
248.553
248.561
248.571
248.578
248.586
248.591
248.598
248.602
248.608
248.612
248.617
248.619
248.624
248.626
248.631
248.633
248.637
248.639
248.642
248.644
248.648
248.65
248.654
248.656
248.66
248.662
248.666
248.668
248.672
248.675
248.679
248.681
248.686
248.688
248.692
248.695
248.699
248.701
248.705
248.707
248.711
248.713
248.715
248.717
248.719
248.72
248.722
248.723
248.724
248.725
248.727
248.729
248.731
248.733
248.737
248.739
248.745
248.747
248.756
)
;

boundaryField
{
    sides
    {
        type            zeroGradient;
    }
    empty
    {
        type            empty;
    }
}


// ************************************************************************* //
