/*--------------------------------*- C++ -*----------------------------------*\
| =========                 |                                                 |
| \\      /  F ield         | OpenFOAM: The Open Source CFD Toolbox           |
|  \\    /   O peration     | Version:  3.0.0                                 |
|   \\  /    A nd           | Web:      www.OpenFOAM.org                      |
|    \\/     M anipulation  |                                                 |
\*---------------------------------------------------------------------------*/
FoamFile
{
    version     2.0;
    format      ascii;
    class       volVectorField;
    location    "0.02";
    object      U;
}
// * * * * * * * * * * * * * * * * * * * * * * * * * * * * * * * * * * * * * //

dimensions      [0 1 -1 0 0 0 0];

internalField   nonuniform List<vector> 
1000
(
(6.70745 0 0)
(7.74283 0 0)
(8.51368 0 0)
(9.18105 0 0)
(9.87033 0 0)
(10.5815 0 0)
(11.294 0 0)
(12.0027 0 0)
(12.7102 0 0)
(13.418 0 0)
(14.1263 0 0)
(14.8347 0 0)
(15.5432 0 0)
(16.2517 0 0)
(16.9604 0 0)
(17.6692 0 0)
(18.3781 0 0)
(19.087 0 0)
(19.7961 0 0)
(20.5053 0 0)
(21.2146 0 0)
(21.9241 0 0)
(22.6336 0 0)
(23.3432 0 0)
(24.0529 0 0)
(24.7627 0 0)
(25.4727 0 0)
(26.1827 0 0)
(26.8929 0 0)
(27.6031 0 0)
(28.3134 0 0)
(29.0239 0 0)
(29.7344 0 0)
(30.4451 0 0)
(31.1558 0 0)
(31.8667 0 0)
(32.5777 0 0)
(33.2887 0 0)
(33.9999 0 0)
(34.7111 0 0)
(35.4224 0 0)
(36.1339 0 0)
(36.8454 0 0)
(37.5571 0 0)
(38.2688 0 0)
(38.9806 0 0)
(39.6926 0 0)
(40.4046 0 0)
(41.1167 0 0)
(41.8289 0 0)
(42.5412 0 0)
(43.2536 0 0)
(43.9661 0 0)
(44.6787 0 0)
(45.3913 0 0)
(46.1041 0 0)
(46.817 0 0)
(47.5299 0 0)
(48.2429 0 0)
(48.9561 0 0)
(49.6693 0 0)
(50.3826 0 0)
(51.0959 0 0)
(51.8094 0 0)
(52.523 0 0)
(53.2366 0 0)
(53.9504 0 0)
(54.6642 0 0)
(55.3781 0 0)
(56.0921 0 0)
(56.8061 0 0)
(57.5203 0 0)
(58.2345 0 0)
(58.9488 0 0)
(59.6632 0 0)
(60.3777 0 0)
(61.0922 0 0)
(61.8069 0 0)
(62.5216 0 0)
(63.2364 0 0)
(63.9513 0 0)
(64.6662 0 0)
(65.3812 0 0)
(66.0963 0 0)
(66.8115 0 0)
(67.5267 0 0)
(68.2421 0 0)
(68.9575 0 0)
(69.6729 0 0)
(70.3885 0 0)
(71.1041 0 0)
(71.8198 0 0)
(72.5355 0 0)
(73.2514 0 0)
(73.9672 0 0)
(74.6832 0 0)
(75.3992 0 0)
(76.1153 0 0)
(76.8315 0 0)
(77.5477 0 0)
(78.264 0 0)
(78.9804 0 0)
(79.6968 0 0)
(80.4133 0 0)
(81.1298 0 0)
(81.8464 0 0)
(82.5631 0 0)
(83.2798 0 0)
(83.9966 0 0)
(84.7134 0 0)
(85.4303 0 0)
(86.1473 0 0)
(86.8643 0 0)
(87.5814 0 0)
(88.2985 0 0)
(89.0157 0 0)
(89.7329 0 0)
(90.4502 0 0)
(91.1675 0 0)
(91.8849 0 0)
(92.6023 0 0)
(93.3198 0 0)
(94.0373 0 0)
(94.7548 0 0)
(95.4725 0 0)
(96.1901 0 0)
(96.9078 0 0)
(97.6255 0 0)
(98.3433 0 0)
(99.0611 0 0)
(99.779 0 0)
(100.497 0 0)
(101.215 0 0)
(101.933 0 0)
(102.651 0 0)
(103.369 0 0)
(104.087 0 0)
(104.805 0 0)
(105.523 0 0)
(106.241 0 0)
(106.96 0 0)
(107.678 0 0)
(108.396 0 0)
(109.114 0 0)
(109.833 0 0)
(110.551 0 0)
(111.269 0 0)
(111.988 0 0)
(112.706 0 0)
(113.425 0 0)
(114.143 0 0)
(114.861 0 0)
(115.58 0 0)
(116.298 0 0)
(117.017 0 0)
(117.735 0 0)
(118.453 0 0)
(119.172 0 0)
(119.89 0 0)
(120.608 0 0)
(121.327 0 0)
(122.045 0 0)
(122.763 0 0)
(123.482 0 0)
(124.2 0 0)
(124.919 0 0)
(125.637 0 0)
(126.355 0 0)
(127.074 0 0)
(127.792 0 0)
(128.51 0 0)
(129.229 0 0)
(129.947 0 0)
(130.665 0 0)
(131.384 0 0)
(132.102 0 0)
(132.82 0 0)
(133.538 0 0)
(134.256 0 0)
(134.974 0 0)
(135.692 0 0)
(136.41 0 0)
(137.128 0 0)
(137.846 0 0)
(138.563 0 0)
(139.281 0 0)
(139.999 0 0)
(140.716 0 0)
(141.434 0 0)
(142.151 0 0)
(142.869 0 0)
(143.586 0 0)
(144.303 0 0)
(145.02 0 0)
(145.737 0 0)
(146.454 0 0)
(147.171 0 0)
(147.888 0 0)
(148.605 0 0)
(149.321 0 0)
(150.037 0 0)
(150.754 0 0)
(151.47 0 0)
(152.186 0 0)
(152.902 0 0)
(153.618 0 0)
(154.334 0 0)
(155.049 0 0)
(155.765 0 0)
(156.48 0 0)
(157.195 0 0)
(157.91 0 0)
(158.625 0 0)
(159.339 0 0)
(160.054 0 0)
(160.768 0 0)
(161.482 0 0)
(162.196 0 0)
(162.91 0 0)
(163.623 0 0)
(164.336 0 0)
(165.049 0 0)
(165.762 0 0)
(166.475 0 0)
(167.187 0 0)
(167.899 0 0)
(168.611 0 0)
(169.323 0 0)
(170.034 0 0)
(170.745 0 0)
(171.456 0 0)
(172.167 0 0)
(172.877 0 0)
(173.587 0 0)
(174.296 0 0)
(175.006 0 0)
(175.714 0 0)
(176.423 0 0)
(177.131 0 0)
(177.839 0 0)
(178.547 0 0)
(179.254 0 0)
(179.96 0 0)
(180.667 0 0)
(181.372 0 0)
(182.078 0 0)
(182.783 0 0)
(183.487 0 0)
(184.191 0 0)
(184.895 0 0)
(185.598 0 0)
(186.3 0 0)
(187.002 0 0)
(187.704 0 0)
(188.404 0 0)
(189.105 0 0)
(189.804 0 0)
(190.503 0 0)
(191.202 0 0)
(191.899 0 0)
(192.596 0 0)
(193.292 0 0)
(193.988 0 0)
(194.683 0 0)
(195.377 0 0)
(196.07 0 0)
(196.762 0 0)
(197.454 0 0)
(198.144 0 0)
(198.834 0 0)
(199.523 0 0)
(200.21 0 0)
(200.897 0 0)
(201.583 0 0)
(202.268 0 0)
(202.951 0 0)
(203.634 0 0)
(204.315 0 0)
(204.995 0 0)
(205.674 0 0)
(206.351 0 0)
(207.027 0 0)
(207.702 0 0)
(208.375 0 0)
(209.047 0 0)
(209.718 0 0)
(210.386 0 0)
(211.054 0 0)
(211.719 0 0)
(212.383 0 0)
(213.045 0 0)
(213.706 0 0)
(214.364 0 0)
(215.021 0 0)
(215.675 0 0)
(216.328 0 0)
(216.978 0 0)
(217.627 0 0)
(218.273 0 0)
(218.917 0 0)
(219.558 0 0)
(220.198 0 0)
(220.834 0 0)
(221.469 0 0)
(222.1 0 0)
(222.729 0 0)
(223.356 0 0)
(223.979 0 0)
(224.6 0 0)
(225.218 0 0)
(225.833 0 0)
(226.445 0 0)
(227.053 0 0)
(227.659 0 0)
(228.261 0 0)
(228.861 0 0)
(229.456 0 0)
(230.049 0 0)
(230.638 0 0)
(231.223 0 0)
(231.805 0 0)
(232.384 0 0)
(232.959 0 0)
(233.53 0 0)
(234.097 0 0)
(234.661 0 0)
(235.22 0 0)
(235.776 0 0)
(236.329 0 0)
(236.877 0 0)
(237.421 0 0)
(237.962 0 0)
(238.498 0 0)
(239.031 0 0)
(239.56 0 0)
(240.084 0 0)
(240.605 0 0)
(241.122 0 0)
(241.636 0 0)
(242.145 0 0)
(242.65 0 0)
(243.152 0 0)
(243.65 0 0)
(244.144 0 0)
(244.634 0 0)
(245.121 0 0)
(245.605 0 0)
(246.084 0 0)
(246.561 0 0)
(247.034 0 0)
(247.503 0 0)
(247.97 0 0)
(248.433 0 0)
(248.893 0 0)
(249.35 0 0)
(249.804 0 0)
(250.255 0 0)
(250.703 0 0)
(251.149 0 0)
(251.592 0 0)
(252.033 0 0)
(252.471 0 0)
(252.907 0 0)
(253.34 0 0)
(253.771 0 0)
(254.2 0 0)
(254.627 0 0)
(255.053 0 0)
(255.476 0 0)
(255.897 0 0)
(256.317 0 0)
(256.735 0 0)
(257.151 0 0)
(257.566 0 0)
(257.979 0 0)
(258.391 0 0)
(258.802 0 0)
(259.211 0 0)
(259.619 0 0)
(260.026 0 0)
(260.431 0 0)
(260.836 0 0)
(261.239 0 0)
(261.641 0 0)
(262.042 0 0)
(262.443 0 0)
(262.842 0 0)
(263.24 0 0)
(263.637 0 0)
(264.034 0 0)
(264.429 0 0)
(264.824 0 0)
(265.218 0 0)
(265.611 0 0)
(266.003 0 0)
(266.394 0 0)
(266.784 0 0)
(267.173 0 0)
(267.562 0 0)
(267.949 0 0)
(268.336 0 0)
(268.722 0 0)
(269.107 0 0)
(269.491 0 0)
(269.873 0 0)
(270.255 0 0)
(270.636 0 0)
(271.016 0 0)
(271.395 0 0)
(271.773 0 0)
(272.15 0 0)
(272.525 0 0)
(272.9 0 0)
(273.273 0 0)
(273.645 0 0)
(274.015 0 0)
(274.384 0 0)
(274.752 0 0)
(275.119 0 0)
(275.484 0 0)
(275.847 0 0)
(276.209 0 0)
(276.569 0 0)
(276.928 0 0)
(277.285 0 0)
(277.64 0 0)
(277.993 0 0)
(278.345 0 0)
(278.694 0 0)
(279.041 0 0)
(279.386 0 0)
(279.729 0 0)
(280.07 0 0)
(280.408 0 0)
(280.744 0 0)
(281.077 0 0)
(281.408 0 0)
(281.736 0 0)
(282.061 0 0)
(282.383 0 0)
(282.702 0 0)
(283.018 0 0)
(283.331 0 0)
(283.64 0 0)
(283.946 0 0)
(284.249 0 0)
(284.548 0 0)
(284.843 0 0)
(285.134 0 0)
(285.421 0 0)
(285.705 0 0)
(285.983 0 0)
(286.258 0 0)
(286.528 0 0)
(286.793 0 0)
(287.054 0 0)
(287.31 0 0)
(287.56 0 0)
(287.806 0 0)
(288.047 0 0)
(288.282 0 0)
(288.512 0 0)
(288.736 0 0)
(288.954 0 0)
(289.167 0 0)
(289.374 0 0)
(289.575 0 0)
(289.77 0 0)
(289.959 0 0)
(290.142 0 0)
(290.319 0 0)
(290.489 0 0)
(290.653 0 0)
(290.812 0 0)
(290.963 0 0)
(291.109 0 0)
(291.248 0 0)
(291.381 0 0)
(291.508 0 0)
(291.629 0 0)
(291.744 0 0)
(291.853 0 0)
(291.956 0 0)
(292.054 0 0)
(292.145 0 0)
(292.232 0 0)
(292.313 0 0)
(292.389 0 0)
(292.46 0 0)
(292.526 0 0)
(292.588 0 0)
(292.645 0 0)
(292.698 0 0)
(292.746 0 0)
(292.791 0 0)
(292.833 0 0)
(292.871 0 0)
(292.905 0 0)
(292.937 0 0)
(292.965 0 0)
(292.992 0 0)
(293.015 0 0)
(293.036 0 0)
(293.056 0 0)
(293.073 0 0)
(293.088 0 0)
(293.102 0 0)
(293.114 0 0)
(293.125 0 0)
(293.135 0 0)
(293.143 0 0)
(293.151 0 0)
(293.157 0 0)
(293.163 0 0)
(293.168 0 0)
(293.173 0 0)
(293.177 0 0)
(293.18 0 0)
(293.183 0 0)
(293.186 0 0)
(293.188 0 0)
(293.19 0 0)
(293.191 0 0)
(293.193 0 0)
(293.194 0 0)
(293.195 0 0)
(293.196 0 0)
(293.196 0 0)
(293.197 0 0)
(293.198 0 0)
(293.198 0 0)
(293.199 0 0)
(293.199 0 0)
(293.199 0 0)
(293.199 0 0)
(293.2 0 0)
(293.2 0 0)
(293.2 0 0)
(293.2 0 0)
(293.2 0 0)
(293.2 0 0)
(293.201 0 0)
(293.201 0 0)
(293.201 0 0)
(293.201 0 0)
(293.201 0 0)
(293.201 0 0)
(293.201 0 0)
(293.201 0 0)
(293.201 0 0)
(293.201 0 0)
(293.201 0 0)
(293.201 0 0)
(293.201 0 0)
(293.201 0 0)
(293.201 0 0)
(293.202 0 0)
(293.202 0 0)
(293.202 0 0)
(293.202 0 0)
(293.202 0 0)
(293.202 0 0)
(293.202 0 0)
(293.202 0 0)
(293.202 0 0)
(293.202 0 0)
(293.202 0 0)
(293.202 0 0)
(293.202 0 0)
(293.202 0 0)
(293.202 0 0)
(293.202 0 0)
(293.202 0 0)
(293.202 0 0)
(293.202 0 0)
(293.203 0 0)
(293.203 0 0)
(293.203 0 0)
(293.203 0 0)
(293.203 0 0)
(293.203 0 0)
(293.203 0 0)
(293.203 0 0)
(293.203 0 0)
(293.203 0 0)
(293.203 0 0)
(293.203 0 0)
(293.203 0 0)
(293.203 0 0)
(293.203 0 0)
(293.203 0 0)
(293.203 0 0)
(293.203 0 0)
(293.203 0 0)
(293.203 0 0)
(293.203 0 0)
(293.203 0 0)
(293.203 0 0)
(293.203 0 0)
(293.203 0 0)
(293.203 0 0)
(293.203 0 0)
(293.203 0 0)
(293.203 0 0)
(293.203 0 0)
(293.203 0 0)
(293.203 0 0)
(293.203 0 0)
(293.203 0 0)
(293.203 0 0)
(293.203 0 0)
(293.203 0 0)
(293.203 0 0)
(293.203 0 0)
(293.203 0 0)
(293.203 0 0)
(293.203 0 0)
(293.203 0 0)
(293.203 0 0)
(293.203 0 0)
(293.203 0 0)
(293.203 0 0)
(293.203 0 0)
(293.203 0 0)
(293.203 0 0)
(293.203 0 0)
(293.203 0 0)
(293.204 0 0)
(293.204 0 0)
(293.204 0 0)
(293.204 0 0)
(293.204 0 0)
(293.204 0 0)
(293.204 0 0)
(293.204 0 0)
(293.204 0 0)
(293.204 0 0)
(293.204 0 0)
(293.204 0 0)
(293.204 0 0)
(293.204 0 0)
(293.204 0 0)
(293.204 0 0)
(293.204 0 0)
(293.204 0 0)
(293.204 0 0)
(293.204 0 0)
(293.204 0 0)
(293.204 0 0)
(293.204 0 0)
(293.204 0 0)
(293.204 0 0)
(293.204 0 0)
(293.204 0 0)
(293.204 0 0)
(293.204 0 0)
(293.204 0 0)
(293.204 0 0)
(293.204 0 0)
(293.204 0 0)
(293.204 0 0)
(293.204 0 0)
(293.204 0 0)
(293.204 0 0)
(293.204 0 0)
(293.204 0 0)
(293.204 0 0)
(293.204 0 0)
(293.204 0 0)
(293.204 0 0)
(293.204 0 0)
(293.204 0 0)
(293.204 0 0)
(293.204 0 0)
(293.204 0 0)
(293.204 0 0)
(293.204 0 0)
(293.204 0 0)
(293.204 0 0)
(293.204 0 0)
(293.204 0 0)
(293.205 0 0)
(293.205 0 0)
(293.205 0 0)
(293.205 0 0)
(293.205 0 0)
(293.205 0 0)
(293.205 0 0)
(293.205 0 0)
(293.205 0 0)
(293.205 0 0)
(293.205 0 0)
(293.205 0 0)
(293.205 0 0)
(293.205 0 0)
(293.205 0 0)
(293.205 0 0)
(293.205 0 0)
(293.205 0 0)
(293.205 0 0)
(293.205 0 0)
(293.205 0 0)
(293.205 0 0)
(293.205 0 0)
(293.205 0 0)
(293.205 0 0)
(293.205 0 0)
(293.205 0 0)
(293.205 0 0)
(293.205 0 0)
(293.205 0 0)
(293.205 0 0)
(293.205 0 0)
(293.205 0 0)
(293.205 0 0)
(293.205 0 0)
(293.205 0 0)
(293.205 0 0)
(293.205 0 0)
(293.205 0 0)
(293.205 0 0)
(293.205 0 0)
(293.205 0 0)
(293.205 0 0)
(293.205 0 0)
(293.205 0 0)
(293.205 0 0)
(293.205 0 0)
(293.205 0 0)
(293.205 0 0)
(293.205 0 0)
(293.205 0 0)
(293.205 0 0)
(293.205 0 0)
(293.205 0 0)
(293.205 0 0)
(293.205 0 0)
(293.205 0 0)
(293.205 0 0)
(293.205 0 0)
(293.205 0 0)
(293.205 0 0)
(293.205 0 0)
(293.205 0 0)
(293.205 0 0)
(293.205 0 0)
(293.205 0 0)
(293.205 0 0)
(293.205 0 0)
(293.205 0 0)
(293.205 0 0)
(293.205 0 0)
(293.205 0 0)
(293.205 0 0)
(293.205 0 0)
(293.205 0 0)
(293.205 0 0)
(293.205 0 0)
(293.205 0 0)
(293.205 0 0)
(293.205 0 0)
(293.205 0 0)
(293.205 0 0)
(293.205 0 0)
(293.205 0 0)
(293.205 0 0)
(293.205 0 0)
(293.205 0 0)
(293.205 0 0)
(293.205 0 0)
(293.205 0 0)
(293.205 0 0)
(293.205 0 0)
(293.205 0 0)
(293.205 0 0)
(293.205 0 0)
(293.205 0 0)
(293.205 0 0)
(293.205 0 0)
(293.205 0 0)
(293.205 0 0)
(293.205 0 0)
(293.205 0 0)
(293.205 0 0)
(293.205 0 0)
(293.205 0 0)
(293.205 0 0)
(293.205 0 0)
(293.205 0 0)
(293.205 0 0)
(293.205 0 0)
(293.205 0 0)
(293.205 0 0)
(293.205 0 0)
(293.205 0 0)
(293.205 0 0)
(293.205 0 0)
(293.205 0 0)
(293.205 0 0)
(293.205 0 0)
(293.205 0 0)
(293.205 0 0)
(293.205 0 0)
(293.205 0 0)
(293.206 0 0)
(293.206 0 0)
(293.206 0 0)
(293.206 0 0)
(293.206 0 0)
(293.206 0 0)
(293.206 0 0)
(293.206 0 0)
(293.206 0 0)
(293.206 0 0)
(293.206 0 0)
(293.206 0 0)
(293.206 0 0)
(293.206 0 0)
(293.206 0 0)
(293.206 0 0)
(293.206 0 0)
(293.206 0 0)
(293.206 0 0)
(293.206 0 0)
(293.206 0 0)
(293.206 0 0)
(293.206 0 0)
(293.206 0 0)
(293.206 0 0)
(293.206 0 0)
(293.206 0 0)
(293.206 0 0)
(293.206 0 0)
(293.206 0 0)
(293.206 0 0)
(293.206 0 0)
(293.206 0 0)
(293.206 0 0)
(293.206 0 0)
(293.206 0 0)
(293.206 0 0)
(293.206 0 0)
(293.206 0 0)
(293.206 0 0)
(293.206 0 0)
(293.206 0 0)
(293.206 0 0)
(293.206 0 0)
(293.206 0 0)
(293.206 0 0)
(293.206 0 0)
(293.206 0 0)
(293.206 0 0)
(293.206 0 0)
(293.206 0 0)
(293.206 0 0)
(293.206 0 0)
(293.206 0 0)
(293.206 0 0)
(293.206 0 0)
(293.206 0 0)
(293.206 0 0)
(293.206 0 0)
(293.206 0 0)
(293.206 0 0)
(293.206 0 0)
(293.206 0 0)
(293.206 0 0)
(293.206 0 0)
(293.206 0 0)
(293.206 0 0)
(293.206 0 0)
(293.206 0 0)
(293.206 0 0)
(293.206 0 0)
(293.205 0 0)
(293.205 0 0)
(293.205 0 0)
(293.205 0 0)
(293.205 0 0)
(293.205 0 0)
(293.205 0 0)
(293.204 0 0)
(293.204 0 0)
(293.203 0 0)
(293.203 0 0)
(293.202 0 0)
(293.201 0 0)
(293.2 0 0)
(293.198 0 0)
(293.196 0 0)
(293.194 0 0)
(293.191 0 0)
(293.188 0 0)
(293.184 0 0)
(293.179 0 0)
(293.174 0 0)
(293.167 0 0)
(293.159 0 0)
(293.15 0 0)
(293.14 0 0)
(293.128 0 0)
(293.114 0 0)
(293.098 0 0)
(293.08 0 0)
(293.06 0 0)
(293.037 0 0)
(293.011 0 0)
(292.983 0 0)
(292.952 0 0)
(292.917 0 0)
(292.88 0 0)
(292.84 0 0)
(292.796 0 0)
(292.749 0 0)
(292.699 0 0)
(292.646 0 0)
(292.591 0 0)
(292.532 0 0)
(292.472 0 0)
(292.409 0 0)
(292.345 0 0)
(292.28 0 0)
(292.214 0 0)
(292.147 0 0)
(292.08 0 0)
(292.013 0 0)
(291.948 0 0)
(291.883 0 0)
(291.82 0 0)
(291.759 0 0)
(291.701 0 0)
(291.645 0 0)
(291.592 0 0)
(291.541 0 0)
(291.494 0 0)
(291.451 0 0)
(291.41 0 0)
(291.373 0 0)
(291.339 0 0)
(291.308 0 0)
(291.28 0 0)
(291.256 0 0)
(291.234 0 0)
(291.214 0 0)
(291.197 0 0)
(291.183 0 0)
(291.17 0 0)
(291.159 0 0)
(291.149 0 0)
(291.142 0 0)
(291.135 0 0)
(291.129 0 0)
(291.125 0 0)
(291.121 0 0)
(291.117 0 0)
(291.115 0 0)
(291.113 0 0)
(291.111 0 0)
(291.109 0 0)
(291.108 0 0)
(291.106 0 0)
(291.105 0 0)
(291.104 0 0)
(291.103 0 0)
(291.102 0 0)
(291.101 0 0)
(291.1 0 0)
(291.098 0 0)
(291.097 0 0)
(291.096 0 0)
(291.095 0 0)
(291.094 0 0)
(291.093 0 0)
(291.092 0 0)
(291.091 0 0)
(291.091 0 0)
(291.091 0 0)
(291.091 0 0)
(291.091 0 0)
(291.093 0 0)
(291.095 0 0)
(291.098 0 0)
(291.103 0 0)
(291.108 0 0)
(291.114 0 0)
(291.122 0 0)
(291.13 0 0)
(291.138 0 0)
(291.147 0 0)
(291.157 0 0)
(291.165 0 0)
(291.174 0 0)
(291.182 0 0)
(291.189 0 0)
(291.195 0 0)
(291.199 0 0)
(291.202 0 0)
(291.205 0 0)
(291.207 0 0)
)
;

boundaryField
{
    sides
    {
        type            zeroGradient;
    }
    empty
    {
        type            empty;
    }
}


// ************************************************************************* //
