/*--------------------------------*- C++ -*----------------------------------*\
| =========                 |                                                 |
| \\      /  F ield         | OpenFOAM: The Open Source CFD Toolbox           |
|  \\    /   O peration     | Version:  3.0.0                                 |
|   \\  /    A nd           | Web:      www.OpenFOAM.org                      |
|    \\/     M anipulation  |                                                 |
\*---------------------------------------------------------------------------*/
FoamFile
{
    version     2.0;
    format      ascii;
    class       volScalarField;
    location    "0.015";
    object      p;
}
// * * * * * * * * * * * * * * * * * * * * * * * * * * * * * * * * * * * * * //

dimensions      [1 -1 -2 0 0 0 0];

internalField   nonuniform List<scalar> 
1000
(
76818.2
76804.4
76795.7
76785.8
76775
76763.7
76752
76739.8
76727
76713.8
76700
76685.7
76670.8
76655.4
76639.5
76623
76605.9
76588.3
76570.1
76551.3
76531.9
76512
76491.4
76470.2
76448.3
76425.8
76402.7
76378.8
76354.3
76329.1
76303.1
76276.4
76248.9
76220.6
76191.5
76161.6
76130.9
76099.3
76066.7
76033.3
75998.8
75963.4
75927
75889.5
75850.9
75811.2
75770.3
75728.2
75684.9
75640.3
75594.4
75547.1
75498.4
75448.3
75396.6
75343.3
75288.5
75232
75173.7
75113.7
75051.9
74988.3
74922.6
74855.1
74785.5
74713.8
74640
74564
74485.8
74405.4
74322.7
74237.6
74150.2
74060.4
73968.2
73873.6
73776.6
73677.1
73575.2
73470.9
73364.2
73255.2
73143.8
73030
72914
72795.8
72675.5
72553
72428.6
72302.1
72173.8
72043.8
71912
71778.6
71643.7
71507.4
71369.7
71230.9
71090.8
70949.8
70807.7
70664.8
70521.1
70376.8
70231.8
70086.2
69940.2
69793.8
69647.1
69500.1
69352.8
69205.4
69057.9
68910.2
68762.6
68614.9
68467.3
68319.7
68172.2
68024.8
67877.5
67730.4
67583.5
67436.7
67290.1
67143.7
66997.5
66851.5
66705.8
66560.3
66415
66270
66125.2
65980.6
65836.3
65692.3
65548.5
65404.9
65261.6
65118.6
64975.8
64833.3
64691
64549
64407.3
64265.8
64124.6
63983.6
63842.9
63702.4
63562.2
63422.3
63282.6
63143.2
63004
62865.1
62726.5
62588.1
62450
62312.1
62174.5
62037.1
61900
61763.2
61626.6
61490.2
61354.1
61218.3
61082.7
60947.4
60812.3
60677.5
60543
60408.7
60274.6
60140.8
60007.2
59873.9
59740.9
59608.1
59475.6
59343.3
59211.2
59079.4
58947.9
58816.6
58685.5
58554.7
58424.2
58293.9
58163.8
58034
57904.5
57775.2
57646.1
57517.3
57388.7
57260.4
57132.3
57004.5
56876.9
56749.5
56622.4
56495.6
56369
56242.6
56116.5
55990.6
55865
55739.6
55614.4
55489.5
55364.8
55240.4
55116.2
54992.2
54868.5
54745.1
54621.8
54498.8
54376.1
54253.6
54131.3
54009.2
53887.4
53765.9
53644.5
53523.5
53402.6
53282
53161.6
53041.5
52921.5
52801.9
52682.4
52563.2
52444.2
52325.5
52207
52088.7
51970.7
51852.9
51735.3
51617.9
51500.8
51383.9
51267.3
51150.9
51034.7
50918.7
50803
50687.5
50572.2
50457.2
50342.4
50227.8
50113.4
49999.3
49885.4
49771.7
49658.2
49545
49432
49319.2
49206.7
49094.4
48982.3
48870.4
48758.8
48647.3
48536.1
48425.2
48314.4
48203.9
48093.6
47983.5
47873.6
47764
47654.6
47545.4
47436.4
47327.7
47219.1
47110.8
47002.7
46894.8
46787.2
46679.8
46572.6
46465.6
46358.8
46252.2
46145.9
46039.8
45933.9
45828.2
45722.7
45617.5
45512.4
45407.6
45303
45198.6
45094.5
44990.5
44886.8
44783.3
44680
44576.9
44474
44371.3
44268.9
44166.7
44064.7
43962.8
43861.3
43759.9
43658.7
43557.8
43457
43356.5
43256.2
43156.1
43056.2
42956.6
42857.1
42757.9
42658.8
42560
42461.4
42363
42264.8
42166.9
42069.1
41971.6
41874.2
41777.1
41680.2
41583.5
41487
41390.7
41294.7
41198.8
41103.2
41007.8
40912.5
40817.5
40722.7
40628.2
40533.8
40439.6
40345.7
40252
40158.5
40065.2
39972.1
39879.2
39786.5
39694.1
39601.8
39509.8
39418
39326.4
39235
39143.9
39052.9
38962.2
38871.7
38781.4
38691.3
38601.5
38511.8
38422.4
38333.2
38244.3
38155.5
38067
37978.7
37890.6
37802.7
37715.1
37627.7
37540.5
37453.5
37366.8
37280.3
37194
37108
37022.2
36936.6
36851.3
36766.2
36681.4
36596.7
36512.4
36428.2
36344.4
36260.7
36177.4
36094.2
36011.3
35928.7
35846.4
35764.3
35682.4
35600.9
35519.5
35438.5
35357.8
35277.3
35197.1
35117.2
35037.5
34958.2
34879.2
34800.4
34722
34643.9
34566.1
34488.6
34411.4
34334.6
34258.1
34182
34106.2
34030.7
33955.6
33880.9
33806.5
33732.6
33659
33585.9
33513.1
33440.8
33368.9
33297.4
33226.4
33155.8
33085.7
33016.1
32947
32878.5
32810.4
32742.9
32675.9
32609.5
32543.7
32478.5
32413.9
32350
32286.7
32224.1
32162.2
32101
32040.6
31980.9
31922
31863.9
31806.7
31750.3
31694.8
31640.2
31586.5
31533.8
31482.1
31431.4
31381.7
31333.1
31285.6
31239.2
31194
31149.9
31107
31065.4
31024.9
30985.8
30947.9
30911.3
30876
30842
30809.4
30778.1
30748.1
30719.5
30692.2
30666.2
30641.6
30618.3
30596.3
30575.5
30556
30537.7
30520.7
30504.7
30489.9
30476.2
30463.6
30451.9
30441.2
30431.4
30422.5
30414.3
30406.9
30400.3
30394.3
30388.9
30384.1
30379.8
30376
30372.6
30369.6
30367
30364.7
30362.7
30361
30359.5
30358.2
30357
30356.1
30355.2
30354.5
30353.9
30353.4
30353
30352.6
30352.3
30352
30351.8
30351.6
30351.5
30351.3
30351.2
30351.1
30351
30351
30350.9
30350.9
30350.8
30350.8
30350.8
30350.8
30350.7
30350.7
30350.7
30350.7
30350.7
30350.7
30350.6
30350.6
30350.6
30350.6
30350.6
30350.6
30350.6
30350.6
30350.6
30350.6
30350.6
30350.6
30350.5
30350.5
30350.5
30350.5
30350.5
30350.5
30350.5
30350.5
30350.5
30350.5
30350.5
30350.5
30350.5
30350.5
30350.4
30350.4
30350.4
30350.4
30350.4
30350.4
30350.4
30350.4
30350.4
30350.4
30350.4
30350.4
30350.3
30350.3
30350.3
30350.3
30350.3
30350.3
30350.3
30350.3
30350.3
30350.3
30350.3
30350.3
30350.3
30350.3
30350.3
30350.3
30350.2
30350.2
30350.2
30350.2
30350.2
30350.2
30350.2
30350.2
30350.2
30350.2
30350.2
30350.2
30350.2
30350.2
30350.2
30350.2
30350.2
30350.2
30350.2
30350.2
30350.2
30350.2
30350.2
30350.2
30350.2
30350.2
30350.2
30350.2
30350.2
30350.2
30350.2
30350.2
30350.2
30350.2
30350.2
30350.2
30350.2
30350.2
30350.2
30350.2
30350.2
30350.2
30350.2
30350.2
30350.2
30350.2
30350.2
30350.2
30350.2
30350.1
30350.1
30350.1
30350.1
30350.1
30350.1
30350.1
30350.1
30350.1
30350.1
30350.1
30350.1
30350.1
30350.1
30350.1
30350.1
30350.1
30350.1
30350.1
30350.1
30350.1
30350.1
30350.1
30350.1
30350.1
30350.1
30350.1
30350.1
30350.1
30350.1
30350.1
30350.1
30350.1
30350
30350
30350
30350
30350
30350
30350
30350
30350
30350
30350
30350
30350
30350
30350
30350
30350
30350
30350
30350
30350
30350
30350
30350
30350
30350
30350
30350
30350
30350
30350
30350
30350
30350
30350
30350
30350
30350
30350
30350
30350
30349.9
30349.9
30349.9
30349.9
30349.9
30349.9
30349.9
30349.9
30349.9
30349.9
30349.9
30349.9
30349.9
30349.9
30349.9
30349.9
30349.9
30349.9
30349.9
30349.9
30349.9
30349.9
30349.9
30349.9
30349.9
30349.9
30349.9
30349.9
30349.9
30349.9
30349.9
30349.9
30349.9
30349.9
30349.9
30349.9
30349.9
30349.9
30349.9
30349.9
30349.9
30349.9
30349.9
30349.9
30349.9
30349.9
30349.9
30349.9
30349.9
30349.9
30349.9
30349.9
30349.9
30349.9
30349.9
30349.9
30349.9
30349.9
30349.9
30349.9
30349.9
30349.9
30349.8
30349.8
30349.8
30349.8
30349.8
30349.8
30349.8
30349.8
30349.8
30349.8
30349.8
30349.8
30349.8
30349.8
30349.8
30349.8
30349.8
30349.8
30349.8
30349.8
30349.8
30349.8
30349.8
30349.8
30349.8
30349.8
30349.8
30349.8
30349.8
30349.8
30349.8
30349.8
30349.8
30349.8
30349.8
30349.8
30349.8
30349.8
30349.8
30349.8
30349.8
30349.8
30349.8
30349.8
30349.8
30349.8
30349.8
30349.8
30349.8
30349.8
30349.8
30349.8
30349.8
30349.8
30349.8
30349.8
30349.8
30349.8
30349.8
30349.8
30349.8
30349.8
30349.8
30349.8
30349.8
30349.8
30349.7
30349.7
30349.7
30349.7
30349.7
30349.7
30349.7
30349.7
30349.7
30349.7
30349.7
30349.7
30349.7
30349.7
30349.7
30349.7
30349.7
30349.7
30349.7
30349.7
30349.7
30349.7
30349.7
30349.7
30349.7
30349.7
30349.7
30349.7
30349.7
30349.7
30349.7
30349.7
30349.7
30349.7
30349.7
30349.7
30349.7
30349.7
30349.7
30349.7
30349.7
30349.7
30349.7
30349.7
30349.7
30349.7
30349.7
30349.7
30349.7
30349.7
30349.7
30349.7
30349.7
30349.7
30349.8
30349.8
30349.8
30349.9
30350
30350
30350.2
30350.3
30350.6
30350.9
30351.4
30352
30352.8
30353.9
30355.3
30357.1
30359.3
30362
30365.3
30369.2
30373.8
30379.2
30385.4
30392.4
30400.2
30408.8
30418.2
30428.3
30439
30450.1
30461.6
30473.3
30485.1
30496.7
30508.1
30519.2
30529.7
30539.6
30548.9
30557.4
30565.1
30572.1
30578.3
30583.8
30588.5
30592.6
30596
30598.9
30601.2
30603.1
30604.6
30605.8
30606.6
30607.3
30607.7
30607.9
30608.1
30608
30608
30607.9
30607.8
30607.6
30607.4
30607.1
30606.9
30606.7
30606.4
30606.2
30606
30605.8
30605.6
30605.4
30605.2
30605
30604.9
30604.7
30604.6
30604.4
30604.3
30604.2
30604
30603.9
30603.8
30603.7
30603.6
30603.5
30603.5
30603.4
30603.3
30603.2
30603.2
30603.1
30603.1
30603
30602.9
)
;

boundaryField
{
    sides
    {
        type            zeroGradient;
    }
    empty
    {
        type            empty;
    }
}


// ************************************************************************* //
