/*--------------------------------*- C++ -*----------------------------------*\
| =========                 |                                                 |
| \\      /  F ield         | OpenFOAM: The Open Source CFD Toolbox           |
|  \\    /   O peration     | Version:  3.0.0                                 |
|   \\  /    A nd           | Web:      www.OpenFOAM.org                      |
|    \\/     M anipulation  |                                                 |
\*---------------------------------------------------------------------------*/
FoamFile
{
    version     2.0;
    format      ascii;
    class       surfaceScalarField;
    location    "0.015";
    object      phi;
}
// * * * * * * * * * * * * * * * * * * * * * * * * * * * * * * * * * * * * * //

dimensions      [1 0 -1 0 0 0 0];

internalField   nonuniform List<scalar> 
999
(
12.3237
15.5828
18.8428
22.1024
25.361
28.6186
31.875
35.1301
38.3835
41.6352
44.8849
48.1325
51.3776
54.6203
57.8601
61.097
64.3307
67.5609
70.7875
74.0103
77.2289
80.4431
83.6527
86.8574
90.0569
93.251
96.4394
99.6217
102.798
105.967
109.129
112.284
115.432
118.571
121.701
124.823
127.936
131.038
134.131
137.213
140.283
143.342
146.389
149.423
152.443
155.45
158.442
161.419
164.379
167.324
170.251
173.159
176.049
178.92
181.77
184.598
187.405
190.189
192.949
195.684
198.394
201.078
203.734
206.362
208.961
211.53
214.068
216.575
219.049
221.49
223.898
226.27
228.608
230.91
233.176
235.406
237.598
239.753
241.871
243.952
245.995
248.001
249.97
251.902
253.798
255.659
257.484
259.275
261.032
262.756
264.449
266.11
267.742
269.345
270.921
272.47
273.994
275.493
276.97
278.426
279.86
281.276
282.673
284.053
285.417
286.766
288.1
289.421
290.73
292.027
293.313
294.588
295.854
297.111
298.359
299.599
300.832
302.057
303.275
304.487
305.692
306.891
308.085
309.272
310.454
311.631
312.803
313.969
315.131
316.287
317.439
318.586
319.728
320.866
321.999
323.127
324.251
325.371
326.486
327.596
328.702
329.804
330.901
331.994
333.082
334.166
335.246
336.321
337.392
338.459
339.521
340.579
341.633
342.682
343.728
344.768
345.805
346.837
347.866
348.889
349.909
350.925
351.936
352.943
353.945
354.944
355.938
356.929
357.915
358.896
359.874
360.848
361.817
362.782
363.743
364.7
365.653
366.602
367.547
368.487
369.424
370.356
371.284
372.209
373.129
374.045
374.957
375.865
376.769
377.67
378.566
379.458
380.346
381.23
382.11
382.986
383.858
384.726
385.591
386.451
387.307
388.16
389.008
389.853
390.694
391.531
392.364
393.193
394.018
394.839
395.657
396.47
397.28
398.086
398.888
399.687
400.481
401.272
402.059
402.842
403.622
404.397
405.169
405.937
406.701
407.462
408.219
408.972
409.722
410.467
411.209
411.947
412.683
413.413
414.141
414.864
415.585
416.299
417.015
417.721
418.43
419.127
419.83
420.52
421.216
421.899
422.586
423.265
423.941
424.617
425.281
425.955
426.609
427.276
427.925
428.582
429.227
429.873
430.516
431.152
431.788
432.418
433.046
433.67
434.29
434.909
435.522
436.132
436.74
437.343
437.944
438.54
439.134
439.724
440.31
440.894
441.474
442.05
442.624
443.194
443.76
444.324
444.884
445.44
445.994
446.544
447.091
447.634
448.175
448.712
449.246
449.776
450.303
450.828
451.348
451.866
452.38
452.892
453.4
453.905
454.406
454.905
455.4
455.892
456.381
456.867
457.35
457.829
458.306
458.779
459.249
459.717
460.181
460.642
461.099
461.554
462.006
462.455
462.9
463.343
463.782
464.219
464.652
465.083
465.51
465.935
466.356
466.774
467.19
467.602
468.012
468.418
468.822
469.223
469.62
470.015
470.407
470.796
471.182
471.565
471.945
472.322
472.696
473.068
473.436
473.802
474.165
474.525
474.882
475.236
475.588
475.936
476.282
476.625
476.965
477.302
477.637
477.969
478.297
478.624
478.947
479.268
479.585
479.9
480.213
480.522
480.829
481.133
481.435
481.733
482.029
482.322
482.613
482.901
483.186
483.468
483.748
484.025
484.299
484.571
484.84
485.106
485.37
485.631
485.89
486.146
486.399
486.649
486.897
487.143
487.385
487.626
487.863
488.098
488.331
488.56
488.788
489.012
489.234
489.454
489.671
489.885
490.097
490.306
490.513
490.717
490.919
491.118
491.315
491.509
491.701
491.89
492.077
492.261
492.442
492.622
492.798
492.972
493.144
493.313
493.48
493.644
493.806
493.965
494.122
494.276
494.428
494.578
494.725
494.869
495.011
495.151
495.288
495.423
495.555
495.685
495.813
495.938
496.06
496.18
496.298
496.413
496.526
496.637
496.745
496.85
496.953
497.054
497.152
497.248
497.342
497.433
497.522
497.608
497.692
497.773
497.853
497.929
498.004
498.076
498.146
498.213
498.278
498.341
498.401
498.459
498.515
498.569
498.621
498.67
498.717
498.762
498.805
498.845
498.884
498.921
498.955
498.988
499.019
499.048
499.075
499.1
499.124
499.146
499.167
499.186
499.203
499.219
499.234
499.248
499.26
499.271
499.282
499.291
499.299
499.306
499.313
499.319
499.324
499.328
499.332
499.335
499.338
499.341
499.343
499.345
499.346
499.347
499.348
499.349
499.349
499.35
499.35
499.35
499.35
499.35
499.35
499.35
499.35
499.35
499.349
499.349
499.349
499.348
499.348
499.347
499.347
499.347
499.346
499.346
499.345
499.345
499.344
499.344
499.343
499.343
499.342
499.342
499.341
499.341
499.34
499.34
499.339
499.339
499.338
499.338
499.337
499.337
499.336
499.336
499.335
499.335
499.334
499.334
499.333
499.333
499.332
499.332
499.331
499.33
499.33
499.329
499.329
499.328
499.328
499.327
499.327
499.326
499.325
499.325
499.324
499.324
499.323
499.322
499.322
499.321
499.321
499.32
499.319
499.319
499.318
499.318
499.317
499.316
499.316
499.315
499.314
499.314
499.313
499.313
499.312
499.311
499.311
499.31
499.309
499.309
499.308
499.307
499.307
499.306
499.305
499.305
499.304
499.303
499.302
499.302
499.301
499.3
499.3
499.299
499.298
499.297
499.297
499.296
499.295
499.294
499.294
499.293
499.292
499.291
499.29
499.29
499.289
499.288
499.287
499.287
499.286
499.285
499.284
499.283
499.282
499.282
499.281
499.28
499.279
499.278
499.277
499.276
499.276
499.275
499.274
499.273
499.272
499.271
499.27
499.269
499.268
499.268
499.267
499.266
499.265
499.264
499.263
499.262
499.261
499.26
499.259
499.258
499.257
499.256
499.255
499.254
499.253
499.252
499.251
499.25
499.249
499.248
499.247
499.246
499.244
499.243
499.242
499.241
499.24
499.239
499.238
499.237
499.235
499.234
499.233
499.232
499.231
499.23
499.228
499.227
499.226
499.225
499.223
499.222
499.221
499.22
499.218
499.217
499.216
499.214
499.213
499.212
499.21
499.209
499.208
499.206
499.205
499.204
499.202
499.201
499.199
499.198
499.196
499.195
499.193
499.192
499.19
499.189
499.187
499.186
499.184
499.183
499.181
499.179
499.178
499.176
499.174
499.173
499.171
499.169
499.168
499.166
499.164
499.162
499.161
499.159
499.157
499.155
499.153
499.152
499.15
499.148
499.146
499.144
499.142
499.14
499.138
499.136
499.134
499.132
499.13
499.128
499.126
499.123
499.121
499.119
499.117
499.115
499.112
499.11
499.108
499.105
499.103
499.101
499.098
499.096
499.093
499.091
499.088
499.086
499.083
499.081
499.078
499.075
499.073
499.07
499.067
499.064
499.061
499.059
499.056
499.053
499.05
499.047
499.044
499.041
499.038
499.034
499.031
499.028
499.025
499.021
499.018
499.015
499.011
499.008
499.004
499
498.997
498.993
498.989
498.986
498.982
498.978
498.974
498.97
498.966
498.962
498.957
498.953
498.949
498.944
498.94
498.935
498.931
498.926
498.921
498.917
498.912
498.907
498.902
498.897
498.891
498.886
498.881
498.875
498.87
498.864
498.858
498.852
498.846
498.84
498.834
498.828
498.821
498.815
498.808
498.801
498.794
498.787
498.78
498.773
498.765
498.758
498.75
498.742
498.734
498.726
498.717
498.709
498.7
498.691
498.682
498.672
498.663
498.653
498.643
498.632
498.622
498.611
498.6
498.589
498.577
498.565
498.553
498.54
498.527
498.514
498.5
498.486
498.472
498.457
498.442
498.426
498.41
498.393
498.376
498.358
498.34
498.321
498.301
498.281
498.26
498.239
498.216
498.193
498.169
498.143
498.117
498.09
498.062
498.032
498.001
497.969
497.935
497.899
497.862
497.822
497.781
497.737
497.691
497.643
497.593
497.542
497.489
497.434
497.376
497.316
497.25
497.175
497.089
496.983
496.85
496.679
496.456
496.166
495.79
495.305
494.687
493.909
492.942
491.758
490.325
488.615
486.6
484.254
481.557
478.491
475.045
471.213
466.997
462.405
457.454
452.166
446.57
440.703
434.606
428.323
421.904
415.4
408.862
402.342
395.888
389.548
383.366
377.379
371.622
366.124
360.907
355.99
351.384
347.096
343.127
339.477
336.138
333.101
330.354
327.883
325.671
323.702
321.958
320.421
319.073
317.897
316.875
315.991
315.231
314.58
314.024
313.551
313.152
312.815
312.533
312.297
312.1
311.937
311.802
311.69
311.599
311.523
311.462
311.411
311.37
311.337
311.309
311.287
311.269
311.254
311.242
311.232
311.223
311.217
311.211
311.206
311.202
311.198
311.195
311.193
311.19
311.188
311.187
311.185
311.184
)
;

boundaryField
{
    sides
    {
        type            calculated;
        value           nonuniform List<scalar> 2(311.183 -9.0665);
    }
    empty
    {
        type            empty;
        value           nonuniform 0();
    }
}


// ************************************************************************* //
