/*--------------------------------*- C++ -*----------------------------------*\
| =========                 |                                                 |
| \\      /  F ield         | OpenFOAM: The Open Source CFD Toolbox           |
|  \\    /   O peration     | Version:  3.0.0                                 |
|   \\  /    A nd           | Web:      www.OpenFOAM.org                      |
|    \\/     M anipulation  |                                                 |
\*---------------------------------------------------------------------------*/
FoamFile
{
    version     2.0;
    format      ascii;
    class       volScalarField;
    location    "0.015";
    object      T;
}
// * * * * * * * * * * * * * * * * * * * * * * * * * * * * * * * * * * * * * //

dimensions      [0 0 0 1 0 0 0];

internalField   nonuniform List<scalar> 
1000
(
323.052
323.084
323.08
323.067
323.053
323.04
323.025
323.011
322.995
322.979
322.962
322.945
322.927
322.909
322.889
322.869
322.849
322.827
322.805
322.783
322.759
322.735
322.71
322.685
322.658
322.631
322.603
322.574
322.545
322.514
322.483
322.45
322.417
322.383
322.348
322.311
322.274
322.236
322.196
322.156
322.114
322.071
322.027
321.982
321.935
321.886
321.837
321.786
321.733
321.679
321.623
321.565
321.506
321.445
321.382
321.317
321.25
321.181
321.11
321.037
320.961
320.883
320.803
320.72
320.635
320.547
320.456
320.363
320.267
320.168
320.066
319.961
319.853
319.742
319.628
319.511
319.391
319.268
319.141
319.012
318.879
318.743
318.605
318.463
318.318
318.17
318.019
317.866
317.71
317.551
317.389
317.226
317.059
316.891
316.72
316.548
316.373
316.197
316.019
315.839
315.658
315.476
315.292
315.107
314.921
314.734
314.546
314.358
314.168
313.978
313.788
313.597
313.405
313.214
313.021
312.829
312.636
312.443
312.25
312.056
311.863
311.669
311.476
311.282
311.088
310.894
310.7
310.506
310.312
310.119
309.925
309.731
309.537
309.343
309.149
308.956
308.762
308.568
308.375
308.181
307.987
307.794
307.601
307.407
307.214
307.02
306.827
306.634
306.441
306.248
306.055
305.862
305.669
305.476
305.283
305.09
304.897
304.705
304.512
304.32
304.127
303.935
303.742
303.55
303.358
303.165
302.973
302.781
302.589
302.397
302.205
302.013
301.821
301.629
301.438
301.246
301.054
300.863
300.671
300.48
300.288
300.097
299.906
299.715
299.523
299.332
299.141
298.95
298.759
298.569
298.378
298.187
297.996
297.806
297.615
297.425
297.234
297.044
296.853
296.663
296.473
296.283
296.093
295.903
295.713
295.523
295.333
295.143
294.954
294.764
294.574
294.385
294.195
294.006
293.817
293.627
293.438
293.249
293.06
292.871
292.682
292.493
292.304
292.115
291.927
291.738
291.549
291.361
291.172
290.984
290.796
290.607
290.42
290.23
290.044
289.853
289.67
289.475
289.297
289.096
288.926
288.715
288.557
288.333
288.189
287.952
287.82
287.574
287.446
287.202
287.067
286.836
286.683
286.473
286.299
286.109
285.919
285.739
285.545
285.365
285.175
284.99
284.805
284.616
284.432
284.245
284.059
283.874
283.687
283.502
283.317
283.131
282.946
282.76
282.575
282.389
282.204
282.019
281.834
281.649
281.464
281.279
281.094
280.91
280.725
280.54
280.356
280.171
279.987
279.803
279.619
279.434
279.25
279.066
278.883
278.699
278.515
278.331
278.148
277.964
277.781
277.597
277.414
277.231
277.048
276.865
276.682
276.499
276.316
276.133
275.951
275.768
275.586
275.403
275.221
275.039
274.857
274.675
274.493
274.311
274.129
273.947
273.766
273.584
273.403
273.221
273.04
272.859
272.678
272.497
272.316
272.135
271.954
271.773
271.593
271.412
271.232
271.052
270.872
270.691
270.511
270.332
270.152
269.972
269.793
269.613
269.434
269.254
269.075
268.896
268.717
268.538
268.36
268.181
268.003
267.824
267.646
267.468
267.29
267.112
266.934
266.756
266.579
266.401
266.224
266.047
265.87
265.693
265.516
265.34
265.163
264.987
264.811
264.634
264.459
264.283
264.107
263.932
263.756
263.581
263.406
263.231
263.057
262.882
262.708
262.534
262.36
262.186
262.013
261.839
261.666
261.493
261.32
261.148
260.976
260.803
260.632
260.46
260.289
260.117
259.947
259.776
259.606
259.435
259.266
259.096
258.927
258.758
258.589
258.421
258.253
258.085
257.918
257.751
257.584
257.418
257.253
257.087
256.922
256.758
256.594
256.43
256.267
256.104
255.942
255.78
255.619
255.459
255.299
255.14
254.981
254.823
254.666
254.509
254.353
254.198
254.044
253.89
253.738
253.586
253.435
253.285
253.136
252.988
252.842
252.696
252.551
252.408
252.266
252.125
251.986
251.848
251.711
251.576
251.442
251.31
251.18
251.052
250.925
250.8
250.677
250.556
250.437
250.321
250.206
250.094
249.984
249.877
249.772
249.669
249.569
249.472
249.378
249.286
249.197
249.111
249.028
248.948
248.871
248.797
248.726
248.658
248.593
248.532
248.473
248.417
248.364
248.315
248.268
248.224
248.183
248.145
248.109
248.076
248.045
248.017
247.991
247.967
247.945
247.925
247.907
247.891
247.876
247.863
247.851
247.841
247.832
247.823
247.816
247.81
247.804
247.799
247.795
247.792
247.789
247.786
247.784
247.782
247.78
247.779
247.778
247.777
247.776
247.776
247.775
247.775
247.775
247.774
247.774
247.774
247.774
247.774
247.774
247.774
247.775
247.775
247.775
247.775
247.775
247.775
247.776
247.776
247.776
247.776
247.776
247.777
247.777
247.777
247.777
247.778
247.778
247.778
247.778
247.779
247.779
247.779
247.779
247.78
247.78
247.78
247.78
247.781
247.781
247.781
247.781
247.782
247.782
247.782
247.782
247.783
247.783
247.783
247.784
247.784
247.784
247.784
247.785
247.785
247.785
247.785
247.786
247.786
247.786
247.787
247.787
247.787
247.787
247.788
247.788
247.788
247.789
247.789
247.789
247.79
247.79
247.79
247.791
247.791
247.791
247.792
247.792
247.792
247.793
247.793
247.793
247.794
247.794
247.794
247.795
247.795
247.795
247.796
247.796
247.796
247.797
247.797
247.798
247.798
247.798
247.799
247.799
247.799
247.8
247.8
247.801
247.801
247.801
247.802
247.802
247.803
247.803
247.803
247.804
247.804
247.805
247.805
247.805
247.806
247.806
247.807
247.807
247.808
247.808
247.808
247.809
247.809
247.81
247.81
247.811
247.811
247.812
247.812
247.812
247.813
247.813
247.814
247.814
247.815
247.815
247.816
247.816
247.817
247.817
247.818
247.818
247.819
247.819
247.82
247.82
247.821
247.821
247.822
247.822
247.823
247.823
247.824
247.825
247.825
247.826
247.826
247.827
247.827
247.828
247.829
247.829
247.83
247.83
247.831
247.832
247.832
247.833
247.833
247.834
247.835
247.835
247.836
247.837
247.837
247.838
247.839
247.839
247.84
247.841
247.841
247.842
247.843
247.843
247.844
247.845
247.845
247.846
247.847
247.848
247.848
247.849
247.85
247.851
247.851
247.852
247.853
247.854
247.855
247.855
247.856
247.857
247.858
247.859
247.86
247.86
247.861
247.862
247.863
247.864
247.865
247.866
247.867
247.868
247.868
247.869
247.87
247.871
247.872
247.873
247.874
247.875
247.876
247.877
247.878
247.879
247.88
247.881
247.883
247.884
247.885
247.886
247.887
247.888
247.889
247.89
247.892
247.893
247.894
247.895
247.896
247.898
247.899
247.9
247.901
247.903
247.904
247.905
247.907
247.908
247.909
247.911
247.912
247.914
247.915
247.916
247.918
247.919
247.921
247.923
247.924
247.926
247.927
247.929
247.93
247.932
247.934
247.935
247.937
247.939
247.941
247.942
247.944
247.946
247.948
247.95
247.952
247.954
247.956
247.958
247.96
247.962
247.964
247.966
247.968
247.97
247.973
247.975
247.977
247.979
247.982
247.984
247.987
247.989
247.992
247.994
247.997
247.999
248.002
248.005
248.008
248.011
248.013
248.016
248.019
248.022
248.025
248.029
248.032
248.035
248.038
248.042
248.045
248.049
248.052
248.056
248.06
248.064
248.068
248.071
248.076
248.08
248.084
248.088
248.093
248.097
248.102
248.107
248.111
248.116
248.121
248.127
248.132
248.137
248.143
248.149
248.154
248.16
248.167
248.173
248.179
248.186
248.193
248.2
248.207
248.215
248.222
248.23
248.239
248.247
248.256
248.265
248.274
248.283
248.293
248.304
248.314
248.325
248.337
248.348
248.361
248.374
248.387
248.401
248.415
248.43
248.446
248.462
248.48
248.498
248.517
248.537
248.559
248.581
248.604
248.629
248.654
248.68
248.707
248.735
248.765
248.796
248.831
248.87
248.918
248.976
249.051
249.148
249.275
249.44
249.654
249.929
250.279
250.719
251.264
251.931
252.738
253.702
254.842
256.173
257.714
259.478
261.48
263.73
266.24
269.014
272.057
275.368
278.944
282.777
286.855
291.163
295.68
300.381
305.24
310.223
315.297
320.424
325.567
330.687
335.744
340.702
345.525
350.181
354.642
358.883
362.886
366.634
370.12
373.338
376.288
378.973
381.401
383.581
385.528
387.254
388.775
390.109
391.271
392.277
393.145
393.888
394.523
395.061
395.515
395.897
396.217
396.483
396.704
396.886
397.036
397.159
397.259
397.34
397.406
397.46
397.502
397.537
397.564
397.586
397.604
397.618
397.629
397.638
397.645
397.65
397.654
397.658
397.661
397.663
397.665
397.666
397.667
397.668
397.669
397.669
397.67
)
;

boundaryField
{
    sides
    {
        type            zeroGradient;
    }
    empty
    {
        type            empty;
    }
}


// ************************************************************************* //
