/*--------------------------------*- C++ -*----------------------------------*\
| =========                 |                                                 |
| \\      /  F ield         | OpenFOAM: The Open Source CFD Toolbox           |
|  \\    /   O peration     | Version:  3.0.0                                 |
|   \\  /    A nd           | Web:      www.OpenFOAM.org                      |
|    \\/     M anipulation  |                                                 |
\*---------------------------------------------------------------------------*/
FoamFile
{
    version     2.0;
    format      ascii;
    class       volVectorField;
    location    "0.015";
    object      U;
}
// * * * * * * * * * * * * * * * * * * * * * * * * * * * * * * * * * * * * * //

dimensions      [0 1 -1 0 0 0 0];

internalField   nonuniform List<vector> 
1000
(
(2.75065 0 0)
(4.41328 0 0)
(5.18851 0 0)
(6.17052 0 0)
(7.17739 0 0)
(8.16654 0 0)
(9.15177 0 0)
(10.1381 0 0)
(11.1248 0 0)
(12.1113 0 0)
(13.0975 0 0)
(14.0833 0 0)
(15.0689 0 0)
(16.054 0 0)
(17.0387 0 0)
(18.0229 0 0)
(19.0066 0 0)
(19.9896 0 0)
(20.9721 0 0)
(21.9538 0 0)
(22.9348 0 0)
(23.915 0 0)
(24.8943 0 0)
(25.8727 0 0)
(26.8501 0 0)
(27.8265 0 0)
(28.8017 0 0)
(29.7758 0 0)
(30.7486 0 0)
(31.7201 0 0)
(32.6902 0 0)
(33.6589 0 0)
(34.6259 0 0)
(35.5913 0 0)
(36.555 0 0)
(37.5169 0 0)
(38.4768 0 0)
(39.4347 0 0)
(40.3905 0 0)
(41.3441 0 0)
(42.2952 0 0)
(43.244 0 0)
(44.1901 0 0)
(45.1335 0 0)
(46.0741 0 0)
(47.0116 0 0)
(47.946 0 0)
(48.8772 0 0)
(49.8049 0 0)
(50.729 0 0)
(51.6493 0 0)
(52.5657 0 0)
(53.478 0 0)
(54.386 0 0)
(55.2895 0 0)
(56.1884 0 0)
(57.0824 0 0)
(57.9714 0 0)
(58.8551 0 0)
(59.7333 0 0)
(60.6059 0 0)
(61.4727 0 0)
(62.3334 0 0)
(63.1878 0 0)
(64.0357 0 0)
(64.8769 0 0)
(65.7113 0 0)
(66.5386 0 0)
(67.3587 0 0)
(68.1714 0 0)
(68.9764 0 0)
(69.7738 0 0)
(70.5632 0 0)
(71.3447 0 0)
(72.118 0 0)
(72.8831 0 0)
(73.6399 0 0)
(74.3884 0 0)
(75.1285 0 0)
(75.8602 0 0)
(76.5835 0 0)
(77.2984 0 0)
(78.0051 0 0)
(78.7035 0 0)
(79.3939 0 0)
(80.0763 0 0)
(80.7508 0 0)
(81.4177 0 0)
(82.0772 0 0)
(82.7294 0 0)
(83.3746 0 0)
(84.0131 0 0)
(84.645 0 0)
(85.2708 0 0)
(85.8906 0 0)
(86.5048 0 0)
(87.1137 0 0)
(87.7175 0 0)
(88.3166 0 0)
(88.9113 0 0)
(89.5018 0 0)
(90.0885 0 0)
(90.6716 0 0)
(91.2515 0 0)
(91.8283 0 0)
(92.4024 0 0)
(92.9739 0 0)
(93.5432 0 0)
(94.1104 0 0)
(94.6758 0 0)
(95.2394 0 0)
(95.8016 0 0)
(96.3624 0 0)
(96.9221 0 0)
(97.4807 0 0)
(98.0384 0 0)
(98.5952 0 0)
(99.1514 0 0)
(99.7069 0 0)
(100.262 0 0)
(100.816 0 0)
(101.371 0 0)
(101.924 0 0)
(102.478 0 0)
(103.031 0 0)
(103.584 0 0)
(104.137 0 0)
(104.69 0 0)
(105.243 0 0)
(105.795 0 0)
(106.348 0 0)
(106.9 0 0)
(107.453 0 0)
(108.005 0 0)
(108.558 0 0)
(109.11 0 0)
(109.662 0 0)
(110.215 0 0)
(110.767 0 0)
(111.319 0 0)
(111.872 0 0)
(112.424 0 0)
(112.977 0 0)
(113.529 0 0)
(114.082 0 0)
(114.634 0 0)
(115.186 0 0)
(115.739 0 0)
(116.292 0 0)
(116.844 0 0)
(117.397 0 0)
(117.949 0 0)
(118.502 0 0)
(119.054 0 0)
(119.607 0 0)
(120.16 0 0)
(120.712 0 0)
(121.265 0 0)
(121.818 0 0)
(122.371 0 0)
(122.923 0 0)
(123.476 0 0)
(124.029 0 0)
(124.582 0 0)
(125.135 0 0)
(125.687 0 0)
(126.24 0 0)
(126.793 0 0)
(127.346 0 0)
(127.899 0 0)
(128.452 0 0)
(129.005 0 0)
(129.558 0 0)
(130.111 0 0)
(130.664 0 0)
(131.217 0 0)
(131.769 0 0)
(132.322 0 0)
(132.875 0 0)
(133.428 0 0)
(133.981 0 0)
(134.534 0 0)
(135.087 0 0)
(135.641 0 0)
(136.194 0 0)
(136.747 0 0)
(137.3 0 0)
(137.853 0 0)
(138.406 0 0)
(138.959 0 0)
(139.512 0 0)
(140.065 0 0)
(140.618 0 0)
(141.171 0 0)
(141.724 0 0)
(142.277 0 0)
(142.83 0 0)
(143.383 0 0)
(143.937 0 0)
(144.49 0 0)
(145.043 0 0)
(145.596 0 0)
(146.149 0 0)
(146.702 0 0)
(147.255 0 0)
(147.808 0 0)
(148.361 0 0)
(148.914 0 0)
(149.467 0 0)
(150.021 0 0)
(150.574 0 0)
(151.127 0 0)
(151.68 0 0)
(152.233 0 0)
(152.786 0 0)
(153.339 0 0)
(153.892 0 0)
(154.445 0 0)
(154.998 0 0)
(155.551 0 0)
(156.104 0 0)
(156.657 0 0)
(157.21 0 0)
(157.763 0 0)
(158.316 0 0)
(158.869 0 0)
(159.422 0 0)
(159.975 0 0)
(160.528 0 0)
(161.081 0 0)
(161.634 0 0)
(162.187 0 0)
(162.74 0 0)
(163.293 0 0)
(163.846 0 0)
(164.399 0 0)
(164.951 0 0)
(165.504 0 0)
(166.057 0 0)
(166.61 0 0)
(167.163 0 0)
(167.716 0 0)
(168.268 0 0)
(168.821 0 0)
(169.374 0 0)
(169.927 0 0)
(170.479 0 0)
(171.032 0 0)
(171.585 0 0)
(172.137 0 0)
(172.69 0 0)
(173.243 0 0)
(173.795 0 0)
(174.348 0 0)
(174.9 0 0)
(175.453 0 0)
(176.006 0 0)
(176.558 0 0)
(177.111 0 0)
(177.663 0 0)
(178.215 0 0)
(178.768 0 0)
(179.32 0 0)
(179.873 0 0)
(180.425 0 0)
(180.977 0 0)
(181.53 0 0)
(182.082 0 0)
(182.634 0 0)
(183.186 0 0)
(183.738 0 0)
(184.291 0 0)
(184.843 0 0)
(185.395 0 0)
(185.947 0 0)
(186.499 0 0)
(187.051 0 0)
(187.603 0 0)
(188.155 0 0)
(188.707 0 0)
(189.258 0 0)
(189.81 0 0)
(190.362 0 0)
(190.914 0 0)
(191.466 0 0)
(192.017 0 0)
(192.569 0 0)
(193.12 0 0)
(193.672 0 0)
(194.223 0 0)
(194.775 0 0)
(195.326 0 0)
(195.878 0 0)
(196.429 0 0)
(196.98 0 0)
(197.532 0 0)
(198.083 0 0)
(198.634 0 0)
(199.185 0 0)
(199.736 0 0)
(200.287 0 0)
(200.838 0 0)
(201.389 0 0)
(201.94 0 0)
(202.491 0 0)
(203.041 0 0)
(203.592 0 0)
(204.143 0 0)
(204.693 0 0)
(205.244 0 0)
(205.794 0 0)
(206.344 0 0)
(206.895 0 0)
(207.445 0 0)
(207.995 0 0)
(208.545 0 0)
(209.095 0 0)
(209.645 0 0)
(210.195 0 0)
(210.745 0 0)
(211.295 0 0)
(211.844 0 0)
(212.394 0 0)
(212.943 0 0)
(213.493 0 0)
(214.042 0 0)
(214.591 0 0)
(215.14 0 0)
(215.69 0 0)
(216.238 0 0)
(216.787 0 0)
(217.336 0 0)
(217.885 0 0)
(218.433 0 0)
(218.982 0 0)
(219.53 0 0)
(220.079 0 0)
(220.627 0 0)
(221.175 0 0)
(221.723 0 0)
(222.271 0 0)
(222.818 0 0)
(223.366 0 0)
(223.913 0 0)
(224.461 0 0)
(225.008 0 0)
(225.555 0 0)
(226.102 0 0)
(226.649 0 0)
(227.195 0 0)
(227.742 0 0)
(228.288 0 0)
(228.834 0 0)
(229.38 0 0)
(229.926 0 0)
(230.472 0 0)
(231.017 0 0)
(231.563 0 0)
(232.108 0 0)
(232.653 0 0)
(233.198 0 0)
(233.742 0 0)
(234.287 0 0)
(234.831 0 0)
(235.375 0 0)
(235.919 0 0)
(236.462 0 0)
(237.006 0 0)
(237.549 0 0)
(238.092 0 0)
(238.634 0 0)
(239.177 0 0)
(239.719 0 0)
(240.261 0 0)
(240.802 0 0)
(241.344 0 0)
(241.885 0 0)
(242.425 0 0)
(242.966 0 0)
(243.506 0 0)
(244.046 0 0)
(244.585 0 0)
(245.124 0 0)
(245.663 0 0)
(246.202 0 0)
(246.74 0 0)
(247.277 0 0)
(247.814 0 0)
(248.351 0 0)
(248.888 0 0)
(249.424 0 0)
(249.959 0 0)
(250.494 0 0)
(251.029 0 0)
(251.563 0 0)
(252.097 0 0)
(252.63 0 0)
(253.162 0 0)
(253.694 0 0)
(254.225 0 0)
(254.756 0 0)
(255.286 0 0)
(255.816 0 0)
(256.345 0 0)
(256.873 0 0)
(257.4 0 0)
(257.927 0 0)
(258.453 0 0)
(258.978 0 0)
(259.503 0 0)
(260.026 0 0)
(260.549 0 0)
(261.07 0 0)
(261.591 0 0)
(262.111 0 0)
(262.63 0 0)
(263.147 0 0)
(263.664 0 0)
(264.179 0 0)
(264.694 0 0)
(265.207 0 0)
(265.719 0 0)
(266.229 0 0)
(266.738 0 0)
(267.246 0 0)
(267.752 0 0)
(268.257 0 0)
(268.76 0 0)
(269.261 0 0)
(269.761 0 0)
(270.259 0 0)
(270.755 0 0)
(271.249 0 0)
(271.741 0 0)
(272.23 0 0)
(272.718 0 0)
(273.203 0 0)
(273.686 0 0)
(274.167 0 0)
(274.645 0 0)
(275.12 0 0)
(275.592 0 0)
(276.061 0 0)
(276.528 0 0)
(276.991 0 0)
(277.451 0 0)
(277.907 0 0)
(278.36 0 0)
(278.809 0 0)
(279.254 0 0)
(279.695 0 0)
(280.132 0 0)
(280.564 0 0)
(280.992 0 0)
(281.415 0 0)
(281.833 0 0)
(282.246 0 0)
(282.654 0 0)
(283.056 0 0)
(283.452 0 0)
(283.843 0 0)
(284.227 0 0)
(284.605 0 0)
(284.976 0 0)
(285.341 0 0)
(285.698 0 0)
(286.048 0 0)
(286.391 0 0)
(286.726 0 0)
(287.053 0 0)
(287.372 0 0)
(287.682 0 0)
(287.985 0 0)
(288.278 0 0)
(288.563 0 0)
(288.838 0 0)
(289.104 0 0)
(289.361 0 0)
(289.609 0 0)
(289.847 0 0)
(290.075 0 0)
(290.294 0 0)
(290.503 0 0)
(290.702 0 0)
(290.892 0 0)
(291.072 0 0)
(291.243 0 0)
(291.404 0 0)
(291.556 0 0)
(291.699 0 0)
(291.832 0 0)
(291.957 0 0)
(292.074 0 0)
(292.182 0 0)
(292.283 0 0)
(292.375 0 0)
(292.461 0 0)
(292.539 0 0)
(292.611 0 0)
(292.676 0 0)
(292.736 0 0)
(292.79 0 0)
(292.838 0 0)
(292.882 0 0)
(292.921 0 0)
(292.957 0 0)
(292.988 0 0)
(293.016 0 0)
(293.04 0 0)
(293.062 0 0)
(293.081 0 0)
(293.098 0 0)
(293.112 0 0)
(293.125 0 0)
(293.136 0 0)
(293.146 0 0)
(293.154 0 0)
(293.161 0 0)
(293.167 0 0)
(293.172 0 0)
(293.176 0 0)
(293.18 0 0)
(293.183 0 0)
(293.186 0 0)
(293.188 0 0)
(293.19 0 0)
(293.192 0 0)
(293.193 0 0)
(293.194 0 0)
(293.195 0 0)
(293.196 0 0)
(293.197 0 0)
(293.197 0 0)
(293.198 0 0)
(293.198 0 0)
(293.198 0 0)
(293.199 0 0)
(293.199 0 0)
(293.199 0 0)
(293.199 0 0)
(293.199 0 0)
(293.199 0 0)
(293.2 0 0)
(293.2 0 0)
(293.2 0 0)
(293.2 0 0)
(293.2 0 0)
(293.2 0 0)
(293.2 0 0)
(293.2 0 0)
(293.2 0 0)
(293.2 0 0)
(293.2 0 0)
(293.2 0 0)
(293.2 0 0)
(293.201 0 0)
(293.201 0 0)
(293.201 0 0)
(293.201 0 0)
(293.201 0 0)
(293.201 0 0)
(293.201 0 0)
(293.201 0 0)
(293.201 0 0)
(293.201 0 0)
(293.201 0 0)
(293.201 0 0)
(293.201 0 0)
(293.201 0 0)
(293.201 0 0)
(293.201 0 0)
(293.201 0 0)
(293.201 0 0)
(293.201 0 0)
(293.201 0 0)
(293.202 0 0)
(293.202 0 0)
(293.202 0 0)
(293.202 0 0)
(293.202 0 0)
(293.202 0 0)
(293.202 0 0)
(293.202 0 0)
(293.202 0 0)
(293.202 0 0)
(293.202 0 0)
(293.202 0 0)
(293.202 0 0)
(293.202 0 0)
(293.202 0 0)
(293.202 0 0)
(293.202 0 0)
(293.202 0 0)
(293.202 0 0)
(293.203 0 0)
(293.203 0 0)
(293.203 0 0)
(293.203 0 0)
(293.203 0 0)
(293.203 0 0)
(293.203 0 0)
(293.203 0 0)
(293.203 0 0)
(293.203 0 0)
(293.203 0 0)
(293.203 0 0)
(293.203 0 0)
(293.203 0 0)
(293.203 0 0)
(293.203 0 0)
(293.203 0 0)
(293.203 0 0)
(293.203 0 0)
(293.203 0 0)
(293.203 0 0)
(293.203 0 0)
(293.203 0 0)
(293.203 0 0)
(293.203 0 0)
(293.203 0 0)
(293.203 0 0)
(293.203 0 0)
(293.203 0 0)
(293.203 0 0)
(293.203 0 0)
(293.203 0 0)
(293.203 0 0)
(293.203 0 0)
(293.203 0 0)
(293.203 0 0)
(293.203 0 0)
(293.203 0 0)
(293.203 0 0)
(293.203 0 0)
(293.203 0 0)
(293.203 0 0)
(293.203 0 0)
(293.203 0 0)
(293.203 0 0)
(293.203 0 0)
(293.203 0 0)
(293.203 0 0)
(293.203 0 0)
(293.203 0 0)
(293.203 0 0)
(293.203 0 0)
(293.203 0 0)
(293.203 0 0)
(293.203 0 0)
(293.203 0 0)
(293.203 0 0)
(293.203 0 0)
(293.203 0 0)
(293.203 0 0)
(293.203 0 0)
(293.203 0 0)
(293.203 0 0)
(293.203 0 0)
(293.203 0 0)
(293.203 0 0)
(293.203 0 0)
(293.203 0 0)
(293.203 0 0)
(293.203 0 0)
(293.203 0 0)
(293.204 0 0)
(293.204 0 0)
(293.204 0 0)
(293.204 0 0)
(293.204 0 0)
(293.204 0 0)
(293.204 0 0)
(293.204 0 0)
(293.204 0 0)
(293.204 0 0)
(293.204 0 0)
(293.204 0 0)
(293.204 0 0)
(293.204 0 0)
(293.204 0 0)
(293.204 0 0)
(293.204 0 0)
(293.204 0 0)
(293.204 0 0)
(293.204 0 0)
(293.204 0 0)
(293.204 0 0)
(293.204 0 0)
(293.204 0 0)
(293.204 0 0)
(293.204 0 0)
(293.204 0 0)
(293.204 0 0)
(293.204 0 0)
(293.204 0 0)
(293.204 0 0)
(293.204 0 0)
(293.204 0 0)
(293.204 0 0)
(293.204 0 0)
(293.204 0 0)
(293.204 0 0)
(293.204 0 0)
(293.204 0 0)
(293.204 0 0)
(293.204 0 0)
(293.204 0 0)
(293.204 0 0)
(293.204 0 0)
(293.204 0 0)
(293.204 0 0)
(293.204 0 0)
(293.204 0 0)
(293.204 0 0)
(293.204 0 0)
(293.204 0 0)
(293.204 0 0)
(293.204 0 0)
(293.204 0 0)
(293.204 0 0)
(293.204 0 0)
(293.204 0 0)
(293.204 0 0)
(293.204 0 0)
(293.204 0 0)
(293.204 0 0)
(293.204 0 0)
(293.204 0 0)
(293.204 0 0)
(293.204 0 0)
(293.204 0 0)
(293.204 0 0)
(293.204 0 0)
(293.204 0 0)
(293.204 0 0)
(293.204 0 0)
(293.204 0 0)
(293.204 0 0)
(293.204 0 0)
(293.204 0 0)
(293.204 0 0)
(293.204 0 0)
(293.204 0 0)
(293.204 0 0)
(293.204 0 0)
(293.204 0 0)
(293.204 0 0)
(293.204 0 0)
(293.204 0 0)
(293.204 0 0)
(293.204 0 0)
(293.204 0 0)
(293.204 0 0)
(293.204 0 0)
(293.204 0 0)
(293.204 0 0)
(293.204 0 0)
(293.204 0 0)
(293.204 0 0)
(293.204 0 0)
(293.204 0 0)
(293.204 0 0)
(293.204 0 0)
(293.204 0 0)
(293.204 0 0)
(293.204 0 0)
(293.205 0 0)
(293.205 0 0)
(293.205 0 0)
(293.205 0 0)
(293.205 0 0)
(293.205 0 0)
(293.205 0 0)
(293.205 0 0)
(293.205 0 0)
(293.205 0 0)
(293.205 0 0)
(293.205 0 0)
(293.205 0 0)
(293.205 0 0)
(293.205 0 0)
(293.205 0 0)
(293.205 0 0)
(293.205 0 0)
(293.205 0 0)
(293.205 0 0)
(293.205 0 0)
(293.205 0 0)
(293.205 0 0)
(293.205 0 0)
(293.205 0 0)
(293.205 0 0)
(293.205 0 0)
(293.205 0 0)
(293.205 0 0)
(293.205 0 0)
(293.205 0 0)
(293.205 0 0)
(293.205 0 0)
(293.205 0 0)
(293.205 0 0)
(293.205 0 0)
(293.205 0 0)
(293.205 0 0)
(293.205 0 0)
(293.205 0 0)
(293.205 0 0)
(293.205 0 0)
(293.205 0 0)
(293.205 0 0)
(293.205 0 0)
(293.205 0 0)
(293.205 0 0)
(293.205 0 0)
(293.205 0 0)
(293.205 0 0)
(293.205 0 0)
(293.205 0 0)
(293.205 0 0)
(293.205 0 0)
(293.205 0 0)
(293.205 0 0)
(293.205 0 0)
(293.205 0 0)
(293.205 0 0)
(293.205 0 0)
(293.205 0 0)
(293.205 0 0)
(293.205 0 0)
(293.205 0 0)
(293.205 0 0)
(293.205 0 0)
(293.205 0 0)
(293.205 0 0)
(293.205 0 0)
(293.205 0 0)
(293.205 0 0)
(293.205 0 0)
(293.205 0 0)
(293.205 0 0)
(293.205 0 0)
(293.205 0 0)
(293.205 0 0)
(293.205 0 0)
(293.205 0 0)
(293.205 0 0)
(293.205 0 0)
(293.205 0 0)
(293.205 0 0)
(293.205 0 0)
(293.205 0 0)
(293.205 0 0)
(293.205 0 0)
(293.205 0 0)
(293.205 0 0)
(293.205 0 0)
(293.205 0 0)
(293.205 0 0)
(293.205 0 0)
(293.205 0 0)
(293.205 0 0)
(293.205 0 0)
(293.205 0 0)
(293.205 0 0)
(293.205 0 0)
(293.205 0 0)
(293.205 0 0)
(293.205 0 0)
(293.205 0 0)
(293.205 0 0)
(293.205 0 0)
(293.205 0 0)
(293.205 0 0)
(293.205 0 0)
(293.205 0 0)
(293.205 0 0)
(293.205 0 0)
(293.205 0 0)
(293.205 0 0)
(293.205 0 0)
(293.205 0 0)
(293.205 0 0)
(293.205 0 0)
(293.205 0 0)
(293.205 0 0)
(293.205 0 0)
(293.205 0 0)
(293.205 0 0)
(293.205 0 0)
(293.205 0 0)
(293.205 0 0)
(293.205 0 0)
(293.205 0 0)
(293.205 0 0)
(293.205 0 0)
(293.205 0 0)
(293.205 0 0)
(293.204 0 0)
(293.204 0 0)
(293.204 0 0)
(293.204 0 0)
(293.204 0 0)
(293.204 0 0)
(293.204 0 0)
(293.204 0 0)
(293.204 0 0)
(293.204 0 0)
(293.203 0 0)
(293.203 0 0)
(293.202 0 0)
(293.201 0 0)
(293.2 0 0)
(293.199 0 0)
(293.197 0 0)
(293.194 0 0)
(293.19 0 0)
(293.185 0 0)
(293.179 0 0)
(293.17 0 0)
(293.159 0 0)
(293.144 0 0)
(293.127 0 0)
(293.105 0 0)
(293.079 0 0)
(293.047 0 0)
(293.01 0 0)
(292.967 0 0)
(292.917 0 0)
(292.861 0 0)
(292.797 0 0)
(292.727 0 0)
(292.65 0 0)
(292.567 0 0)
(292.479 0 0)
(292.386 0 0)
(292.29 0 0)
(292.191 0 0)
(292.092 0 0)
(291.992 0 0)
(291.893 0 0)
(291.797 0 0)
(291.704 0 0)
(291.616 0 0)
(291.532 0 0)
(291.455 0 0)
(291.383 0 0)
(291.317 0 0)
(291.257 0 0)
(291.204 0 0)
(291.157 0 0)
(291.115 0 0)
(291.078 0 0)
(291.047 0 0)
(291.019 0 0)
(290.996 0 0)
(290.976 0 0)
(290.959 0 0)
(290.945 0 0)
(290.933 0 0)
(290.923 0 0)
(290.915 0 0)
(290.908 0 0)
(290.902 0 0)
(290.896 0 0)
(290.892 0 0)
(290.887 0 0)
(290.884 0 0)
(290.881 0 0)
(290.878 0 0)
(290.875 0 0)
(290.873 0 0)
(290.87 0 0)
(290.868 0 0)
(290.866 0 0)
(290.864 0 0)
(290.862 0 0)
(290.861 0 0)
(290.859 0 0)
(290.857 0 0)
(290.856 0 0)
(290.854 0 0)
(290.853 0 0)
(290.852 0 0)
(290.85 0 0)
(290.849 0 0)
(290.848 0 0)
(290.847 0 0)
(290.846 0 0)
(290.845 0 0)
(290.844 0 0)
(290.843 0 0)
(290.843 0 0)
(290.842 0 0)
(290.841 0 0)
(290.841 0 0)
(290.84 0 0)
(290.84 0 0)
(290.839 0 0)
(290.839 0 0)
(290.838 0 0)
)
;

boundaryField
{
    sides
    {
        type            zeroGradient;
    }
    empty
    {
        type            empty;
    }
}


// ************************************************************************* //
