/*--------------------------------*- C++ -*----------------------------------*\
| =========                 |                                                 |
| \\      /  F ield         | OpenFOAM: The Open Source CFD Toolbox           |
|  \\    /   O peration     | Version:  3.0.0                                 |
|   \\  /    A nd           | Web:      www.OpenFOAM.org                      |
|    \\/     M anipulation  |                                                 |
\*---------------------------------------------------------------------------*/
FoamFile
{
    version     2.0;
    format      ascii;
    class       volScalarField;
    location    "1";
    object      p;
}
// * * * * * * * * * * * * * * * * * * * * * * * * * * * * * * * * * * * * * //

dimensions      [0 2 -2 0 0 0 0];

internalField   nonuniform List<scalar> 
4096
(
-0.0295665
-0.0327364
-0.0351356
-0.0372379
-0.0385951
-0.0382405
-0.0354416
-0.0302852
-0.0237927
-0.0176093
-0.0133408
-0.0119572
-0.0135425
-0.0173257
-0.0220821
-0.0265012
-0.0297434
-0.0318925
-0.03304
-0.0335253
-0.033168
-0.0314268
-0.0279135
-0.0228562
-0.0172163
-0.0123925
-0.0097075
-0.00984812
-0.0126537
-0.017225
-0.0223014
-0.0267165
-0.023798
-0.0243653
-0.023693
-0.0221883
-0.0199472
-0.0168373
-0.0128211
-0.00827839
-0.00407223
-0.00131937
-0.000917596
-0.00313247
-0.00744967
-0.0127761
-0.0178306
-0.0215752
-0.014858
-0.0137418
-0.0113487
-0.00821665
-0.00465641
-0.000829355
0.00307049
0.00661801
0.00909898
0.00968783
0.00789252
0.00386357
-0.00154468
-0.007078
-0.0115072
-0.0139637
-0.00430942
-0.00180405
0.00176155
0.00577474
0.00983124
0.0136359
0.0168922
0.0191934
0.019984
0.0187186
0.0152011
0.00995981
0.00411984
-0.000975274
-0.00423602
-0.00506125
0.00687775
0.0101416
0.0140923
0.0180447
0.021713
0.0248447
0.0271597
0.0283017
0.0278194
0.0253522
0.0208611
0.0151856
0.00961096
0.00548297
0.00367565
0.00451422
0.0177508
0.020984
0.0244609
0.0274819
0.0299935
0.0319711
0.0332613
0.0335617
0.0324398
0.0295627
0.0250156
0.0197209
0.0150285
0.0121878
0.0118319
0.014097
0.0272121
0.0297152
0.03208
0.0335369
0.034387
0.0349445
0.0352701
0.0351252
0.0340187
0.0315324
0.0277461
0.0234812
0.0200685
0.0186057
0.0194673
0.0227506
0.033844
0.0351781
0.036119
0.0358419
0.0349014
0.0340101
0.0335112
0.0332575
0.0326881
0.0311919
0.028699
0.025869
0.0238682
0.0236238
0.0252855
0.0290921
0.0360986
0.036161
0.0357718
0.0339559
0.0314531
0.0293207
0.0281988
0.0280759
0.0283275
0.0281589
0.0272286
0.0259227
0.0252008
0.0257926
0.0277266
0.0315423
0.0327776
0.0316782
0.0302417
0.0273212
0.0237387
0.0207624
0.0192982
0.019502
0.0207306
0.021992
0.0226442
0.0227327
0.0229673
0.0239122
0.0255923
0.0288958
0.0237487
0.0216591
0.0194248
0.0158191
0.0116507
0.00829371
0.00684024
0.00759835
0.00992401
0.0126349
0.0147612
0.0160353
0.0168553
0.0176935
0.0186921
0.0209994
0.0104179
0.00748667
0.00458134
0.000535057
-0.00386812
-0.00721157
-0.00829324
-0.0067199
-0.00316546
0.000994728
0.00447419
0.00669975
0.00776395
0.008138
0.00812966
0.00910874
-0.00461452
-0.0082232
-0.0117072
-0.016038
-0.0204387
-0.0234804
-0.0239215
-0.0213627
-0.0165511
-0.0110413
-0.00639806
-0.00350421
-0.00241731
-0.00269364
-0.00381326
-0.00437562
-0.0183586
-0.0224042
-0.0262331
-0.0305736
-0.0346334
-0.037046
-0.0366489
-0.0331446
-0.0273741
-0.0209737
-0.0156414
-0.0124389
-0.0115619
-0.012555
-0.0147018
-0.0167263
-0.0264906
-0.030402
-0.0339476
-0.0374935
-0.0403502
-0.0413396
-0.0395999
-0.035143
-0.0289686
-0.0226517
-0.0177609
-0.0152713
-0.015343
-0.017444
-0.0207074
-0.0239668
-0.031753
-0.0345989
-0.0364726
-0.0381679
-0.0391887
-0.0383837
-0.034873
-0.0287807
-0.0213951
-0.0146875
-0.0104947
-0.009849
-0.0126471
-0.0177948
-0.0236551
-0.0284334
-0.0343187
-0.0359949
-0.0366626
-0.0368225
-0.0362895
-0.0345009
-0.0310407
-0.0260879
-0.0205593
-0.0158631
-0.013366
-0.013818
-0.0170426
-0.0220158
-0.0272712
-0.031452
-0.0309671
-0.0312667
-0.0303748
-0.0287985
-0.0265306
-0.0233636
-0.0192358
-0.01456
-0.0102553
-0.00748459
-0.00720592
-0.00970758
-0.0144285
-0.0201381
-0.0253426
-0.0288602
-0.0238295
-0.0225474
-0.0200752
-0.0170283
-0.0135576
-0.00967457
-0.00557685
-0.00179243
0.000841632
0.00143992
-0.000526548
-0.00488063
-0.0106723
-0.0164992
-0.0209933
-0.023117
-0.0140238
-0.0112063
-0.00748846
-0.00353026
0.000460119
0.00431668
0.00773005
0.0101609
0.0109101
0.00937639
0.00546709
-0.000236325
-0.00646081
-0.0117302
-0.0148447
-0.0151191
-0.00233619
0.00160741
0.00595422
0.0100806
0.0138186
0.0170212
0.0193786
0.0204017
0.0195212
0.0163549
0.0111501
0.00480118
-0.00120978
-0.00540506
-0.00684645
-0.00527847
0.0103087
0.0146175
0.0187948
0.0222842
0.0250624
0.0271416
0.0283282
0.0282208
0.0263274
0.0224235
0.0167197
0.0105732
0.00539381
0.00258839
0.0027842
0.00586144
0.0225535
0.0263033
0.029533
0.0316826
0.0329627
0.0336636
0.0337982
0.0330805
0.0309528
0.0272024
0.0221262
0.0169039
0.0130582
0.0116436
0.0131269
0.0172093
0.0324884
0.0348454
0.0365737
0.0369596
0.0364837
0.0357897
0.0351549
0.0343724
0.0328742
0.0301997
0.0265147
0.0227784
0.0203588
0.0202233
0.0224493
0.0269596
0.0379597
0.0384019
0.0384272
0.0369892
0.0348292
0.03295
0.0319255
0.0316472
0.0314106
0.0304596
0.0286889
0.0266408
0.025595
0.0262638
0.0285626
0.0329299
0.0372496
0.0356735
0.0341349
0.0311566
0.0276551
0.0249535
0.0239217
0.0245452
0.0259527
0.0270273
0.027235
0.0269046
0.0269175
0.027841
0.0295898
0.0332988
0.0298669
0.0265704
0.0238347
0.0197732
0.0154122
0.012306
0.0115512
0.0132541
0.0163912
0.0194934
0.0216007
0.0226809
0.0233295
0.0240154
0.0247697
0.0273966
0.0169996
0.0125728
0.00906686
0.00444108
-0.000266926
-0.00342048
-0.00373327
-0.000995446
0.00369123
0.00856582
0.0122652
0.0143814
0.015251
0.0153241
0.0148875
0.0161464
0.00121057
-0.00362824
-0.00743711
-0.0121378
-0.0167643
-0.0196933
-0.0195607
-0.016057
-0.0102676
-0.00410961
0.000729886
0.00348619
0.00428773
0.00362869
0.00205085
0.00183582
-0.0142591
-0.0188712
-0.0225862
-0.0268957
-0.0310015
-0.0334321
-0.0329184
-0.0291254
-0.0230157
-0.0164206
-0.0111171
-0.00810168
-0.00744658
-0.00866107
-0.0110228
-0.0125276
-0.0254649
-0.0295029
-0.0326662
-0.0359378
-0.0385908
-0.0392976
-0.0370694
-0.0319496
-0.0251576
-0.0185512
-0.0138122
-0.0118453
-0.012643
-0.0155247
-0.0194549
-0.0226868
-0.0305667
-0.0324296
-0.0333731
-0.0345688
-0.0354144
-0.0344946
-0.0307026
-0.0241396
-0.0162977
-0.00946677
-0.00569199
-0.00596768
-0.00996685
-0.0162395
-0.0227175
-0.0271617
-0.0357798
-0.0364885
-0.0362228
-0.0357309
-0.0348552
-0.0330516
-0.029933
-0.0256389
-0.0209636
-0.0171647
-0.015426
-0.0164009
-0.019895
-0.0248788
-0.0298102
-0.0331684
-0.0353704
-0.034734
-0.032867
-0.0307028
-0.0282903
-0.0253756
-0.0217634
-0.0177458
-0.0141419
-0.0120376
-0.0123424
-0.0153167
-0.020392
-0.0262262
-0.031222
-0.033848
-0.0309436
-0.0288159
-0.025323
-0.0217281
-0.0182316
-0.0147549
-0.0113188
-0.00827807
-0.0063617
-0.00640729
-0.00893063
-0.013747
-0.0198743
-0.0258394
-0.0300984
-0.03112
-0.0232873
-0.0196214
-0.0148161
-0.010287
-0.00630553
-0.00291686
-0.00026008
0.00128919
0.00117439
-0.00113525
-0.00572054
-0.0119432
-0.0184804
-0.0237892
-0.0265554
-0.0255146
-0.0128696
-0.00793214
-0.00245326
0.00229483
0.00607246
0.00882769
0.0104026
0.0104589
0.00857387
0.00447232
-0.00157224
-0.00854648
-0.0148818
-0.0190346
-0.0199895
-0.0170271
-0.000306151
0.0051583
0.0104361
0.0145816
0.0174905
0.0192213
0.0196853
0.0185958
0.0156125
0.0105989
0.0040218
-0.00284721
-0.00835688
-0.0110339
-0.0102282
-0.00587604
0.0131313
0.0180506
0.0222403
0.0250319
0.0265477
0.0270613
0.0266174
0.0249633
0.0218065
0.0169473
0.0109229
0.00502053
0.000823711
-0.00027397
0.00186672
0.00693255
0.0253643
0.0286569
0.0310919
0.0320399
0.0318962
0.0312219
0.0302455
0.0287655
0.02632
0.0226313
0.018095
0.0138598
0.0113028
0.0114453
0.0142571
0.0193968
0.0338807
0.0347553
0.035179
0.03418
0.0324283
0.0307991
0.0297282
0.0290194
0.0280498
0.026273
0.0237626
0.021516
0.0205224
0.021473
0.0241809
0.0288807
0.0364771
0.0347087
0.0332941
0.0306263
0.0275936
0.02537
0.0245919
0.0250603
0.0259851
0.0264695
0.0262495
0.0258335
0.0260045
0.0271632
0.0290852
0.0329802
0.0321379
0.028138
0.0253754
0.0215653
0.0177306
0.0152795
0.0149908
0.0167877
0.0196327
0.0223023
0.0241292
0.0252065
0.0260329
0.0268564
0.027571
0.0304155
0.0215398
0.0162161
0.0127298
0.0083895
0.00425502
0.00185554
0.00216595
0.00511564
0.00959346
0.0140637
0.0174584
0.019495
0.0204423
0.0205355
0.0199299
0.0215613
0.00687488
0.00132755
-0.00228236
-0.00657378
-0.0105497
-0.0127023
-0.0119705
-0.00831039
-0.0028316
0.00277225
0.00710603
0.00957402
0.0102924
0.00959318
0.00790895
0.00830006
-0.00874643
-0.0135936
-0.016846
-0.020564
-0.0239437
-0.0256676
-0.0247848
-0.0211788
-0.0157795
-0.010133
-0.00566224
-0.00311717
-0.00253753
-0.00360172
-0.00575238
-0.00641003
-0.0214905
-0.025051
-0.0274352
-0.0301304
-0.0323387
-0.0326093
-0.0299146
-0.0243724
-0.0173879
-0.0109637
-0.00680956
-0.00568298
-0.00738693
-0.0110643
-0.0154632
-0.0182711
-0.0249445
-0.0251882
-0.0249677
-0.0256892
-0.026596
-0.0260401
-0.0226968
-0.0165669
-0.00919482
-0.0029739
2.8852e-06
-0.00117508
-0.00594936
-0.0126087
-0.0187797
-0.0219774
-0.0330437
-0.0326979
-0.0315285
-0.0303605
-0.0290139
-0.0270271
-0.0241017
-0.0205161
-0.0170508
-0.0147165
-0.0143303
-0.0162194
-0.0200098
-0.02471
-0.0288456
-0.0308432
-0.0357074
-0.034221
-0.031402
-0.0286779
-0.0260734
-0.02324
-0.0199977
-0.0165976
-0.0138435
-0.0127488
-0.0140603
-0.0178568
-0.0233823
-0.029262
-0.0337928
-0.0350342
-0.0347163
-0.0320958
-0.0276706
-0.023621
-0.0201241
-0.0169525
-0.0140085
-0.0115629
-0.0103128
-0.0110833
-0.0143507
-0.0198419
-0.0264367
-0.0325594
-0.0365539
-0.0360708
-0.0304917
-0.0265952
-0.0208808
-0.0159422
-0.0120416
-0.00905188
-0.006969
-0.00603545
-0.0067741
-0.00969685
-0.014886
-0.0216623
-0.0285964
-0.0340652
-0.0366635
-0.0340369
-0.0229293
-0.0178117
-0.011454
-0.00629704
-0.0025987
-0.000259501
0.000704171
9.66422e-05
-0.00243034
-0.00711565
-0.0136945
-0.0211396
-0.0278025
-0.0320656
-0.032862
-0.0283846
-0.0121316
-0.00632626
-0.000241074
0.00431661
0.00719424
0.00854551
0.00840155
0.0066025
0.00293062
-0.00268284
-0.00973895
-0.016994
-0.022721
-0.0254238
-0.0244101
-0.0187757
0.00106161
0.0065304
0.0113857
0.0145558
0.0160879
0.0162792
0.0152525
0.012895
0.00900306
0.00354793
-0.0028963
-0.00905076
-0.0132738
-0.0142587
-0.0118271
-0.00586247
0.0147037
0.0186175
0.0215259
0.0227667
0.022655
0.0217139
0.0201988
0.0180183
0.0148624
0.010625
0.00577147
0.00142592
-0.000968508
-0.000541449
0.0027032
0.00837822
0.0260496
0.0274268
0.028114
0.0272889
0.0255531
0.0237069
0.0221523
0.0207972
0.0191672
0.0169271
0.0142775
0.0121184
0.0114503
0.0128284
0.0160254
0.0210389
0.0324132
0.0308748
0.0295593
0.0269607
0.0239283
0.021541
0.0203515
0.0202454
0.0205792
0.0206389
0.0203747
0.0202395
0.0208911
0.0225804
0.0249956
0.0291892
0.0321206
0.0280816
0.0253586
0.0215785
0.0177724
0.0152355
0.0146601
0.015909
0.0181612
0.02041
0.022198
0.0236093
0.024988
0.0263831
0.0275776
0.0308841
0.0251493
0.0196817
0.0163074
0.0120634
0.00805872
0.00571222
0.00581721
0.00824195
0.0120946
0.0160215
0.0192385
0.0214989
0.0229376
0.0235819
0.0234573
0.0257928
0.0130754
0.00748765
0.00415302
0.000143648
-0.00349065
-0.00539353
-0.00475788
-0.00164254
0.00298946
0.00775584
0.0115841
0.01401
0.0150852
0.0149356
0.0138334
0.0151909
-0.00132801
-0.00596974
-0.00874021
-0.011895
-0.0146006
-0.0158227
-0.0148729
-0.0118931
-0.00770055
-0.00343378
-1.1389e-05
0.00213173
0.00297019
0.00257159
0.00122057
0.00169422
-0.0139068
-0.0163586
-0.0177118
-0.0197706
-0.0216567
-0.0218362
-0.0192197
-0.0138886
-0.00728054
-0.00145
0.0019439
0.00224834
-0.000164484
-0.00427192
-0.00860607
-0.010485
-0.0146284
-0.0130777
-0.0117739
-0.0121619
-0.0133398
-0.0135152
-0.0112322
-0.00638439
-0.0003886
0.00452823
0.00645285
0.0046315
-0.000215823
-0.0063448
-0.0113103
-0.0126212
-0.0253031
-0.0241743
-0.0223693
-0.0207784
-0.0190887
-0.016846
-0.0139403
-0.0108242
-0.00838709
-0.00750079
-0.00858613
-0.0116512
-0.0157621
-0.0200783
-0.023242
-0.0237256
-0.0306861
-0.0287755
-0.0253161
-0.0222741
-0.0195684
-0.0167507
-0.0136521
-0.010624
-0.00852904
-0.00836199
-0.0107178
-0.0154338
-0.0214614
-0.0273353
-0.0313427
-0.0310553
-0.0332871
-0.0308191
-0.0258242
-0.0215836
-0.0181895
-0.0152334
-0.0125421
-0.0103841
-0.00948825
-0.0107312
-0.0145941
-0.0207183
-0.0277977
-0.0341211
-0.037991
-0.0359801
-0.0331527
-0.0299251
-0.0237171
-0.0186638
-0.0149698
-0.0122937
-0.010508
-0.00979995
-0.0106891
-0.0137577
-0.0191793
-0.0263136
-0.0336359
-0.0394075
-0.042203
-0.0381174
-0.0295983
-0.0253273
-0.0185269
-0.0132716
-0.00980239
-0.00782201
-0.00721134
-0.00805215
-0.010659
-0.0153161
-0.0218822
-0.0294532
-0.0363666
-0.0409469
-0.0421041
-0.0363344
-0.0219884
-0.0168504
-0.0103749
-0.0057119
-0.00304204
-0.00207009
-0.00264322
-0.00474674
-0.00854348
-0.0140908
-0.0210054
-0.0282081
-0.0340303
-0.0369656
-0.0362585
-0.029626
-0.0104956
-0.0052853
-0.000116525
0.00314142
0.00447367
0.00425131
0.00271141
-8.98565e-05
-0.00422835
-0.00966561
-0.0159122
-0.0218629
-0.0259984
-0.0271248
-0.0247149
-0.01807
0.0033315
0.0074112
0.0105318
0.0117955
0.0114405
0.0100119
0.00786043
0.00506475
0.0015183
-0.00278498
-0.0074129
-0.0114043
-0.0135062
-0.0128594
-0.00942858
-0.00335979
0.0167323
0.0185476
0.0193447
0.0184471
0.0163765
0.013948
0.0116262
0.00948276
0.00730243
0.00489773
0.00250674
0.000815049
0.000690536
0.0025631
0.00623627
0.0115326
0.0266055
0.0256019
0.0243239
0.0215565
0.0181237
0.0150753
0.0130167
0.0119843
0.0115713
0.0114089
0.0113529
0.0117744
0.0131573
0.0156019
0.0187492
0.023319
0.0306378
0.0271221
0.0244254
0.0204458
0.0162299
0.0130352
0.0115628
0.0118087
0.0131922
0.0150382
0.0169272
0.0188921
0.0211028
0.0234304
0.0255423
0.0294488
0.0280518
0.0230957
0.0198054
0.015429
0.0111241
0.00824195
0.00751878
0.0089416
0.0117657
0.0150551
0.018165
0.0208546
0.0231146
0.0247682
0.0256857
0.0288685
0.0196794
0.0146066
0.011444
0.00747805
0.00382114
0.00169741
0.00175759
0.00388754
0.00734454
0.0111202
0.0144641
0.0170442
0.0188222
0.019697
0.0197279
0.0221179
0.00776811
0.00363973
0.00114495
-0.00170647
-0.00400987
-0.0049224
-0.00414245
-0.00186134
0.00110219
0.00398901
0.00637832
0.00818583
0.009437
0.00995894
0.00973844
0.0112932
-0.00297823
-0.00404436
-0.00445764
-0.00602718
-0.00780983
-0.00825431
-0.00617733
-0.00167888
0.00396592
0.0088396
0.0114142
0.0111542
0.00852441
0.00459442
0.000963328
0.000292261
-0.000744325
0.00211757
0.00403763
0.00372973
0.00220967
0.0012794
0.00237614
0.00565857
0.009928
0.0133083
0.0142368
0.0121927
0.00788695
0.00292133
-0.000427994
0.000174122
-0.0128995
-0.0116065
-0.00967867
-0.0081249
-0.00641047
-0.00402979
-0.000975211
0.00209775
0.00413205
0.00422048
0.00210065
-0.00174512
-0.00624614
-0.0103089
-0.0127142
-0.0119766
-0.0201876
-0.0184766
-0.014929
-0.0119608
-0.0093676
-0.00657444
-0.0034553
-0.000483554
0.00136744
0.00105748
-0.00194528
-0.00727388
-0.013655
-0.0194779
-0.0230872
-0.0215938
-0.0259693
-0.0242985
-0.0192704
-0.0151885
-0.0120518
-0.00926965
-0.00663965
-0.00448206
-0.00357413
-0.00487248
-0.00891627
-0.0153316
-0.0226819
-0.0291389
-0.0330491
-0.0299149
-0.0299905
-0.0281318
-0.0219417
-0.0171006
-0.0137471
-0.0113318
-0.00963896
-0.00884091
-0.0094633
-0.0121913
-0.0173524
-0.0244401
-0.0319201
-0.0379821
-0.0412636
-0.0362237
-0.031029
-0.028377
-0.0215878
-0.0165272
-0.0134133
-0.0117506
-0.011302
-0.0120385
-0.0142695
-0.0183575
-0.0243604
-0.0316095
-0.0385415
-0.0434788
-0.0453982
-0.0388623
-0.0276914
-0.0239706
-0.0174663
-0.0129405
-0.0105993
-0.00998747
-0.0108172
-0.0129336
-0.0164107
-0.0213532
-0.0275803
-0.034295
-0.0400012
-0.043247
-0.0433232
-0.0361207
-0.0192846
-0.0149403
-0.00969744
-0.00653035
-0.00551685
-0.00618151
-0.00814531
-0.0111648
-0.0151749
-0.02013
-0.0257126
-0.0310989
-0.0349805
-0.0362177
-0.0343899
-0.0273559
-0.00671453
-0.00282056
0.000401896
0.0015724
0.000853339
-0.00115546
-0.00395443
-0.00725025
-0.0109431
-0.0149839
-0.0190598
-0.0224554
-0.0241562
-0.0233941
-0.0200693
-0.0137347
0.00751059
0.00968706
0.0105874
0.00954243
0.00702259
0.00384726
0.000637488
-0.00228819
-0.00492557
-0.00732216
-0.00931472
-0.0104164
-0.00998028
-0.00764223
-0.0036042
0.00194107
0.0199617
0.0197122
0.0185223
0.0155385
0.0115548
0.00763117
0.00450555
0.00244817
0.00132335
0.000898031
0.00108729
0.00209866
0.00421697
0.00743777
0.0113644
0.0163235
0.0278809
0.0252834
0.0226451
0.018397
0.0135933
0.00949088
0.00688373
0.005965
0.00642412
0.00779834
0.00977788
0.0122999
0.0153639
0.0187039
0.0218942
0.0263544
0.0297859
0.0257587
0.0224874
0.0178391
0.0130157
0.00934022
0.007578
0.00781839
0.00958126
0.012214
0.0152294
0.0183839
0.0215325
0.0243324
0.0264984
0.0303683
0.0257593
0.0214785
0.018266
0.0140775
0.0101096
0.00751223
0.00684419
0.00801074
0.0104174
0.0133605
0.0163606
0.0191948
0.0217535
0.0237546
0.025048
0.0281674
0.0174139
0.0138303
0.0112176
0.00823751
0.00592206
0.00503203
0.00570532
0.00753832
0.00980678
0.0118858
0.0136596
0.0152835
0.016878
0.0181745
0.0189619
0.0211561
0.00985933
0.00989329
0.00993418
0.00850251
0.0065986
0.00573247
0.00698185
0.0103781
0.0147698
0.018568
0.0204919
0.0201261
0.0179072
0.0147514
0.0123136
0.0127518
0.0142781
0.0174246
0.0191873
0.0186516
0.0168945
0.0155992
0.0159938
0.0181692
0.0211128
0.0233135
0.0236007
0.0216812
0.0182261
0.0146024
0.0126977
0.0143395
0.00227237
0.00318266
0.00441606
0.00539314
0.00675512
0.00907685
0.0123577
0.0157582
0.0180715
0.018261
0.0160275
0.0119823
0.00737304
0.00346674
0.00141948
0.00264457
-0.00587184
-0.00488299
-0.00191426
0.000574323
0.00281121
0.00546371
0.00865783
0.0117939
0.0137815
0.0135339
0.0105151
0.0051575
-0.00116257
-0.00676019
-0.0100948
-0.0080404
-0.0140306
-0.0134272
-0.00889509
-0.00534323
-0.00263344
-8.20956e-05
0.00251772
0.00479778
0.00591433
0.00487272
0.00108565
-0.00511881
-0.0122959
-0.0185915
-0.0224831
-0.0188635
-0.0217422
-0.0213271
-0.0156045
-0.0112749
-0.00839556
-0.00628065
-0.00467585
-0.00371344
-0.00395161
-0.00613255
-0.0107104
-0.0173393
-0.0245711
-0.0306102
-0.03423
-0.0288308
-0.0273793
-0.0263495
-0.0199181
-0.0152747
-0.0126227
-0.0113049
-0.0109958
-0.0115937
-0.0133505
-0.0167028
-0.0218948
-0.0285067
-0.0351399
-0.0401797
-0.0427273
-0.0359053
-0.0288557
-0.0265873
-0.0202415
-0.0159862
-0.0140465
-0.0138246
-0.0148954
-0.0169676
-0.0200159
-0.024202
-0.0295577
-0.0355807
-0.0409843
-0.0444073
-0.0452101
-0.0377392
-0.0245892
-0.0211431
-0.0158479
-0.0128009
-0.0121313
-0.0132532
-0.015624
-0.0187996
-0.0225761
-0.0269288
-0.0317443
-0.0364939
-0.0400861
-0.0414644
-0.0402042
-0.0328901
-0.0146169
-0.0109037
-0.00746543
-0.0063223
-0.00738081
-0.00996348
-0.0133871
-0.0171175
-0.0208822
-0.0245959
-0.0281124
-0.0309756
-0.032373
-0.0315994
-0.0284818
-0.0218183
-0.00105584
0.00162213
0.00281655
0.00175017
-0.00116465
-0.00505704
-0.00911175
-0.0127693
-0.0158001
-0.0181778
-0.019841
-0.0205058
-0.0196947
-0.0170852
-0.0127967
-0.00684178
0.0127303
0.0133888
0.0124585
0.00938443
0.00492188
0.0001709
-0.00396092
-0.00696368
-0.00873792
-0.00940371
-0.00906638
-0.00766535
-0.00505462
-0.00127937
0.0032946
0.00865295
0.0235498
0.0220323
0.0195214
0.0150665
0.00972016
0.00476392
0.00112192
-0.000813589
-0.00113337
-0.000146835
0.00187008
0.00477177
0.00844621
0.012574
0.0166866
0.0215102
0.0294361
0.0264207
0.0230696
0.0180828
0.0127066
0.00827156
0.00560983
0.00493032
0.00593219
0.00812865
0.0111231
0.014654
0.0184925
0.0222158
0.0254237
0.0295823
0.0298507
0.0262866
0.0227332
0.0180676
0.013593
0.0104677
0.00924658
0.00984312
0.0117363
0.0143465
0.017315
0.0204634
0.0236497
0.0265118
0.0287566
0.0320225
0.0257533
0.0224501
0.0192498
0.0156658
0.012904
0.0117765
0.0124112
0.0142939
0.0166202
0.0187831
0.0206419
0.0223919
0.024242
0.0259851
0.0272811
0.0294798
0.0222164
0.0225712
0.0223261
0.0205915
0.0184158
0.0171782
0.017804
0.020304
0.0236994
0.0266861
0.0282692
0.0282206
0.0268979
0.0250736
0.0238011
0.0247678
0.0271678
0.0293172
0.0301209
0.0290442
0.0272089
0.0260997
0.026608
0.0286064
0.0311066
0.0328696
0.0330489
0.0315275
0.0289438
0.0263829
0.0252987
0.0269924
0.0169283
0.0167743
0.0169851
0.0169873
0.0176871
0.0197882
0.0231718
0.0269976
0.029935
0.0308446
0.0292894
0.0257933
0.0215842
0.0179736
0.0160414
0.0170562
0.00904299
0.00916771
0.0113041
0.0128183
0.0144394
0.016818
0.0199689
0.0232341
0.0254815
0.0255905
0.0230472
0.0182499
0.0125362
0.0075266
0.00456612
0.00656882
-0.000458379
-0.000547695
0.00315529
0.00592748
0.00804803
0.0102378
0.0126499
0.0148921
0.016103
0.0153228
0.0119906
0.00639768
-9.62371e-05
-0.00573622
-0.00919181
-0.00560914
-0.0109776
-0.0111765
-0.00614848
-0.00252206
-0.000233444
0.00143661
0.0027424
0.00361295
0.00350114
0.00168046
-0.00233696
-0.0082962
-0.0148737
-0.0203679
-0.023673
-0.0183173
-0.0205961
-0.0201749
-0.014213
-0.0101178
-0.00803302
-0.00722554
-0.00726204
-0.00797245
-0.00954068
-0.0124177
-0.0169507
-0.022883
-0.0289684
-0.033669
-0.0361191
-0.0292502
-0.02672
-0.0249537
-0.018756
-0.0148211
-0.0133521
-0.0136464
-0.0151332
-0.0173657
-0.0202214
-0.0238964
-0.0285862
-0.0340069
-0.0390328
-0.0423523
-0.0432645
-0.0355699
-0.0269356
-0.0237009
-0.018207
-0.0152295
-0.0149052
-0.0165478
-0.019421
-0.0228724
-0.0265632
-0.0305045
-0.0347723
-0.0390762
-0.0424715
-0.0439119
-0.0428283
-0.0351003
-0.0204304
-0.0164867
-0.0125836
-0.0113198
-0.0126345
-0.0157618
-0.0198018
-0.0239809
-0.0278632
-0.0313767
-0.0345508
-0.037149
-0.0384745
-0.0377921
-0.0347375
-0.0275348
-0.00876981
-0.00538543
-0.00363294
-0.00451724
-0.00767064
-0.0121488
-0.0169311
-0.0212092
-0.0245752
-0.0269858
-0.0285121
-0.0290449
-0.0281891
-0.0255673
-0.0211182
-0.0146539
0.00492455
0.00654363
0.00607836
0.0031147
-0.00163115
-0.00700067
-0.011905
-0.0156127
-0.017855
-0.0187037
-0.0183509
-0.0168559
-0.0141323
-0.010167
-0.0052049
0.000510239
0.0172889
0.0167636
0.0144468
0.00991343
0.00420453
-0.00135596
-0.00570516
-0.00828388
-0.00904601
-0.00824912
-0.00621171
-0.00315739
0.000750367
0.00524318
0.00988978
0.0148118
0.0261072
0.0238684
0.0203283
0.0150017
0.00916999
0.00420162
0.00101591
-8.84345e-05
0.000662376
0.00280804
0.00593594
0.00973336
0.0139343
0.0181365
0.0219106
0.0258592
0.0304419
0.0272318
0.0230738
0.0177632
0.0127076
0.00913882
0.00767129
0.00823037
0.0102671
0.0131398
0.016492
0.0200406
0.0236308
0.0269255
0.0295919
0.0323619
0.0306781
0.0272112
0.0230469
0.0185174
0.0150063
0.0134679
0.0141109
0.01641
0.0194265
0.022233
0.0250089
0.0273158
0.0294568
0.0313638
0.0328204
0.0342854
0.031277
0.0309684
0.0296976
0.027271
0.0247811
0.023466
0.0240166
0.0262512
0.0293141
0.0322533
0.0337833
0.0342902
0.033935
0.0331774
0.0327684
0.0337094
0.0345705
0.0348468
0.0340816
0.0321641
0.0302999
0.0297512
0.0310448
0.0337427
0.0367478
0.0389167
0.0395157
0.0386175
0.0368124
0.0349588
0.0340694
0.0349093
0.0275291
0.0262243
0.0251585
0.0240506
0.0239498
0.0256228
0.028975
0.0330972
0.0366344
0.0384099
0.0378735
0.0354422
0.0321162
0.0291019
0.0273131
0.0277425
0.0209407
0.0204458
0.0214276
0.022039
0.0229792
0.0249358
0.0278752
0.0310837
0.0334479
0.033938
0.0320508
0.0281251
0.0234132
0.0193466
0.017014
0.0186361
0.0113213
0.0113182
0.0141091
0.0160677
0.017547
0.0192419
0.0212624
0.0231898
0.0242205
0.0234879
0.0205595
0.0157174
0.0102241
0.005667
0.00317763
0.00645672
-0.000693404
-0.000237375
0.00407926
0.0070135
0.00863636
0.00970054
0.0104895
0.0109127
0.0105283
0.00871083
0.00500579
-0.000305137
-0.00599976
-0.0104902
-0.0127117
-0.00761488
-0.0130463
-0.0117082
-0.00620147
-0.00268773
-0.00123156
-0.00107988
-0.00172439
-0.00289006
-0.00466187
-0.00746469
-0.0116632
-0.0170465
-0.0224606
-0.0264081
-0.0278964
-0.0211612
-0.0228351
-0.0201517
-0.0140634
-0.0104908
-0.00956343
-0.0105156
-0.0126202
-0.0152639
-0.0182306
-0.0217343
-0.0260746
-0.0310783
-0.035707
-0.0386232
-0.0388753
-0.0310761
-0.0270976
-0.0230152
-0.01724
-0.0143428
-0.0144085
-0.0166488
-0.0201275
-0.0239725
-0.0277396
-0.03149
-0.0354608
-0.0395226
-0.0428044
-0.0441778
-0.0427637
-0.0346651
-0.0243316
-0.0195174
-0.0150253
-0.0135919
-0.0151341
-0.0187736
-0.0233998
-0.0279912
-0.0319918
-0.0353874
-0.0383879
-0.0409303
-0.042366
-0.0418401
-0.0386769
-0.0309474
-0.0153906
-0.0111333
-0.00867924
-0.00927435
-0.012548
-0.0174653
-0.0227971
-0.027497
-0.031038
-0.0334298
-0.0349034
-0.0355094
-0.0348748
-0.0324848
-0.0279969
-0.0210476
-0.00315687
-0.000660304
-0.00057024
-0.00330088
-0.00815476
-0.0139002
-0.0192663
-0.0233344
-0.0257317
-0.0265819
-0.0262125
-0.0248099
-0.0222929
-0.0185154
-0.0135068
-0.00757386
0.00922027
0.00938062
0.00724887
0.00272692
-0.00315918
-0.00903021
-0.0136874
-0.0164438
-0.0172038
-0.0162859
-0.0141294
-0.0110621
-0.00725276
-0.00284941
0.00184864
0.00657701
0.0194675
0.0175632
0.0137241
0.00807953
0.00193196
-0.00329316
-0.00658372
-0.00758815
-0.00654898
-0.00401803
-0.000542805
0.00346738
0.00773657
0.0119457
0.0157286
0.0190552
0.0265675
0.023222
0.018296
0.0122909
0.00669273
0.00283548
0.00142179
0.00238292
0.00509333
0.00875947
0.0128006
0.0168291
0.020648
0.0239879
0.0265355
0.0283733
0.0305068
0.0264373
0.0211471
0.0155704
0.0112243
0.00923867
0.00993883
0.0128154
0.0168512
0.0210222
0.0247776
0.0278827
0.0304093
0.0323678
0.0335624
0.0339963
0.0346234
0.0328355
0.030033
0.0266899
0.0238602
0.0227728
0.0238267
0.026607
0.0301329
0.0333726
0.0356152
0.0368329
0.0372686
0.0371963
0.037066
0.0372283
0.0346052
0.0326723
0.0300432
0.0271466
0.0251994
0.0252967
0.0276509
0.0315145
0.0356017
0.0387061
0.0401723
0.0400587
0.0389272
0.0374801
0.0363476
0.0359482
0.0315834
0.0293346
0.0271342
0.0250664
0.0242713
0.0255266
0.028723
0.0329407
0.0368664
0.039347
0.0398223
0.038507
0.036232
0.0339679
0.0324008
0.0321882
0.027247
0.0265115
0.0265338
0.0263589
0.026736
0.0282937
0.0309447
0.0339647
0.0363043
0.0370283
0.0357184
0.0327091
0.0290584
0.0259925
0.0243679
0.0255044
0.0189395
0.0195882
0.0216264
0.0229195
0.023896
0.025135
0.0267081
0.0282081
0.0289073
0.0280933
0.0254276
0.021266
0.0167629
0.0133455
0.0119856
0.014834
0.00717285
0.00905318
0.0127724
0.0150906
0.0161896
0.0167072
0.0169293
0.0168429
0.0160055
0.0139705
0.0103924
0.00560028
0.000776093
-0.0025996
-0.00344943
0.00119724
-0.00608153
-0.00295023
0.00208876
0.00503617
0.00593388
0.0054723
0.00421721
0.00251129
0.000417393
-0.0025108
-0.0065504
-0.0114972
-0.0162293
-0.0192453
-0.019387
-0.0131147
-0.0178861
-0.0134758
-0.0076585
-0.00455227
-0.00417179
-0.00574621
-0.00841784
-0.0114537
-0.0145719
-0.0180175
-0.0221265
-0.0267759
-0.0309567
-0.0332619
-0.0324671
-0.0250306
-0.0250747
-0.0195965
-0.0137946
-0.0111562
-0.0116712
-0.0144699
-0.0184389
-0.0225422
-0.0262917
-0.0298279
-0.0335229
-0.0373456
-0.040448
-0.0415958
-0.0395982
-0.0316495
-0.0256822
-0.019844
-0.0150301
-0.0136047
-0.0154261
-0.0195019
-0.0245208
-0.0292718
-0.0331562
-0.036272
-0.0390149
-0.0414608
-0.0429801
-0.0425826
-0.0392774
-0.0314949
-0.0200231
-0.0149993
-0.0120766
-0.0124956
-0.0159155
-0.02112
-0.0267207
-0.0314882
-0.0348545
-0.0369649
-0.0382201
-0.0388521
-0.0384846
-0.0364515
-0.0321282
-0.0250918
-0.0104319
-0.00739225
-0.00693161
-0.00949957
-0.0144028
-0.0203183
-0.0258084
-0.0298023
-0.0319088
-0.0324095
-0.0318471
-0.030523
-0.0283359
-0.0250022
-0.020306
-0.0144823
0.000278518
0.000713632
-0.00136954
-0.00591153
-0.0118767
-0.0178211
-0.0224178
-0.0248948
-0.0251804
-0.0237656
-0.0212894
-0.0182056
-0.0147037
-0.0107143
-0.00639113
-0.00213429
0.0101629
0.00812152
0.00388897
-0.00206825
-0.00842008
-0.0136734
-0.0167266
-0.0172019
-0.0154349
-0.0121622
-0.00814152
-0.00392195
0.000237395
0.00408963
0.00742542
0.00991726
0.0183449
0.0144389
0.0087256
0.00208481
-0.00393605
-0.0079027
-0.0090264
-0.00738327
-0.00371238
0.000958514
0.00589544
0.0104069
0.0143291
0.0174394
0.0195053
0.020278
0.0246862
0.019738
0.0134077
0.00690531
0.00187581
-0.000428283
0.000427279
0.00391566
0.00896823
0.0143725
0.0192759
0.0232414
0.0261885
0.028083
0.0288198
0.0281897
0.0311379
0.027525
0.0230434
0.0185656
0.0155681
0.0148925
0.0168207
0.0206938
0.025331
0.0295621
0.0326775
0.0345521
0.0354298
0.0355782
0.0351819
0.0342303
0.0274828
0.0237013
0.0194666
0.015659
0.0134974
0.0140629
0.0173455
0.0223718
0.0276701
0.0319051
0.0343509
0.0350084
0.0343878
0.0330956
0.0315466
0.0300105
0.0285511
0.0256894
0.0227272
0.0201249
0.0189761
0.0200246
0.0231308
0.0273828
0.0315242
0.0344648
0.0356576
0.0352155
0.0337723
0.0320795
0.0306388
0.0298229
0.0272325
0.0264518
0.0258552
0.0252519
0.0253886
0.0267914
0.0293082
0.0322176
0.0345394
0.0354363
0.0345597
0.0322269
0.0293446
0.0269657
0.02577
0.0263306
0.0216554
0.02292
0.0244565
0.0253978
0.0261872
0.0272779
0.0286474
0.0299085
0.0304117
0.02955
0.0270851
0.0234202
0.0196256
0.0169733
0.0163247
0.0185803
0.012048
0.0150832
0.018333
0.0202892
0.0211807
0.021481
0.0214619
0.021076
0.0200224
0.0178783
0.0144213
0.0100345
0.00585606
0.00325683
0.0033234
0.00726966
3.39824e-05
0.00452583
0.00901736
0.0115081
0.0121093
0.0113937
0.00992344
0.00808448
0.00587787
0.00297249
-0.000902378
-0.00547315
-0.00965333
-0.0119222
-0.0111139
-0.00569704
-0.0117441
-0.00612857
-0.000933025
0.00161977
0.00161415
-0.000239571
-0.00305017
-0.00606208
-0.00901167
-0.0121911
-0.0159701
-0.020215
-0.0239274
-0.0256591
-0.024102
-0.0176094
-0.0202958
-0.0139888
-0.00874597
-0.00664969
-0.00756789
-0.010633
-0.0146456
-0.0185313
-0.0218573
-0.0248856
-0.0281025
-0.0315273
-0.0343196
-0.0351739
-0.0327922
-0.0257228
-0.0235175
-0.0172328
-0.0127756
-0.0117404
-0.0138853
-0.0181616
-0.0231426
-0.0275305
-0.0308183
-0.0332698
-0.0354771
-0.0376064
-0.039035
-0.0386787
-0.0354301
-0.0283489
-0.0212561
-0.0160424
-0.0132664
-0.0139013
-0.0174942
-0.0228126
-0.0282819
-0.032596
-0.0352757
-0.036649
-0.0373998
-0.0378451
-0.037616
-0.0359227
-0.0319932
-0.0255027
-0.0152267
-0.0121586
-0.0117729
-0.014459
-0.0194656
-0.0253883
-0.0306442
-0.0340934
-0.0354524
-0.035208
-0.0341478
-0.0327256
-0.0308311