/*--------------------------------*- C++ -*----------------------------------*\
| =========                 |                                                 |
| \\      /  F ield         | OpenFOAM: The Open Source CFD Toolbox           |
|  \\    /   O peration     | Version:  3.0.0                                 |
|   \\  /    A nd           | Web:      www.OpenFOAM.org                      |
|    \\/     M anipulation  |                                                 |
\*---------------------------------------------------------------------------*/
FoamFile
{
    version     2.0;
    format      ascii;
    class       surfaceScalarField;
    location    "1";
    object      phi;
}
// * * * * * * * * * * * * * * * * * * * * * * * * * * * * * * * * * * * * * //

dimensions      [0 3 -1 0 0 0 0];

internalField   nonuniform List<scalar> 
11520
(
-3.27269e-05
0.000172346
1.56946e-05
2.48981e-05
0.000180024
-1.1332e-05
8.77769e-05
0.000192419
-2.75512e-05
0.00014464
0.000209619
-2.69869e-05
0.000183862
0.000228758
-9.52625e-06
0.000196828
0.000244262
1.88358e-05
0.000180868
0.000250126
4.90821e-05
0.000140416
0.000243146
7.38057e-05
8.5186e-05
0.000224721
9.0171e-05
2.64002e-05
0.000200237
9.95177e-05
-2.68755e-05
0.00017658
0.000104399
-6.89878e-05
0.000159299
0.000105975
-9.6919e-05
0.000150714
0.000103212
-0.000108729
0.000149764
9.37659e-05
-0.000102689
0.000153483
7.55025e-05
0.000159168
4.83785e-05
-1.06544e-05
0.000113469
-4.83544e-06
3.43511e-05
0.000130874
-5.47822e-05
7.93348e-05
0.000147778
-9.28621e-05
0.000115435
0.000165077
-0.000110259
0.000134292
0.000180477
-0.000103953
0.000131004
0.000188559
-7.7451e-05
0.000106195
0.000183186
-3.8705e-05
6.60857e-05
0.000161464
3.69338e-06
2.00559e-05
0.000126548
4.35864e-05
-2.2976e-05
8.7288e-05
7.78135e-05
-5.71719e-05
5.44023e-05
0.000104677
-8.00011e-05
3.59902e-05
0.000122206
-9.08837e-05
3.45318e-05
0.000127542
-8.96593e-05
4.6936e-05
0.000117621
-7.58332e-05
6.69971e-05
9.06672e-05
8.87918e-05
4.81751e-05
-4.12424e-07
3.91726e-05
-3.36039e-05
3.75895e-05
7.11212e-05
-9.83676e-05
7.05277e-05
9.71633e-05
-0.000151001
9.15641e-05
0.000117463
-0.000180423
9.55235e-05
0.000129421
-0.000181443
8.08806e-05
0.000127661
-0.000155993
5.06245e-05
0.000106707
-0.000111516
1.14653e-05
6.53725e-05
-5.75486e-05
-2.86226e-05
9.99077e-06
-2.56996e-06
-6.27857e-05
-4.67801e-05
4.72224e-05
-8.69734e-05
-9.04106e-05
8.74953e-05
-9.95776e-05
-0.000110891
0.000114629
-0.000100416
-0.000105857
0.000125009
-8.98582e-05
-8.01238e-05
0.00011532
-6.8469e-05
-4.25135e-05
8.37659e-05
-1.86963e-06
3.20965e-05
-3.64547e-06
-4.08221e-05
-6.73103e-05
3.47742e-05
7.72192e-06
-0.000138037
6.43751e-05
4.58286e-05
-0.000196891
7.93806e-05
7.16323e-05
-0.000231573
7.67082e-05
8.13938e-05
-0.00023551
5.70063e-05
6.9711e-05
-0.000209637
2.44299e-05
3.24141e-05
-0.000161125
-1.4695e-05
-2.90194e-05
-0.000100281
-5.3689e-05
-0.000104637
-3.73478e-05
-8.72084e-05
-0.000177917
1.9629e-05
-0.000111406
-0.000231688
6.48851e-05
-0.0001238
-0.00025487
9.44464e-05
-0.000122939
-0.000245449
0.000105048
-0.000108499
-0.000209343
9.39318e-05
-8.14973e-05
-0.000156829
5.96901e-05
-9.8584e-05
3.93635e-06
-1.95566e-05
-0.000115531
-0.000101119
2.59913e-05
-5.14115e-05
-0.000168976
6.08958e-05
-7.64057e-07
-0.0002254
7.92959e-05
3.1982e-05
-0.000258333
7.86873e-05
4.14886e-05
-0.000260828
6.0345e-05
2.20962e-05
-0.000233192
2.83981e-05
-2.89417e-05
-0.000182331
-1.16864e-05
-0.000107295
-0.00011904
-5.43747e-05
-0.000199543
-5.46047e-05
-9.45589e-05
-0.000286109
1.8152e-06
-0.000127434
-0.000348125
4.434e-05
-0.000148305
-0.00037427
6.9544e-05
-0.000153366
-0.000362984
7.54374e-05
-0.000140714
-0.000320685
6.05793e-05
-0.000111102
-0.000258021
2.45128e-05
-0.000186291
-3.06033e-05
-4.5058e-05
-0.000173349
-0.000130089
1.19452e-05
-9.73089e-05
-0.000186977
5.86599e-05
-3.61976e-05
-0.000232871
8.79957e-05
3.45807e-06
-0.00025744
9.66396e-05
1.45571e-05
-0.000254476
8.50582e-05
-9.03832e-06
-0.000224203
5.63447e-05
-6.90224e-05
-0.000173222
1.4806e-05
-0.00015874
-0.000112337
-3.47491e-05
-0.000262021
-5.30875e-05
-8.65978e-05
-0.000357196
-4.70489e-06
-0.000134052
-0.000424777
2.81796e-05
-0.000169389
-0.000453645
4.32894e-05
-0.000185894
-0.000442732
4.06313e-05
-0.000179648
-0.000398389
2.04865e-05
-0.000150649
-0.000330915
-1.6237e-05
-0.000251223
-6.63936e-05
-7.55861e-05
-0.000204117
-0.000149917
-5.34316e-06
-0.00012145
-0.000189109
5.67244e-05
-5.37038e-05
-0.000217725
0.000101709
-8.68068e-06
-0.000228323
0.000124443
5.10285e-06
-0.000216586
0.000123511
-1.91302e-05
-0.000183288
0.0001002
-8.26183e-05
-0.000134782
5.74024e-05
-0.000177265
-8.13764e-05
-4.95982e-07
-0.00028519
-3.38862e-05
-6.66835e-05
-0.000383747
-1.51294e-07
-0.000131773
-0.000453591
1.6892e-05
-0.000184769
-0.000484299
1.7493e-05
-0.000215797
-0.000475192
3.65018e-06
-0.000218951
-0.00043237
-2.19388e-05
-0.000193206
-0.00036509
-5.74409e-05
-0.000283246
-9.8668e-05
-0.000106323
-0.000201384
-0.000157395
-2.2965e-05
-0.00011793
-0.000174128
5.55322e-05
-4.80309e-05
-0.000180733
0.00011822
-1.15095e-07
-0.000173424
0.000157579
1.64573e-05
-0.000150621
0.000169613
-5.64238e-06
-0.000114356
0.000153235
-6.77324e-05
-7.09298e-05
0.000109694
-0.000161177
-2.97075e-05
4.31024e-05
-0.0002675
2.88523e-07
-3.82339e-05
-0.000364144
1.37439e-05
-0.00012183
-0.000432724
1.048e-05
-0.00019334
-0.000463966
-6.13639e-06
-0.000240011
-0.000457521
-3.17793e-05
-0.000253864
-0.000418816
-6.23121e-05
-0.000233027
-0.000355922
-9.43389e-05
-0.000277382
-0.000123365
-0.000132977
-0.00016424
-0.000150946
-3.78384e-05
-8.54922e-05
-0.000143117
5.6316e-05
-1.76735e-05
-0.000125702
0.000136845
3.05444e-05
-9.87139e-05
0.000193531
4.95026e-05
-6.38636e-05
0.000219431
3.13482e-05
-2.50198e-05
0.000210703
-2.5541e-05
1.12519e-05
0.00016678
-0.00011265
3.68459e-05
9.17129e-05
-0.000211844
4.53148e-05
-4.34661e-06
-0.000301758
3.49604e-05
-0.00010575
-0.000365781
9.27949e-06
-0.000194898
-0.000396092
-2.53238e-05
-0.000256535
-0.000392678
-6.22217e-05
-0.000281037
-0.000360112
-9.58886e-05
-0.00026581
-0.000305035
-0.000122206
-0.000234594
-0.000137188
-0.000152186
-9.79978e-05
-0.000131183
-4.75125e-05
-2.84026e-05
-0.000100023
6.03501e-05
3.40903e-05
-5.98786e-05
0.000157275
8.06155e-05
-1.41806e-05
0.000230494
0.000101397
3.22159e-05
0.000269887
8.83295e-05
7.31166e-05
0.000268627
3.93978e-05
0.000101302
0.000224355
-3.74009e-05
0.000109936
0.000141339
-0.000125038
9.57217e-05
3.19357e-05
-0.000204256
6.11671e-05
-8.5152e-05
-0.000261026
1.36972e-05
-0.00018955
-0.000289265
-3.726e-05
-0.000264069
-0.000289225
-8.32791e-05
-0.00029802
-0.000264475
-0.000117874
-0.000288353
-0.000220009
-0.000136962
-0.000161495
-0.000138032
-0.000161503
-1.37575e-05
-0.000101224
-5.03672e-05
4.35851e-05
-5.17644e-05
6.79867e-05
9.86044e-05
6.10659e-06
0.000178368
0.000142151
6.66596e-05
0.000265756
0.000164526
0.000122372
0.000316899
0.00015748
0.00016485
0.000322014
0.000118635
0.000185734
0.000277207
5.51897e-05
0.000179147
0.000187381
-1.758e-05
0.000144877
6.71931e-05
-8.33136e-05
8.95749e-05
-6.19244e-05
-0.00013106
2.4362e-05
-0.000177649
-0.000156689
-3.90055e-05
-0.0002617
-0.000160549
-9.07482e-05
-0.000302949
-0.000145035
-0.000124147
-0.000298136
-0.000113316
-0.000135846
-6.94331e-05
-0.000125494
-0.00015957
7.36829e-05
-6.61862e-05
-4.5877e-05
0.000117101
-7.11681e-06
7.84147e-05
0.000163245
6.01281e-05
0.000197569
0.000202988
0.000128715
0.000294813
0.000226898
0.000189859
0.000354297
0.000226782
0.000233332
0.00036375
0.000199829
0.000249574
0.000318302
0.000152068
0.000232968
0.000223871
9.63694e-05
0.000185519
9.72025e-05
4.56289e-05
0.000117042
-3.84925e-05
7.51922e-06
4.13666e-05
-0.000159982
-1.55425e-05
-2.81999e-05
-0.000248985
-2.38612e-05
-8.14581e-05
-0.000294595
-1.85054e-05
-0.000112135
-0.00029346
-7.44696e-07
-0.000118035
2.7266e-05
-0.000101038
-0.000146373
0.000149071
-3.1958e-05
-3.48247e-05
0.000178378
2.58264e-05
8.95821e-05
0.000214854
9.16392e-05
0.000211006
0.000250047
0.000159427
0.000311723
0.000275227
0.000220521
0.00037428
0.0002825
0.000264128
0.000385081
0.000268555
0.000279655
0.000339194
0.0002377
0.000261046
0.000243757
0.000199756
0.000210926
0.000116844
0.000163949
0.000140382
-1.80021e-05
0.00013503
6.42703e-05
-0.000138114
0.00011412
-3.78974e-06
-0.000226409
0.000101199
-5.41498e-05
-0.000272741
9.66251e-05
-8.15176e-05
-0.000273917
0.000101008
-8.49922e-05
0.00011367
-6.77876e-05
-0.000123517
0.000200246
-3.94479e-06
-1.92283e-05
0.00021704
4.12025e-05
9.85961e-05
0.000243872
9.4666e-05
0.000214499
0.000273915
0.00015249
0.000310733
0.000299629
0.000207608
0.00036971
0.000313674
0.000250035
0.000378175
0.000312074
0.000268997
0.000332308
0.000296902
0.000257535
0.000240477
0.000274625
0.00021706
0.0001209
0.000251264
0.000157409
-4.29737e-06
0.000229633
9.21726e-05
-0.000114926
0.000210396
3.35924e-05
-0.000196084
0.00019411
-1.007e-05
-0.000239063
0.000182081
-3.48063e-05
-0.000240814
0.000176022
-4.04389e-05
0.000176531
-3.02201e-05
-9.41872e-05
0.000220374
1.35351e-05
-1.81162e-06
0.00022812
3.68001e-05
0.000102847
0.000246614
6.92634e-05
0.000205364
0.000271411
0.000109782
0.000288954
0.000296581
0.000153981
0.000337504
0.000315299
0.00019381
0.000339886
0.00032259
0.000219263
0.000294512
0.000318033
0.000222555
0.000210825
0.000305229
0.000202595
0.000105947
0.000288469
0.000165629
-1.15693e-06
0.000270474
0.0001215
-9.43118e-05
0.000252628
7.92269e-05
-0.000162025
0.000236055
4.48511e-05
-0.000197525
0.000222003
2.1289e-05
-0.000198016
0.000211825
8.90077e-06
0.000206264
5.83343e-06
-6.28664e-05
1.98213e-05
1.44137e-05
1.63004e-05
0.000101296
2.29878e-05
0.000184403
4.23453e-05
0.000248809
7.26002e-05
0.000281249
0.000107777
0.000274254
0.00013884
0.000229414
0.000157639
0.00015712
0.000160997
7.24109e-05
0.000151434
-1.02271e-05
0.00013419
-7.98156e-05
0.000113859
-0.000129167
9.30586e-05
-0.00015388
7.28345e-05
-0.000151519
5.34059e-05
3.49084e-05
-6.32184e-05
9.92303e-05
5.88501e-06
-1.81061e-05
7.52282e-05
-3.63575e-05
3.21266e-05
7.38195e-05
-5.80841e-05
7.8505e-05
9.72886e-05
-5.10947e-05
0.000111987
0.000142366
-1.59306e-05
0.000125819
0.000200346
3.84117e-05
0.000117254
0.000259199
9.81795e-05
8.85333e-05
0.000307293
0.000150331
4.63281e-05
0.000336794
0.000186925
-6.31722e-07
0.000345139
0.000206226
-4.46128e-05
0.000334178
0.000210488
-8.04537e-05
0.000308031
0.00020245
-0.00010537
0.000271081
0.000183438
-0.000117597
0.000227108
0.000153226
-0.000115369
0.000179858
0.000111471
0.000134399
6.04971e-05
-1.32797e-05
4.46224e-05
2.09752e-05
1.97907e-05
3.12753e-05
-4.38997e-05
5.24551e-05
3.47177e-05
-8.64246e-05
7.86093e-05
5.77981e-05
-9.69231e-05
9.27941e-05
9.77778e-05
-7.35494e-05
9.1702e-05
0.000146439
-2.24521e-05
7.51718e-05
0.000192288
4.4737e-05
4.66883e-05
0.000224597
0.000114873
1.25762e-05
0.000237381
0.000177111
-2.03062e-05
0.00023113
0.000224705
-4.69235e-05
0.000211218
0.000254255
-6.49295e-05
0.000184287
0.000263955
-7.37759e-05
0.000155005
0.000252465
-7.32986e-05
0.000125154
0.000219098
-6.28971e-05
9.50832e-05
0.000165041
6.63393e-05
9.54143e-05
2.51419e-05
-3.07262e-05
1.38393e-05
5.21153e-05
-2.82998e-05
-6.57659e-05
7.35932e-05
-1.53186e-05
-0.000122443
8.53093e-05
1.02924e-05
-0.000144634
8.48171e-05
4.55873e-05
-0.000128761
7.20317e-05
8.27794e-05
-7.95475e-05
4.92557e-05
0.000111445
-7.89767e-06
2.07625e-05
0.000122793
7.27486e-05
-8.1318e-06
0.000113839
0.000149867
-3.25592e-05
8.88909e-05
0.000213889
-4.93811e-05
5.71088e-05
0.000258426
-5.73308e-05
2.75642e-05
0.000279302
-5.63186e-05
5.21821e-06
0.000273784
-4.66466e-05
-9.81319e-06
0.000240615
-2.85963e-05
-2.03148e-05
0.000181114
-2.8191e-05
0.000100794
4.50061e-05
-0.00011611
-1.41187e-05
7.34113e-05
-9.59562e-05
-9.87862e-05
9.26118e-05
-7.052e-05
-0.00016089
9.90834e-05
-3.97913e-05
-0.000187961
9.20991e-05
-7.56921e-06
-0.000175369
7.36656e-05
1.85269e-05
-0.000126951
4.75168e-05
2.95601e-05
-5.30912e-05
1.80989e-05
1.94026e-05
3.25269e-05
-1.03264e-05
-1.13855e-05
0.000116302
-3.42223e-05
-5.46529e-05
0.000187069
-5.10064e-05
-9.81782e-05
0.000236956
-5.88e-05
-0.000131254
0.000261058
-5.62997e-05
-0.000148879
0.000256645
-4.29615e-05
-0.0001521
0.00022288
-1.94046e-05
-0.000145435
0.000161253
-0.000133347
7.68741e-05
4.36431e-05
-0.000199263
-5.82324e-05
7.99502e-05
-0.000162828
-0.000138412
0.000105486
-0.000124695
-0.000196761
0.000116219
-8.73788e-05
-0.000221478
0.000111675
-5.60712e-05
-0.000207783
9.43414e-05
-3.8414e-05
-0.000158918
6.81726e-05
-4.19435e-05
-8.46585e-05
3.72037e-05
-7.0093e-05
1.42484e-06
4.87277e-06
-0.000118859
8.51998e-05
-2.57125e-05
-0.000176883
0.00015463
-5.11658e-05
-0.000229829
0.000201444
-6.76595e-05
-0.000266339
0.000221123
-7.15172e-05
-0.0002817
0.000212116
-6.05095e-05
-0.000277543
0.000175015
-3.48339e-05
-0.000258979
0.000112382
-0.000231431
2.92704e-05
2.26294e-05
-0.000267369
-0.00011172
7.06926e-05
-0.000218693
-0.000179175
0.000108789
-0.000170277
-0.000225385
0.000131355
-0.000126547
-0.000240837
0.000136653
-9.41396e-05
-0.000221706
0.000126187
-8.11004e-05
-0.000171051
0.000103046
-9.4022e-05
-9.80022e-05
7.04469e-05
-0.000134162
-1.56687e-05
3.13707e-05
-0.000194757
6.18871e-05
-1.07116e-05
-0.000262183
0.000122678
-5.0536e-05
-0.000320863
0.000159037
-8.15568e-05
-0.000359859
0.00016783
-9.7271e-05
-0.000374852
0.000149498
-9.33617e-05
-0.000367715
0.000106749
-6.91872e-05
-0.000343215
4.38248e-05
-0.00030646
-3.34444e-05
-1.33789e-05
-0.000309144
-0.000166859
4.76422e-05
-0.000253728
-0.000215095
0.000101439
-0.000199224
-0.000242575
0.000140403
-0.000150749
-0.000243084
0.000160468
-0.00011603
-0.000214761
0.000160952
-0.000103768
-0.000161103
0.000143187
-0.000120279
-9.07602e-05
0.000109287
-0.000165532
-1.61061e-05
6.20297e-05
-0.00023093
4.95434e-05
6.0185e-06
-0.000301606
9.52822e-05
-5.07219e-05
-0.000362185
0.000114955
-9.89271e-05
-0.000402105
0.000107944
-0.000129263
-0.000418015
7.71496e-05
-0.000135266
-0.000411351
2.77011e-05
-0.000115354
-0.000386327
-3.42416e-05
-0.000346868
-0.000101518
-5.83072e-05
-0.000317158
-0.000215628
1.50257e-05
-0.000260865
-0.000240324
8.50818e-05
-0.000205009
-0.000245004
0.000142145
-0.000154272
-0.000226963
0.000179316
-0.000116892
-0.00018693
0.00019296
-0.000102275
-0.000129494
0.000181992
-0.000117046
-6.31948e-05
0.000147248
-0.000160794
2.97944e-07
9.15272e-05
-0.000224365
4.94452e-05
2.13363e-05
-0.000292644
7.49736e-05
-5.3001e-05
-0.000351035
7.36672e-05
-0.000118755
-0.000390308
4.78206e-05
-0.000163955
-0.000407633
3.03819e-06
-0.00018087
-0.00040442
-5.23283e-05
-0.000166764
-0.000383483
-0.000111288
-0.000347224
-0.000165219
-0.000105836
-0.000289439
-0.000250656
-2.18537e-05
-0.000237731
-0.000250232
6.32465e-05
-0.000184742
-0.000231069
0.000137918
-0.000134149
-0.000193509
0.000192371
-9.42299e-05
-0.000140979
0.000219684
-7.49532e-05
-7.96552e-05
0.00021599
-8.36399e-05
-1.84593e-05
0.000180563
-0.00012038
3.1858e-05
0.000116652
-0.000176357
6.12168e-05
3.27548e-05
-0.000237392
6.36056e-05
-5.77634e-05
-0.000290463
3.92253e-05
-0.000139466
-0.000327827
-6.10186e-06
-0.000198485
-0.000347347
-6.34893e-05
-0.000225619
-0.000349711
-0.000123465
-0.000217618
-0.000336573
-0.000177118
-0.000308558
-0.000215645
-0.000149872
-0.000230054
-0.000266366
-5.75555e-05
-0.000187545
-0.000242525
4.01762e-05
-0.000140524
-0.000201829
0.000130347
-9.18141e-05
-0.000146686
0.000200581
-4.94353e-05
-8.2812e-05
0.00024066
-2.37271e-05
-1.81885e-05
0.000243765
-2.29356e-05
3.74923e-05
0.000207667
-4.82425e-05
7.38973e-05
0.000136211
-9.21672e-05
8.29882e-05
4.01643e-05
-0.000142374
6.21957e-05
-6.41162e-05
-0.000187956
1.54715e-05
-0.000159091
-0.000223005
-4.71065e-05
-0.000229366
-0.000245577
-0.000114773
-0.000265035
-0.000255633
-0.000176283
-0.000262525
-0.000253371
-0.000222674
-0.000237639
-0.000245805
-0.0001848
-0.000148653
-0.000260043
-8.70846e-05
-0.000118834
-0.000218191
1.9828e-05
-7.97283e-05
-0.000161601
0.000122055
-3.37926e-05
-9.3589e-05
0.000205144
1.12113e-05
-2.13631e-05
0.000255845
4.48991e-05
4.55228e-05
0.00026458
5.79091e-05
9.61536e-05
0.000227729
4.74707e-05
0.000120285
0.000149928
1.88733e-05
0.000111638
4.43107e-05
-1.82238e-05
7.10422e-05
-7.03812e-05
-5.54877e-05
6.58523e-06
-0.000174739
-8.84414e-05
-6.92112e-05
-0.000252816
-0.000115336
-0.000142913
-0.000294522
-0.000135069
-0.000203005
-0.000296261
-0.00014612
-0.000241358
-0.000145584
-0.000251592
-0.000205819
-5.88781e-05
-0.000232523
-0.000106339
-4.39356e-05
-0.000181496
5.28625e-06
-1.3778e-05
-0.000117447
0.000114799
2.89633e-05
-4.35537e-05
0.000206262
7.70179e-05
3.25899e-05
0.000264327
0.000119791
0.000100374
0.000276946
0.000147131
0.000147734
0.000239466
0.000154174
0.000163744
0.000157389
0.000143168
0.000143302
4.59082e-05
0.000120401
8.98977e-05
-7.44058e-05
9.15142e-05
1.46786e-05
-0.000183307
5.97442e-05
-6.74845e-05
-0.000264961
2.71353e-05
-0.000142274
-0.000309652
-3.90606e-06
-0.000198607
-0.000314048
-2.98254e-05
-0.000229932
-4.60768e-05
-0.000232212
-0.000209545
2.42302e-05
-0.00018809
-0.000112525
2.38104e-05
-0.000138939
-1.75442e-06
4.46366e-05
-7.75463e-05
0.00010885
8.37891e-05
-6.00303e-06
0.000202894
0.000134625
6.887e-05
0.000263755
0.000186869
0.000136189
0.000278056
0.000229562
0.000182922
0.000240522
0.000255449
0.000197305
0.000157404
0.000263115
0.000174097
4.52412e-05
0.000254973
0.000117973
-7.46352e-05
0.000233973
4.16877e-05
-0.00018221
0.000202511
-3.89824e-05
-0.00026256
0.000163329
-0.000109994
-0.000306907
0.000120477
-0.000161553
-0.000312257
7.94116e-05
-0.000188878
4.65117e-05
-0.000190064
-0.000194589
8.73827e-05
-0.000133857
-0.000104779
7.31251e-05
-9.79224e-05
-1.07466e-06
8.47082e-05
-4.911e-05
0.000103401
0.000119718
1.20858e-05
0.000192921
0.000172345
8.03685e-05
0.000251107
0.000232821
0.000145898
0.000264542
0.00028963
0.000195495
0.000228012
0.000333215
0.000216299
0.000148131
0.000358375
0.000201681
4.16287e-05
0.00036366
0.000155225
-7.07709e-05
0.000349608
8.89374e-05
-0.000170475
0.000318162
1.76461e-05
-0.000244249
0.000273045
-4.60118e-05
-0.00028464
0.000219897
-9.38355e-05
-0.000289239
0.000165864
-0.000122292
0.000118802
-0.000130401
-0.000162088
0.000121257
-7.83896e-05
-8.40204e-05
9.69588e-05
-6.51009e-05
6.28873e-06
0.000100608
-3.69457e-05
9.70989e-05
0.000131088
7.60182e-06
0.00017443
0.000183624
6.53699e-05
0.000223831
0.000248961
0.00012827
0.000233557
0.000315085
0.000184083
0.000199304
0.000370564
0.000219458
0.000127508
0.000407333
0.000225433
3.36265e-05
0.000421393
0.000201777
-6.37955e-05
0.000412119
0.000156411
-0.000148802
0.000381583
0.000100812
-0.000210637
0.000334216
4.55155e-05
-0.000243616
0.000276291
-2.12615e-06
-0.000245973
0.000215426
-3.83038e-05
0.000159992
-6.11919e-05
-0.000116028
-2.96662e-05
-5.33491e-05
-4.47343e-05
1.84559e-05
-4.17285e-05
8.914e-05
-1.681e-05
0.000146985
2.89362e-05
0.000180915
8.90538e-05
0.000182935
0.000152173
0.000151308
0.000204732
9.2442e-05
0.000235854
1.90348e-05
0.000241348
-5.47935e-05
0.000223852
-0.000117693
0.000189675
-0.000162535
0.000145727
-0.000185642
9.78913e-05
-0.000185514
5.06488e-05
8.07003e-06
-8.41947e-05
8.21757e-06
-3.5301e-06
-5.93221e-05
-4.99687e-05
-5.68675e-05
-3.04423e-05
-6.85984e-05
-8.24347e-05
-3.34867e-06
-4.28592e-05
-7.08056e-05
1.66901e-05
2.39392e-05
-2.33265e-05
2.60569e-05
0.000120638
4.88263e-05
2.32574e-05
0.000230295
0.000128961
9.15078e-06
0.000333894
0.000200488
-1.31481e-05
0.000414497
0.000251778
-3.91341e-05
0.000460706
0.000278373
-6.42005e-05
0.000467941
0.000281799
-8.52985e-05
0.000437793
0.000266363
-0.000100881
0.000375983
0.000235667
-0.000109924
0.00029083
0.000191265
-0.0001108
0.00019281
0.000133733
9.49927e-05
6.65333e-05
-7.45814e-06
-2.88909e-05
4.52664e-05
6.23799e-06
-7.6935e-05
-3.06295e-05
1.84613e-05
-9.12862e-05
-7.59601e-05
2.68346e-05
-6.70729e-05
-8.10827e-05
2.97406e-05
-7.07559e-06
-4.54406e-05
2.6629e-05
7.82948e-05
2.30025e-05
1.76514e-05
0.000173613
0.000110398
4.00967e-06
0.000261443
0.000200966
-1.182e-05
0.000326831
0.000280606
-2.65031e-05
0.000360696
0.000339398
-3.73401e-05
0.000361006
0.000372027
-4.3204e-05
0.000331113
0.000376499
-4.43354e-05
0.000276987
0.000352592
-4.12375e-05
0.000205311
0.000301519
-3.36752e-05
0.000123541
0.000226748
4.08676e-05
0.00013614
5.82739e-05
-8.87163e-05
6.12034e-05
6.67185e-05
-0.000120908
-3.02371e-05
6.91602e-05
-0.000126224
-8.99463e-05
6.47656e-05
-0.000100757
-0.000106555
5.44909e-05
-4.74152e-05
-7.81464e-05
4.0413e-05
2.43515e-05
-1.15263e-05
2.50037e-05
0.000100596
8.05287e-05
1.0514e-05
0.000166365
0.000182317
-1.00087e-06
0.000209726
0.000278486
-7.90191e-06
0.000225125
0.000356361
-9.31984e-06
0.000213911
0.000406939
-5.48164e-06
0.000181842
0.000424735
2.73813e-06
0.00013536
0.000407191
1.42452e-05
7.96014e-05
0.000354817
2.85277e-05
1.86844e-05
0.000271687
-4.24611e-05
0.000166838
0.000101316
-0.000162335
4.2745e-05
0.000111759
-0.000176367
-5.37701e-05
0.000112998
-0.000169453
-0.000118901
0.000104619
-0.000139962
-0.000140377
8.87905e-05
-9.15099e-05
-0.000115446
6.92944e-05
-3.29467e-05
-5.0157e-05
5.00087e-05
2.3544e-05
4.32459e-05
3.38613e-05
6.58023e-05
0.000149237
2.24662e-05
8.55441e-05
0.000251879
1.63742e-05
8.11002e-05
0.000337185
1.55592e-05
5.71544e-05
0.000394528
1.98951e-05
2.14715e-05
0.000417092
2.93323e-05
-1.91695e-05
0.000401738
4.36879e-05
-6.08811e-05
0.000349007
6.23721e-05
-0.000101961
0.000263215
-0.000140642
0.000152865
0.000115283
-0.000238411
-6.56378e-06
0.000133753
-0.000235638
-9.76114e-05
0.000141968
-0.00021607
-0.000158359
0.000138707
-0.000180875
-0.000177304
0.000125949
-0.000134832
-0.000151702
0.000107709
-8.65586e-05
-8.70658e-05
8.82054e-05
-4.66787e-05
5.06802e-06
7.03432e-05
-2.46085e-05
0.000109698
5.53439e-05
-2.51013e-05
0.000210845
4.33293e-05
-4.63474e-05
0.000294092
3.46326e-05
-8.10979e-05
0.000348393
3.06113e-05
-0.000120448
0.000367063
3.33691e-05
-0.00015767
0.000347858
4.45367e-05
-0.000189698
0.000292664
6.41286e-05
-0.000215894
0.000206723
-0.000236009
9.7891e-05
9.98611e-05
-0.000304604
-7.84645e-05
0.000129723
-0.00028901
-0.000155665
0.000150668
-0.000259183
-0.000203217
0.000159716
-0.00021831
-0.00021245
0.000157233
-0.000172361
-0.000181695
0.00014606
-0.000130144
-0.000116292
0.000129675
-0.000101296
-2.70008e-05
0.000110516
-9.30728e-05
7.19551e-05
8.95641e-05
-0.000107378
0.000165115
6.72616e-05
-0.000139776
0.00023841
4.52441e-05
-0.000181468
0.000281425
2.71709e-05
-0.000223338
0.000288794
1.77976e-05
-0.000259067
0.000260268
2.09067e-05
-0.000286025
0.000199967
3.76058e-05
-0.000303618
0.000114849
-0.000311672
1.29006e-05
5.96172e-05
-0.000349804
-0.000162311
0.000101562
-0.00032679
-0.00021926
0.000137871
-0.000291005
-0.000247063
0.000163354
-0.000246024
-0.000240853
0.000175786
-0.000198601
-0.000200953
0.000175695
-0.000158065
-0.000133092
0.000164921
-0.000133813
-4.74686e-05
0.000145051
-0.000131888
4.25788e-05
0.000117066
-0.000152405
0.000122556
8.2405e-05
-0.000189342
0.000179509
4.46319e-05
-0.000233448
0.000204709
1.00674e-05
-0.000276035
0.000195205
-1.3895e-05
-0.000311501
0.000153546
-2.1501e-05
-0.000337325
8.66073e-05
-1.03845e-05
-0.00035229
3.31444e-06
-0.000355423
-8.71165e-05
1.68928e-06
-0.000366637
-0.000245633
5.47881e-05
-0.000341884
-0.000278329
0.000106509
-0.000304942
-0.000282788
0.000149547
-0.000258167
-0.000257859
0.000178742
-0.000208464
-0.00020626
0.000191651
-0.000165813
-0.000134655
0.000187843
-0.000140069
-5.31302e-05
0.000167724
-0.00013715
2.56782e-05
0.000132511
-0.000156427
8.86815e-05
8.50659e-05
-0.000191592
0.000124669
3.14141e-05
-0.000233797
0.000127668
-1.94513e-05
-0.000275382
9.80338e-05
-5.8129e-05
-0.000311463
4.16779e-05
-7.68908e-05
-0.00033921
-3.16809e-05
-7.25656e-05
-0.00035682
-0.000111083
-0.00036175
-0.000186309
-6.54127e-05
-0.000352721
-0.000316059
-3.0052e-06
-0.000331473
-0.000323051
6.2441e-05
-0.000297587
-0.00030387
0.000121842
-0.000251139
-0.000259937
0.000167267
-0.000198699
-0.00019617
0.000193155
-0.000150859
-0.000120498
0.000196454
-0.000118431
-4.33967e-05
0.000176344
-0.000108087
2.29047e-05
0.000134175
-0.000119865
6.68244e-05
7.47031e-05
-0.000148043
7.95281e-05
6.46602e-06
-0.000184937
5.86023e-05
-5.89338e-05
-0.000224289
8.20469e-06
-0.000110405
-0.000261839
-6.16429e-05
-0.000139235
-0.000294481
-0.000139364
-0.000141301
-0.000319239
-0.000212633
-0.000331743
-0.000270054
-0.000132981
-0.00031075
-0.000362785
-6.34797e-05
-0.000297666
-0.000345833
1.29381e-05
-0.000269815
-0.000306018
8.59273e-05
-0.000225028
-0.000245787
0.000145305
-0.000169289
-0.0001716
0.000182631
-0.000113732
-9.26408e-05
0.000192285
-7.04092e-05
-2.01828e-05
0.000171991
-4.75919e-05
3.3696e-05
0.000123577
-4.69197e-05
5.84568e-05
5.37431e-05
-6.43567e-05
4.83429e-05
-2.65535e-05
-9.40092e-05
4.84045e-06
-0.000103644
-0.000130817
-6.34885e-05
-0.000165058
-0.000171158
-0.00014404
-0.000201562
-0.000211373
-0.000222887
-0.000208665
-0.000247152
-0.000287658
-0.000271877
-0.000326907
-0.000192193
-0.000247895
-0.000378415
-0.000118329
-0.000246801
-0.00034292
-3.45267e-05
-0.000226725
-0.000288495
4.81548e-05
-0.000184065
-0.000217234
0.000117942
-0.000124254
-0.000136184
0.00016409
-5.88481e-05
-5.5509e-05
0.000178631
-1.31154e-06
1.25151e-05
0.000157952
3.79203e-05
5.54513e-05
0.000104405
5.45464e-05
6.37188e-05
2.655e-05
5.0151e-05
3.43898e-05
-6.2341e-05
2.85495e-05
-2.70825e-05
-0.000147249
-6.50248e-06
-0.000108617
-0.000214942
-5.15011e-05
-0.000194877
-0.000256089
-0.000101939
-0.000271292
-0.000266321
-0.000151864
-0.000326414
-0.000192156
-0.000349924
-0.000234988
-0.000174422
-0.000360385
-0.000160051
-0.000188004
-0.00031523
-7.3185e-05
-0.0001765
-0.000254538
1.43571e-05
-0.000136005
-0.000179156
9.0017e-05
-7.14293e-05
-9.58951e-05
0.000141635
5.23335e-06
-1.53257e-05
0.000159151
7.95956e-05
4.93111e-05
0.000138119
0.000137948
8.47486e-05
8.12085e-05
0.000172834
8.19247e-05
-1.3801e-06
0.000182579
4.00584e-05
-9.46679e-05
0.000168767
-3.22513e-05
-0.000182803
0.000134155
-0.000120006
-0.000252561
8.25394e-05
-0.000206558
-0.000295017
1.96525e-05
-0.000277742
-0.000306308
-4.65253e-05
-0.00032398
-0.00010428
-0.000337019
-0.000254902
-0.000101935
-0.000311534
-0.000182694
-0.000131246
-0.000267905
-9.78147e-05
-0.000128517
-0.000210409
-1.11612e-05
-9.02629e-05
-0.000138399
6.52294e-05
-2.1157e-05
-5.77929e-05
0.000118079
6.74065e-05
2.11669e-05
0.000136771
0.000159228
8.45971e-05
0.000115786
0.000238154
0.000118085
5.81187e-05
0.000292536
0.000112063
-2.50009e-05
0.000316795
6.68765e-05
-0.00011764
0.000310124
-7.03007e-06
-0.000203911
0.000274642
-9.31979e-05
-0.000271263
0.000214934
-0.000175037
-0.000311719
0.000138403
-0.000239848
-0.000322128
5.52991e-05
-0.000280294
-2.01799e-05
-0.000290434
-0.000248004
-4.15948e-05
-0.000239591
-0.000182661
-8.55139e-05
-0.000208997
-0.000105241
-9.12092e-05
-0.000163838
-2.54701e-05
-5.57853e-05
-0.000102163
4.54064e-05
1.66525e-05
-2.83174e-05
9.52133e-05
0.000115218
4.8279e-05
0.000113156
0.000223025
0.000113755
9.32997e-05
0.000321651
0.000152658
3.82954e-05
0.000395244
0.000153977
-4.04981e-05
0.000433805
0.000117008
-0.00012712
0.000433737
5.19458e-05
-0.00020632
0.0003967
-2.5213e-05
-0.000266807
0.00032859
-9.91809e-05
-0.000302009
0.00023894
-0.000159171
-0.0003098
0.000140356
-0.000199557
4.89731e-05
-0.000215956
-0.000213801
-1.71421e-06
-0.000156053
-0.000159378
-5.676e-05
-0.000148278
-9.48692e-05
-6.97673e-05
-0.000122897
-2.84229e-05
-3.78539e-05
-7.67759e-05
3.06145e-05
3.54749e-05
-1.24898e-05
7.23038e-05
0.000139655
6.21431e-05
8.7331e-05
0.000258038
0.000134043
7.0023e-05
0.000370759
0.000187657
2.20947e-05
0.000458945
0.00020966
-4.64211e-05
0.000508858
0.00019524
-0.000120852
0.000514365
0.000150215
-0.000187412
0.000476748
8.73248e-05
-0.000236643
0.000403203
2.01336e-05
-0.000263837
0.00030502
-4.10128e-05
-0.000267982
0.000196306
-9.01096e-05
9.3967e-05
-0.000122583
-0.000156283
-7.44825e-05
-0.000116042
-9.6129e-05
-6.84575e-05
-9.5011e-05
-2.08084e-05
-6.68367e-05
1.9433e-05
-1.24126e-05
4.56318e-05
6.20912e-05
5.24453e-05
0.00014512
3.72394e-05
0.000220753
1.93893e-06
0.000273048
-4.63473e-05
0.000291625
-9.75825e-05
0.000275266
-0.000142719
0.000230952
-0.000175942
0.000169523
-0.000194438
0.000101581
-0.000197047
3.5368e-05
-2.20618e-05
-9.29665e-05
-8.17286e-05
-1.10777e-05
-9.37551e-05
-0.000171641
-6.90335e-05
-9.21663e-05
-0.000208094
-9.57499e-05
-8.963e-05
-0.000184648
-8.16671e-05
-8.69269e-05
-0.000104742
-2.88102e-05
-8.4309e-05
1.87952e-05
5.06621e-05
-8.2011e-05
0.000166026
0.000139096
-8.03187e-05
0.000313336
0.000218786
-7.94122e-05
0.000437424
0.000276443
-7.91832e-05
0.000519576
0.000305882
-7.9445e-05
0.000548813
0.000308005
-8.03288e-05
0.000522811
0.000288076
-8.23209e-05
0.000446659
0.00025157
-8.56004e-05
0.000331228
0.000201399
-8.89047e-05
0.000192082
0.000138231
4.90027e-05
6.51298e-05
6.92802e-06
-9.23443e-05
6.328e-05
-4.62018e-06
-0.000173268
-1.74538e-05
-1.89836e-05
-0.000206515
-6.31755e-05
-3.41046e-05
-0.00018587
-6.47398e-05
-4.70502e-05
-0.000114414
-2.28237e-05
-5.5248e-05
-3.51448e-06
5.35099e-05
-5.75675e-05
0.000128898
0.000149845
-5.46369e-05
0.000261764
0.000249607
-4.78261e-05
0.000373811
0.000337408
-3.83372e-05
0.000447815
0.00040167
-2.70213e-05
0.000473674
0.00043585
-1.50075e-05
0.000449405
0.000437891
-3.87303e-06
0.000380021
0.000408096
4.63151e-06
0.000275556
0.000348687
9.95169e-06
0.000149546
0.000263964
1.79125e-05
0.000162856
9.63327e-05
-0.000123495
0.000100409
7.99278e-05
-0.000189544
2.44378e-06
5.67359e-05
-0.000214921
-5.83483e-05
3.02875e-05
-0.000194603
-7.13742e-05
5.51983e-06
-0.000131586
-3.62062e-05
-1.26946e-05
-3.60411e-05
3.92148e-05
-2.12817e-05
7.64983e-05
0.000141515
-1.9502e-05
0.000187658
0.000254643
-8.70315e-06
0.000279302
0.000362196
8.68195e-06
0.000337139
0.000449653
2.98707e-05
0.000353514
0.00050591
5.1983e-05
0.000328106
0.000523921
7.21969e-05
0.00026637
0.000500628
8.81353e-05
0.000177196
0.000437239
9.85747e-05
7.1156e-05
0.000339638
-4.03362e-05
0.000219274
0.000160849
-0.000170976
9.4931e-05
0.000146144
-0.00021928