/*--------------------------------*- C++ -*----------------------------------*\
| =========                 |                                                 |
| \\      /  F ield         | OpenFOAM: The Open Source CFD Toolbox           |
|  \\    /   O peration     | Version:  3.0.0                                 |
|   \\  /    A nd           | Web:      www.OpenFOAM.org                      |
|    \\/     M anipulation  |                                                 |
\*---------------------------------------------------------------------------*/
FoamFile
{
    version     2.0;
    format      ascii;
    class       volVectorField;
    location    "1";
    object      U;
}
// * * * * * * * * * * * * * * * * * * * * * * * * * * * * * * * * * * * * * //

dimensions      [0 1 -1 0 0 0 0];

internalField   nonuniform List<vector> 
4096
(
(-0.0153383 0.0492609 0.00519712)
(-0.00157045 0.0502658 0.00032863)
(0.014424 0.0530568 -0.00313)
(0.0304562 0.0575248 -0.00392272)
(0.0434423 0.0628121 -0.0019384)
(0.0505793 0.0674255 0.00171078)
(0.0502383 0.0698602 0.00538282)
(0.0425951 0.0693609 0.0079506)
(0.0296291 0.0662167 0.00937109)
(0.0142984 0.0614848 0.0103649)
(-0.000606563 0.0564765 0.0116311)
(-0.0131696 0.0522715 0.0132933)
(-0.0223431 0.0494089 0.0148267)
(-0.027561 0.0478324 0.0153524)
(-0.0284009 0.0471405 0.0140353)
(-0.0243881 0.0469659 0.0104883)
(-0.00829059 0.0382995 -0.00457016)
(0.00284235 0.041185 -0.0154136)
(0.0148515 0.0446862 -0.0246697)
(0.0257765 0.0490128 -0.0301709)
(0.033263 0.0535497 -0.030956)
(0.0354509 0.0568883 -0.0275562)
(0.0316854 0.0574078 -0.0214956)
(0.0228782 0.0542101 -0.0143475)
(0.0112199 0.0477606 -0.00706716)
(-0.000720642 0.0398192 -8.21004e-06)
(-0.0109442 0.0326434 0.00657406)
(-0.0184034 0.0280248 0.0121483)
(-0.0227785 0.0266146 0.0158028)
(-0.02404 0.0278882 0.0164595)
(-0.0221219 0.0306655 0.0132683)
(-0.0168443 0.033866 0.006086)
(-0.00503246 0.0204178 -0.0146832)
(0.0049365 0.0265501 -0.0295095)
(0.0144432 0.0318431 -0.0427474)
(0.0217391 0.0365227 -0.0515284)
(0.0251617 0.0400139 -0.0542191)
(0.0237683 0.0409307 -0.0508981)
(0.0177255 0.0377301 -0.0430154)
(0.00834804 0.0298074 -0.032521)
(-0.00231098 0.0183122 -0.0211037)
(-0.0122144 0.00601661 -0.00997145)
(-0.019931 -0.00381249 -5.72984e-06)
(-0.0247523 -0.00878686 0.00790692)
(-0.0264903 -0.00826003 0.012734)
(-0.0252054 -0.00327609 0.0133787)
(-0.0210228 0.0041751 0.00899148)
(-0.0140566 0.0121548 -0.000514629)
(-0.00610801 -6.87134e-05 -0.0239558)
(0.00442662 0.0102455 -0.0405529)
(0.0135381 0.0183773 -0.0556493)
(0.0195349 0.0241665 -0.0659679)
(0.0211815 0.0268445 -0.0694352)
(0.0181532 0.0250368 -0.065823)
(0.0111157 0.0174811 -0.0565505)
(0.00150679 0.00418516 -0.0438853)
(-0.00890968 -0.012777 -0.0300868)
(-0.0185407 -0.0296097 -0.016923)
(-0.026198 -0.0421993 -0.00562004)
(-0.0310625 -0.0477793 0.0028844)
(-0.0326075 -0.0457729 0.00768643)
(-0.0305991 -0.0375939 0.00785459)
(-0.0251254 -0.0257661 0.00265105)
(-0.0164896 -0.0128762 -0.00797418)
(-0.0112016 -0.0206138 -0.0311072)
(0.00136808 -0.00600523 -0.0471908)
(0.0121014 0.00542208 -0.0618796)
(0.0191965 0.0128721 -0.0718739)
(0.0214926 0.0151938 -0.0749606)
(0.0188656 0.0109926 -0.0707386)
(0.0121011 -0.000603615 -0.0606038)
(0.00251667 -0.0188317 -0.047038)
(-0.00844097 -0.040664 -0.0326582)
(-0.0194208 -0.0614161 -0.0195102)
(-0.0291531 -0.0764071 -0.00886211)
(-0.0363604 -0.0827227 -0.00143838)
(-0.0398628 -0.079902 0.00217882)
(-0.0388809 -0.0695592 0.001368)
(-0.0332712 -0.0544384 -0.00438456)
(-0.0234067 -0.0374386 -0.0149796)
(-0.019237 -0.0382999 -0.0350637)
(-0.00375236 -0.0200608 -0.0484861)
(0.0100253 -0.00557356 -0.0606017)
(0.0200915 0.00372759 -0.0685056)
(0.0250268 0.00623514 -0.0701753)
(0.0245078 0.000461368 -0.0652064)
(0.0190961 -0.0141217 -0.0549549)
(0.0098092 -0.0360563 -0.0419536)
(-0.00220121 -0.0614925 -0.028905)
(-0.0156405 -0.0850835 -0.0178024)
(-0.0289033 -0.101861 -0.00964241)
(-0.0400188 -0.108922 -0.00472336)
(-0.0469841 -0.105934 -0.00317697)
(-0.0483573 -0.0945627 -0.00524031)
(-0.0436605 -0.0775335 -0.0111367)
(-0.0332124 -0.0577529 -0.0205473)
(-0.0287561 -0.0501782 -0.0351706)
(-0.0100489 -0.0295205 -0.0441355)
(0.00746001 -0.0127844 -0.051857)
(0.0216002 -0.0018526 -0.0561933)
(0.0304756 0.00125408 -0.0556339)
(0.0332571 -0.00510827 -0.0499522)
(0.0300203 -0.0212705 -0.040459)
(0.0213392 -0.0452833 -0.0295524)
(0.00808165 -0.0727196 -0.0197077)
(-0.0083923 -0.0978412 -0.0125165)
(-0.0259547 -0.115625 -0.0083896)
(-0.0417979 -0.123292 -0.00706098)
(-0.053038 -0.120625 -0.0081294)
(-0.0575593 -0.109242 -0.011434)
(-0.0545338 -0.091674 -0.0169077)
(-0.0441106 -0.0706198 -0.024062)
(-0.0382977 -0.0539949 -0.0312859)
(-0.0164833 -0.032398 -0.0345328)
(0.00486208 -0.0145373 -0.0365856)
(0.0234981 -0.00252756 -0.0363433)
(0.0369454 0.00133513 -0.0330378)
(0.0436995 -0.00476864 -0.0267978)
(0.0431683 -0.0211313 -0.0189093)
(0.0353647 -0.0455597 -0.0114709)
(0.020862 -0.0733388 -0.00641542)
(0.00117415 -0.098618 -0.004607)
(-0.0209202 -0.116521 -0.00565721)
(-0.0417129 -0.124506 -0.00858166)
(-0.0574748 -0.122449 -0.0124596)
(-0.0654525 -0.11184 -0.0167293)
(-0.0645048 -0.0949209 -0.0211289)
(-0.0545375 -0.0740597 -0.0251773)
(-0.0466058 -0.0487611 -0.0238576)
(-0.0220692 -0.0277111 -0.0208545)
(0.00282071 -0.00987918 -0.0167199)
(0.0258702 0.0025323 -0.0114484)
(0.0440139 0.00708658 -0.00520149)
(0.0549756 0.0018229 0.00139894)
(0.0573835 -0.0136168 0.00704856)
(0.0505996 -0.0370039 0.0100663)
(0.0349089 -0.0636028 0.00929696)
(0.0120713 -0.0877316 0.00486122)
(-0.014413 -0.104865 -0.00189209)
(-0.0399368 -0.112797 -0.00922896)
(-0.0600029 -0.111487 -0.0157331)
(-0.0713367 -0.102233 -0.0205477)
(-0.0725598 -0.0869318 -0.0233032)
(-0.063294 -0.067588 -0.0237855)
(-0.0526812 -0.0350631 -0.0139581)
(-0.0260357 -0.015852 -0.00503437)
(0.00184324 0.000983527 0.00497123)
(0.0288591 0.0132006 0.0150187)
(0.0514107 0.0182987 0.024041)
(0.0664426 0.0142287 0.0308348)
(0.0717285 0.00053 0.0339964)
(0.0659369 -0.0206631 0.0322903)
(0.0491075 -0.0448077 0.0254732)
(0.0233557 -0.066652 0.0147971)
(-0.0070511 -0.0822345 0.00256998)
(-0.0366949 -0.0897643 -0.00876838)
(-0.0604615 -0.0892817 -0.0173973)
(-0.0747137 -0.0818425 -0.0222697)
(-0.0779425 -0.0689507 -0.0230607)
(-0.069483 -0.0522396 -0.0200251)
(-0.0557678 -0.0150788 -0.00322508)
(-0.0278439 0.00131687 0.0103327)
(0.00220802 0.016473 0.0249448)
(0.0323812 0.0280752 0.0387913)
(0.0586446 0.0336141 0.0500646)
(0.0772143 0.030984 0.0569755)
(0.0850037 0.0196244 0.0579246)
(0.0800139 0.0015032 0.0520537)
(0.0621469 -0.0192013 0.0400024)
(0.0339648 -0.0378864 0.0240811)
(0.000472985 -0.0513328 0.00747574)
(-0.032268 -0.0582365 -0.00687202)
(-0.0587619 -0.0586878 -0.016843)
(-0.0752055 -0.0534637 -0.0213486)
(-0.0800533 -0.043618 -0.0202453)
(-0.0724164 -0.030392 -0.014359)
(-0.0554052 0.00774682 0.00646192)
(-0.027233 0.0207019 0.0224865)
(0.00390543 0.0337295 0.0395718)
(0.0360262 0.0444555 0.0555405)
(0.0648131 0.0504048 0.0681576)
(0.0858965 0.0494518 0.0751568)
(0.0954511 0.0409349 0.0746985)
(0.0909477 0.0265799 0.0661281)
(0.0723028 0.0100374 0.0507375)
(0.0425652 -0.0049197 0.0316107)
(0.00730901 -0.015909 0.012517)
(-0.0270485 -0.0221232 -0.00328318)
(-0.0549221 -0.0236597 -0.0136177)
(-0.072569 -0.0209706 -0.0175001)
(-0.0784785 -0.0146106 -0.01503)
(-0.0716438 -0.00541005 -0.00753605)
(-0.0515319 0.0294312 0.013458)
(-0.0242748 0.0386928 0.0292187)
(0.00660223 0.0492976 0.0460804)
(0.0390592 0.0589423 0.0619883)
(0.0686629 0.0652682 0.0746766)
(0.0906949 0.0661956 0.081682)
(0.100879 0.0609455 0.0809472)
(0.096456 0.0508777 0.071821)
(0.0775347 0.0389322 0.0558391)
(0.047579 0.0279351 0.0363779)
(0.0124111 0.0194366 0.0173566)
(-0.0216106 0.0138381 0.00201344)
(-0.0491718 0.0110849 -0.00763769)
(-0.0668071 0.0110954 -0.0108401)
(-0.0731073 0.0138249 -0.00793268)
(-0.06706 0.0188837 -0.000474858)
(-0.0445526 0.0462476 0.0167012)
(-0.0194046 0.0519769 0.0294034)
(0.00969581 0.0600299 0.0432927)
(0.0405972 0.0683932 0.0568653)
(0.068927 0.0749542 0.0682173)
(0.0899299 0.0777583 0.0750238)
(0.0993123 0.0758953 0.0751617)
(0.0945047 0.0702153 0.0678148)
(0.0759942 0.0627999 0.0543026)
(0.0474884 0.0555298 0.0377037)
(0.0146283 0.049267 0.0215487)
(-0.0167954 0.0441646 0.0086492)
(-0.0421271 0.0402845 0.000622681)
(-0.0583831 0.0378909 -0.00205865)
(-0.064307 0.03736 0.000145553)
(-0.0589942 0.0387231 0.0058102)
(-0.0353977 0.0553606 0.0158031)
(-0.0133653 0.058184 0.0231608)
(0.012512 0.0638043 0.0318553)
(0.0399774 0.0707433 0.0412114)
(0.0649006 0.0772644 0.0499944)
(0.0828336 0.0815727 0.0563021)
(0.0899432 0.0825607 0.0581213)
(0.0842845 0.0804576 0.0544031)
(0.0668695 0.0765035 0.045903)
(0.0414426 0.0718949 0.0348944)
(0.0130376 0.0671901 0.0240196)
(-0.0135853 0.0625497 0.015258)
(-0.0348008 0.0581769 0.0096238)
(-0.0483192 0.0544687 0.00728758)
(-0.0530954 0.0519242 0.00781628)
(-0.0483839 0.0507982 0.0102426)
(-0.0254505 0.0575281 0.0114529)
(-0.0070966 0.0586654 0.0122341)
(0.014552 0.0625012 0.0144403)
(0.0371782 0.0683046 0.018396)
(0.0570248 0.0747979 0.0236655)
(0.0702235 0.0802531 0.0288624)
(0.0738096 0.0831487 0.0321659)
(0.0668356 0.0829544 0.032366)
(0.0509627 0.0802476 0.0296493)
(0.0298073 0.0760804 0.0253744)
(0.00746526 0.0713754 0.0210843)
(-0.012679 0.0667523 0.017739)
(-0.0283146 0.0626029 0.0155407)
(-0.0380227 0.0591475 0.0141947)
(-0.0410305 0.0565334 0.0131977)
(-0.0367219 0.0548378 0.0120406)
(-0.0216049 0.0300006 0.00266025)
(-0.0108448 0.0228871 -0.00639063)
(0.0017471 0.0221445 -0.0112869)
(0.0146289 0.0282976 -0.0101901)
(0.0253699 0.0403382 -0.00314114)
(0.0318257 0.0558013 0.00790686)
(0.0326469 0.0714734 0.0199445)
(0.0276643 0.0844294 0.0302263)
(0.0180629 0.0927754 0.0372927)
(0.00601505 0.0958177 0.0410872)
(-0.0061622 0.0937954 0.0422452)
(-0.0167347 0.0874821 0.0412687)
(-0.0247152 0.0778522 0.0381917)
(-0.0295965 0.0659155 0.0327131)
(-0.0309971 0.0528022 0.02458)
(-0.0281503 0.0400136 0.0141658)
(-0.00749299 0.0203337 0.00188525)
(0.000760934 0.0151311 -0.0129183)
(0.00949397 0.0150953 -0.0232269)
(0.0173682 0.0209405 -0.0266578)
(0.0228145 0.0319513 -0.0225975)
(0.024651 0.0459965 -0.0123264)
(0.0223575 0.0600323 0.00156899)
(0.016315 0.0710738 0.0162219)
(0.00785157 0.0771801 0.0294152)
(-0.00117664 0.0779414 0.0398988)
(-0.00911354 0.0742117 0.0470555)
(-0.0149925 0.0673695 0.0504179)
(-0.018496 0.0586137 0.0494467)
(-0.019599 0.0487119 0.0436648)
(-0.018218 0.0382559 0.0330232)
(-0.0140244 0.0281866 0.0184158)
(0.00284981 0.00294001 -0.00290701)
(0.0101844 0.00132429 -0.0213831)
(0.0166441 0.00319398 -0.0352734)
(0.0210879 0.00926816 -0.0416937)
(0.0225983 0.0188702 -0.0395563)
(0.0208503 0.0299461 -0.0297631)
(0.0161233 0.0396577 -0.014718)
(0.00926426 0.0454422 0.00259134)
(0.00156141 0.0460873 0.019466)
(-0.00558505 0.0421814 0.0339176)
(-0.0110838 0.0356088 0.0446257)
(-0.0143625 0.0284271 0.0506218)
(-0.0152739 0.0218897 0.0510999)
(-0.0138784 0.0162064 0.0454708)
(-0.010247 0.0110271 0.033679)
(-0.00432428 0.00625506 0.0166752)
(0.0075432 -0.0184231 -0.0110299)
(0.0157116 -0.0155092 -0.0308225)
(0.0220491 -0.0106731 -0.0461174)
(0.0254511 -0.00358736 -0.0537834)
(0.025328 0.00492808 -0.0524422)
(0.0218907 0.0129058 -0.0427567)
(0.0159316 0.0178531 -0.027012)
(0.00853775 0.0178385 -0.00829426)
(0.000855767 0.0125514 0.0103607)
(-0.00609575 0.00362086 0.0265132)
(-0.0115219 -0.00614789 0.038481)
(-0.0148313 -0.0141535 0.0451592)
(-0.0155839 -0.0190962 0.0457966)
(-0.0135281 -0.0211422 0.0399358)
(-0.00866419 -0.0212999 0.027596)
(-0.00106518 -0.0205039 0.00965846)
(0.0061062 -0.040821 -0.0212379)
(0.0164501 -0.0333478 -0.0400353)
(0.0246639 -0.0251125 -0.0544943)
(0.0294317 -0.0164415 -0.0616086)
(0.0301382 -0.00846814 -0.0599394)
(0.0271149 -0.0031152 -0.0499894)
(0.0212845 -0.00247314 -0.0339173)
(0.0137248 -0.00774691 -0.0148414)
(0.00539 -0.0183166 0.00399416)
(-0.0029261 -0.0316292 0.019906)
(-0.0104098 -0.0442075 0.0311008)
(-0.0160795 -0.0531651 0.0366185)
(-0.0188759 -0.0572339 0.0360295)
(-0.0179796 -0.056789 0.0292418)
(-0.0131182 -0.053135 0.0165459)
(-0.0044039 -0.0476429 -0.00112013)
(-0.000722635 -0.0609647 -0.0320392)
(0.012463 -0.0497242 -0.0477898)
(0.0238915 -0.0384153 -0.0593509)
(0.0318714 -0.0279856 -0.0642141)
(0.0354275 -0.0199596 -0.0611493)
(0.0345997 -0.0163191 -0.0506151)
(0.0300862 -0.0188285 -0.0346404)
(0.0227495 -0.0280356 -0.0162874)
(0.0133446 -0.0425016 0.00115794)
(0.00262086 -0.0589594 0.0150037)
(-0.00832294 -0.0735124 0.023617)
(-0.0178707 -0.0832565 0.0264252)
(-0.0241863 -0.0870267 0.023506)
(-0.0257883 -0.0852916 0.0152733)
(-0.0220367 -0.0793672 0.00242493)
(-0.0130362 -0.0706851 -0.0138662)
(-0.0114878 -0.0756082 -0.0419108)
(0.00465905 -0.0619112 -0.0529538)
(0.0198611 -0.0484552 -0.0599407)
(0.0320894 -0.036536 -0.0611233)
(0.0397917 -0.0280219 -0.0557485)
(0.0423926 -0.0250422 -0.0443913)
(0.0400702 -0.0292015 -0.0289864)
(0.033305 -0.0405915 -0.0124534)
(0.0226577 -0.0571757 0.00207719)
(0.00901056 -0.075235 0.0121809)
(-0.00606757 -0.0907496 0.0166846)
(-0.0201995 -0.100934 0.0156)
(-0.0307273 -0.104804 0.00963668)
(-0.0355457 -0.102806 -0.000238926)
(-0.0336543 -0.0961161 -0.012878)
(-0.0250838 -0.0859474 -0.0267885)
(-0.0244923 -0.0822554 -0.0494115)
(-0.0055668 -0.0676165 -0.054609)
(0.0133636 -0.0532321 -0.055902)
(0.0301433 -0.0404073 -0.0524282)
(0.0425565 -0.0312165 -0.0441004)
(0.0492263 -0.0279753 -0.0317918)
(0.0496023 -0.0323042 -0.0174258)
(0.0436564 -0.0440875 -0.00371715)
(0.0317597 -0.0609831 0.0065656)
(0.0150224 -0.0790875 0.0115617)
(-0.00432627 -0.0945138 0.0108218)
(-0.0231005 -0.104711 0.0051098)
(-0.0378989 -0.108892 -0.00418201)
(-0.0460922 -0.107444 -0.0155453)
(-0.0464193 -0.101281 -0.0274515)
(-0.0386829 -0.0912383 -0.0381709)
(-0.0380353 -0.0796767 -0.0533567)
(-0.0166585 -0.0655733 -0.0522588)
(0.0055777 -0.0514491 -0.0474617)
(0.0266763 -0.0383856 -0.0389507)
(0.0437744 -0.0285154 -0.0274026)
(0.054634 -0.0243217 -0.0141403)
(0.057864 -0.0275701 -0.00119358)
(0.0528232 -0.0381735 0.00894545)
(0.0397116 -0.0537707 0.0140644)
(0.0199863 -0.0705536 0.0131093)
(-0.00338856 -0.0849485 0.00656491)
(-0.02643 -0.094777 -0.00395978)
(-0.045134 -0.0994174 -0.0164058)
(-0.0564673 -0.0991531 -0.0287961)
(-0.0589964 -0.094575 -0.0394056)
(-0.0521708 -0.0860655 -0.0464777)
(-0.0504644 -0.0681649 -0.0530373)
(-0.0271013 -0.0558934 -0.0460369)
(-0.00221696 -0.0429716 -0.0355942)
(0.022593 -0.0302119 -0.0223873)
(0.0439016 -0.019705 -0.00779934)
(0.0586509 -0.014057 0.00630496)
(0.0645743 -0.0152492 0.0176629)
(0.0603767 -0.0234107 0.0239683)
(0.0461143 -0.0364046 0.023652)
(0.0236768 -0.050787 0.0166507)
(-0.00320062 -0.0634703 0.0044844)
(-0.0298257 -0.0727124 -0.0104076)
(-0.0517335 -0.0780106 -0.0253891)
(-0.0656501 -0.0794684 -0.0381813)
(-0.0700998 -0.077336 -0.0470573)
(-0.0640497 -0.0715265 -0.0505223)
(-0.0601998 -0.0495317 -0.0484234)
(-0.0355253 -0.0401308 -0.036861)
(-0.00884387 -0.0290355 -0.0221206)
(0.0187594 -0.0168984 -0.00531171)
(0.0434278 -0.00572965 0.0116653)
(0.0614021 0.00177455 0.0264171)
(0.0695909 0.00340171 0.0363462)
(0.066066 -0.0013361 0.039221)
(0.0507859 -0.0107562 0.0340835)
(0.0261271 -0.0220034 0.0218651)
(-0.00346042 -0.0326055 0.00508241)
(-0.0327006 -0.0412485 -0.0130922)
(-0.0568398 -0.047487 -0.0296337)
(-0.0725567 -0.0511939 -0.0421697)
(-0.0784349 -0.0522135 -0.0491767)
(-0.0729432 -0.050002 -0.0496689)
(-0.0658461 -0.0268387 -0.0402231)
(-0.040795 -0.0210408 -0.0263216)
(-0.0133574 -0.0121282 -0.00944497)
(0.0158151 -0.000754623 0.00918929)
(0.0426053 0.0111571 0.0274596)
(0.0627688 0.0208807 0.0425941)
(0.072553 0.0259481 0.0516363)
(0.0694782 0.025398 0.0522514)
(0.0534665 0.0202423 0.0439039)
(0.027361 0.0125554 0.0283056)
(-0.00379706 0.00412606 0.00874968)
(-0.0343707 -0.00408622 -0.0110807)
(-0.0595439 -0.0116243 -0.028005)
(-0.0761053 -0.0180537 -0.03977)
(-0.0827758 -0.0227534 -0.0452068)
(-0.0776627 -0.0247322 -0.0439375)
(-0.0663992 -0.00383997 -0.0297533)
(-0.0421248 -0.00200994 -0.01632)
(-0.0151629 0.00452376 1.90988e-05)
(0.0140344 0.0150426 0.0182554)
(0.0413356 0.027741 0.0364)
(0.0622835 0.0399359 0.0515738)
(0.0727375 0.0489097 0.0605322)
(0.0698869 0.0531215 0.060729)
(0.0536625 0.0527038 0.0516752)
(0.0272555 0.048785 0.035422)
(-0.00396035 0.0424517 0.0156264)
(-0.0342825 0.0343961 -0.0038605)
(-0.0590787 0.0252074 -0.019966)
(-0.075406 0.015711 -0.0307298)
(-0.0821621 0.0070525 -0.0353761)
(-0.0773533 0.000662745 -0.0339998)
(-0.0614587 0.0156233 -0.018709)
(-0.0392194 0.013596 -0.00862476)
(-0.0141056 0.0177016 0.004483)
(0.0133531 0.0272348 0.020071)
(0.0392468 0.0405727 0.036573)
(0.0592623 0.0551376 0.0513648)
(0.0692704 0.0680435 0.0611593)
(0.0664341 0.0771322 0.0631325)
(0.0507401 0.0815425 0.0564438)
(0.0254883 0.0813594 0.0428396)
(-0.00398291 0.0769753 0.0257183)
(-0.0322537 0.0689061 0.00863567)
(-0.0551234 0.0579764 -0.00568576)
(-0.070051 0.0454609 -0.0156439)
(-0.0761453 0.0330277 -0.020713)
(-0.0716447 0.0225237 -0.0211299)
(-0.0514146 0.0283036 -0.00885844)
(-0.0323311 0.0231012 -0.00448578)
(-0.010428 0.0249266 0.00323574)
(0.0134836 0.0332958 0.0143903)
(0.0359404 0.0468214 0.0280417)
(0.0531332 0.0630437 0.0420626)
(0.0614331 0.0789505 0.0534097)
(0.0583786 0.0918702 0.0591045)
(0.0440696 0.100099 0.0576843)
(0.0216025 0.102883 0.0499417)
(-0.00416591 0.10012 0.0382639)
(-0.0284767 0.0922536 0.0253537)
(-0.047818 0.0803164 0.0133674)
(-0.0601952 0.0658709 0.00365148)
(-0.0649544 0.0508674 -0.00321902)
(-0.0608095 0.0374098 -0.0071866)
(-0.0374654 0.0335903 -0.00140326)
(-0.0223602 0.0263092 -0.00407865)
(-0.00477301 0.0263153 -0.00290485)
(0.014095 0.0336072 0.00294311)
(0.0313016 0.0471566 0.0131531)
(0.0437854 0.0646856 0.0260467)
(0.0488814 0.082983 0.0388205)
(0.0450525 0.0987343 0.0484559)
(0.0328108 0.10941 0.0530398)
(0.0148697 0.113717 0.0524468)
(-0.00494118 0.111522 0.0478403)
(-0.0231263 0.103545 0.0406801)
(-0.037293 0.0910698 0.0321536)
(-0.0461638 0.0757392 0.0230999)
(-0.0492629 0.0594747 0.0141148)
(-0.0456967 0.0444126 0.00578573)
(-0.0243932 0.0046258 0.000167893)
(-0.0185738 -0.0113241 -0.0124044)
(-0.0115537 -0.0164644 -0.0186005)
(-0.0041324 -0.00946113 -0.0161009)
(0.00217281 0.0085934 -0.00513369)
(0.00619091 0.034304 0.0116682)
(0.00720302 0.0628556 0.0302973)
(0.00501952 0.0892762 0.0468145)
(0.000101398 0.10952 0.0585823)
(-0.00647492 0.121086 0.0647391)
(-0.0133947 0.123058 0.065763)
(-0.0195809 0.11579 0.0625742)
(-0.0244226 0.100496 0.0558262)
(-0.0276742 0.0790032 0.0457327)
(-0.0290724 0.0537851 0.0324009)
(-0.0274575 0.0282231 0.0166783)
(-0.00357443 -0.000729486 0.00867884)
(-2.66086e-05 -0.0147685 -0.00964575)
(0.00336983 -0.0192661 -0.0210166)
(0.0060917 -0.0130116 -0.0229044)
(0.00758333 0.00327412 -0.0149982)
(0.00760383 0.0269681 0.000844548)
(0.00608185 0.053962 0.0212636)
(0.00311737 0.0795068 0.0424257)
(-0.000847647 0.0992908 0.0610262)
(-0.00500482 0.110415 0.0748755)
(-0.00848017 0.111817 0.0828531)
(-0.0107232 0.104051 0.084489)
(-0.0116384 0.0886715 0.079606)
(-0.0113926 0.0677637 0.0683178)
(-0.0100326 0.0438298 0.0512881)
(-0.00703674 0.0199077 0.0302619)
(0.0135765 -0.0137228 0.00979271)
(0.0164978 -0.024255 -0.0123367)
(0.0178886 -0.0270181 -0.0273094)
(0.0175825 -0.0208296 -0.0321502)
(0.0155738 -0.00638566 -0.026158)
(0.0123213 0.0138148 -0.0108593)
(0.00844148 0.0359841 0.0106218)
(0.00451124 0.055933 0.0344398)
(0.00105162 0.0701553 0.0569272)
(-0.00144258 0.0767145 0.0751935)
(-0.0026018 0.0754903 0.0872837)
(-0.00231695 0.0676511 0.0920069)
(-0.000746261 0.0547968 0.0887335)
(0.0018179 0.0384361 0.0774079)
(0.00517565 0.0200315 0.058756)
(0.00969018 0.00139353 0.0346764)
(0.0240255 -0.0315057 0.00356348)
(0.0280288 -0.0374252 -0.0197844)
(0.029488 -0.0373155 -0.0360817)
(0.0284598 -0.0304167 -0.0421367)
(0.0251334 -0.0175288 -0.0370136)
(0.0203568 -0.000985309 -0.0220295)
(0.0151934 0.0158692 -0.000168089)
(0.0105314 0.0295459 0.0247274)
(0.00692538 0.037459 0.0487883)
(0.00462 0.03871 0.068758)
(0.00366686 0.0341245 0.0822979)
(0.00405776 0.0254913 0.0879769)
(0.00580794 0.0145264 0.0851161)
(0.00889166 0.00233661 0.0737235)
(0.0131884 -0.0104251 0.0545611)
(0.0191585 -0.0230012 0.0293721)
(0.0264562 -0.051465 -0.00884549)
(0.0326866 -0.0526718 -0.0308724)
(0.0361177 -0.0491845 -0.0460663)
(0.0366699 -0.0409513 -0.0514546)
(0.0343906 -0.0290283 -0.0460906)
(0.0301358 -0.0156234 -0.0311436)
(0.0250742 -0.0036275 -0.00941574)
(0.020164 0.00422393 0.0153368)
(0.0159037 0.00629434 0.0391797)
(0.012388 0.00265329 0.0586832)
(0.00961477 -0.00510213 0.0713918)
(0.00781709 -0.0147683 0.0759477)
(0.00753182 -0.0245822 0.0719569)
(0.00929375 -0.0336866 0.0597994)
(0.0132848 -0.0418596 0.0405024)
(0.0200742 -0.0489607 0.0157153)
(0.0211922 -0.0704322 -0.0254854)
(0.0300286 -0.0677197 -0.0440496)
(0.0366737 -0.0611559 -0.0559526)
(0.0405473 -0.0513654 -0.0588704)
(0.0412551 -0.039737 -0.0521222)
(0.0392784 -0.0284717 -0.0368289)
(0.0355499 -0.0201136 -0.0155996)
(0.0308891 -0.0167393 0.00798147)
(0.0256977 -0.01914 0.0300491)
(0.0200524 -0.0264475 0.0472049)
(0.0141425 -0.0365348 0.0571282)
(0.00868966 -0.0470385 0.0588042)
(0.00491487 -0.0562654 0.0523619)
(0.00401224 -0.0635088 0.0387591)
(0.00658295 -0.068665 0.0194817)
(0.0132113 -0.0717815 -0.00368197)
(0.00961608 -0.0852335 -0.0438972)
(0.020947 -0.079914 -0.0573767)
(0.0312562 -0.071223 -0.0643233)
(0.0393661 -0.0601204 -0.0633144)
(0.0442589 -0.048269 -0.054179)
(0.0457469 -0.037972 -0.038142)
(0.0442382 -0.0316128 -0.0176726)
(0.0402327 -0.0308241 0.00386116)
(0.0340171 -0.0357871 0.022797)
(0.0257893 -0.0450904 0.0359968)
(0.0161292 -0.0563584 0.041528)
(0.00639336 -0.0672729 0.0389947)
(-0.00149276 -0.0763008 0.0292117)
(-0.00572019 -0.0827997 0.0138164)
(-0.00526697 -0.0865723 -0.00517264)
(0.000397186 -0.0875479 -0.025636)
(-0.00639526 -0.0934305 -0.0614139)
(0.00718113 -0.0869852 -0.0687563)
(0.0209988 -0.0774178 -0.0697829)
(0.0334994 -0.0655617 -0.0639737)
(0.0429962 -0.053199 -0.0517946)
(0.0484857 -0.0427947 -0.0347305)
(0.0496592 -0.0367716 -0.0152212)
(0.0465534 -0.0365935 0.00356705)
(0.0393251 -0.0421187 0.0182871)
(0.0283982 -0.0516981 0.0262875)
(0.0148997 -0.0629637 0.0263198)
(0.000886057 -0.0738011 0.0187812)
(-0.0110817 -0.0828726 0.00531188)
(-0.0186854 -0.0895116 -0.0117957)
(-0.0205819 -0.0933528 -0.0300144)
(-0.0162097 -0.0939953 -0.0468614)
(-0.0247345 -0.0937823 -0.0754398)
(-0.00912664 -0.0876295 -0.0762752)
(0.00768278 -0.078384 -0.0712282)
(0.0241786 -0.0663851 -0.0604699)
(0.0380604 -0.0533746 -0.0450863)
(0.0475042 -0.0419857 -0.0269273)
(0.0514054 -0.0348363 -0.00853734)
(0.0492595 -0.033483 0.00705337)
(0.0410701 -0.0377837 0.0169073)
(0.0275558 -0.0461355 0.0190294)
(0.0104842 -0.056386 0.0130731)
(-0.00738841 -0.0667474 0.000382714)
(-0.022946 -0.0760652 -0.0165609)
(-0.0335407 -0.0836001 -0.0348533)
(-0.0376461 -0.0887569 -0.0516858)
(-0.0344057 -0.0906734 -0.0643405)
(-0.0431132 -0.0863791 -0.0838039)
(-0.0257163 -0.0817824 -0.0785981)
(-0.00664448 -0.07378 -0.0681761)
(0.0130938 -0.0620873 -0.0530798)
(0.0306865 -0.0483095 -0.0348708)
(0.0435916 -0.0352295 -0.0157883)
(0.0499377 -0.0257564 0.00140515)
(0.0486357 -0.0217626 0.0137228)
(0.0395429 -0.0234031 0.0186273)
(0.0237386 -0.0293798 0.0149131)
(0.00362972 -0.0379337 0.00325049)
(-0.0173897 -0.0476244 -0.0140349)
(-0.035767 -0.0574654 -0.0336823)
(-0.0486707 -0.0666144 -0.052375)
(-0.0545452 -0.0741599 -0.0672635)
(-0.0519753 -0.078689 -0.075685)
(-0.0591328 -0.0725402 -0.0851407)
(-0.0403974 -0.0705776 -0.0752982)
(-0.0199393 -0.0643962 -0.0610094)
(0.00203618 -0.0532156 -0.0428703)
(0.0223429 -0.0384861 -0.0226909)
(0.0378919 -0.0231183 -0.00303653)
(0.0461532 -0.0103625 0.013045)
(0.0454799 -0.00260548 0.0224883)
(0.0355983 -0.00052747 0.023086)
(0.0179566 -0.00337828 0.014411)
(-0.00441502 -0.00990751 -0.00187279)
(-0.0276103 -0.0190088 -0.0225158)
(-0.0478199 -0.0297968 -0.043697)
(-0.0621578 -0.0412545 -0.0619371)
(-0.0691746 -0.0520889 -0.0746139)
(-0.0667498 -0.0602588 -0.0794304)
(-0.0704928 -0.0545446 -0.0791771)
(-0.0512115 -0.0560538 -0.066979)
(-0.0303626 -0.0519888 -0.0509803)
(-0.0073652 -0.0413474 -0.031593)
(0.0143981 -0.0254489 -0.0106307)
(0.0315274 -0.00729278 0.00917358)
(0.0410051 0.00947232 0.0244724)
(0.0407166 0.021836 0.0320022)
(0.0302866 0.0283434 0.0297209)
(0.0114797 0.0290127 0.0178091)
(-0.0121573 0.0245389 -0.00124163)
(-0.0363642 0.0157276 -0.0235081)
(-0.0572479 0.0034787 -0.0448783)
(-0.0720245 -0.0109258 -0.0619839)
(-0.0794503 -0.0257261 -0.072651)
(-0.0767885 -0.0382165 -0.075159)
(-0.0753205 -0.0352296 -0.0668139)
(-0.0566136 -0.040713 -0.0551122)
(-0.0364729 -0.0388813 -0.0399097)
(-0.0138558 -0.0287704 -0.0212946)
(0.00789065 -0.0116068 -0.000855598)
(0.02531 0.00962002 0.0186945)
(0.0351861 0.0308955 0.0338087)
(0.0350991 0.0484745 0.0409314)
(0.0245373 0.059905 0.0379167)
(0.00548652 0.0642849 0.0252335)
(-0.018183 0.0617154 0.00583933)
(-0.0420644 0.0527964 -0.0160314)
(-0.0623652 0.0385713 -0.0363087)
(-0.0765482 0.0207081 -0.0519828)
(-0.0836257 0.0015398 -0.0614048)
(-0.0805937 -0.0155799 -0.0634398)
(-0.0725197 -0.0176161 -0.0499951)
(-0.0556673 -0.0271016 -0.0417128)
(-0.0374 -0.0275026 -0.0297456)
(-0.0167158 -0.0180098 -0.0138202)
(0.00336568 0.000255774 0.00487841)
(0.0196767 0.0243797 0.0238829)
(0.0290938 0.0501294 0.0396349)
(0.0291063 0.073027 0.0482999)
(0.0190484 0.0895298 0.0473516)
(0.000881209 0.0976488 0.0369798)
(-0.0214612 0.0968249 0.0200149)
(-0.0436255 0.0875276 0.000513285)
(-0.0620718 0.0710794 -0.0178045)
(-0.0746287 0.049651 -0.0323794)
(-0.0806115 0.0261988 -0.041944)
(-0.0772871 0.004641 -0.0457006)
(-0.062043 -0.00446173 -0.0313966)
(-0.0482427 -0.017399 -0.0289888)
(-0.0329894 -0.0199033 -0.0222342)
(-0.0157585 -0.0112189 -0.0104644)
(0.000947899 0.00763431 0.00562973)
(0.0145563 0.0337756 0.0240116)
(0.022475 0.0628459 0.041362)
(0.0224638 0.0898931 0.0537805)
(0.013734 0.110511 0.0581493)
(-0.00211101 0.121755 0.0536298)
(-0.0214887 0.122456 0.0419527)
(-0.0403759 0.113002 0.0263183)
(-0.0556534 0.0950132 0.00995359)
(-0.0656396 0.0710678 -0.00475007)
(-0.0699728 0.0445205 -0.0164344)
(-0.0666447 0.0195724 -0.024179)
(-0.0450708 0.00338847 -0.0139188)
(-0.0352427 -0.011817 -0.0189643)
(-0.0238864 -0.0159567 -0.0185632)
(-0.011316 -0.00827382 -0.011614)
(0.000396363 0.0105212 0.00166991)
(0.00938336 0.0379913 0.0196602)
(0.0140363 0.0700023 0.0393222)
(0.0131247 0.101236 0.0566862)
(0.00636037 0.126235 0.0680698)
(-0.00503085 0.14076 0.0714577)
(-0.0185482 0.142799 0.0670454)
(-0.0314694 0.132684 0.0566295)
(-0.0418008 0.112577 0.0425712)
(-0.0485631 0.0857789 0.0270537)
(-0.0514743 0.0562525 0.0117837)
(-0.0490363 0.02847 -0.00170661)
(-0.0233068 -0.0217818 -0.00201476)
(-0.0238223 -0.0460437 -0.0166524)
(-0.0238941 -0.0558448 -0.0234845)
(-0.0234293 -0.0491083 -0.0200084)
(-0.0227612 -0.0270216 -0.00667461)
(-0.0219724 0.00627102 0.0134446)
(-0.0211586 0.044757 0.0358172)
(-0.020497 0.0819946 0.0559078)
(-0.0201428 0.112342 0.0703964)
(-0.020111 0.131839 0.0778408)
(-0.0202813 0.138506 0.0785466)
(-0.0205495 0.132109 0.0737837)
(-0.0209618 0.113706 0.0647632)
(-0.0216886 0.0854103 0.052091)
(-0.0226449 0.0505255 0.0359751)
(-0.0223249 0.0139459 0.0173484)
(0.00317767 -0.0205955 0.0143638)
(0.000670548 -0.0427786 -0.00609099)
(-0.00285956 -0.0518804 -0.0178853)
(-0.00685492 -0.046397 -0.0185686)
(-0.0106561 -0.0270886 -0.00817725)
(-0.0134541 0.0031388 0.0110411)
(-0.0147519 0.0396424 0.0353622)
(-0.0145586 0.0766681 0.0605115)
(-0.0132281 0.108274 0.08258)
(-0.0111299 0.129462 0.0987143)
(-0.00848136 0.137166 0.107351)
(-0.00546898 0.13065 0.107972)
(-0.00242799 0.111272 0.100621)
(0.000139083 0.0819777 0.0858015)
(0.00191986 0.0468499 0.0646084)
(0.00362905 0.0107345 0.0393184)
(0.0262144 -0.0262877 0.0213255)
(0.023336 -0.0454169 -0.00329362)
(0.0179045 -0.0531725 -0.0188367)
(0.0111969 -0.0481038 -0.0224583)
(0.00428678 -0.0309569 -0.0138784)
(-0.00146372 -0.00447154 0.00495026)
(-0.00497032 0.0271222 0.0305854)
(-0.00577532 0.0587353 0.0588412)
(-0.00404023 0.0852749 0.085524)
(-0.000316552 0.102608 0.107045)
(0.004718 0.108354 0.120775)
(0.0103691 0.102151 0.125114)
(0.0159299 0.0853235 0.119393)
(0.0206723 0.0603251 0.103913)
(0.0240752 0.0302837 0.0800443)
(0.026938 -0.00126251 0.0505105)
(0.0419718 -0.036816 0.0179961)
(0.0403506 -0.0515205 -0.0080135)
(0.0349452 -0.056703 -0.0250104)
(0.0276798 -0.0513305 -0.0299189)
(0.0196965 -0.0361948 -0.0222626)
(0.0125942 -0.0137694 -0.0038175)
(0.0078294 0.0122347 0.0221291)
(0.00621587 0.0374801 0.0514687)
(0.0077775 0.0577896 0.079909)
(0.0118723 0.0699948 0.10355)
(0.0175094 0.0725707 0.119304)
(0.0236995 0.065729 0.125127)
(0.0296861 0.0509421 0.120103)
(0.0348832 0.0303021 0.104504)
(0.038813 0.00607833 0.0797764)
(0.0427553 -0.0193411 0.048541)
(0.0483038 -0.0506985 0.0050974)
(0.0488914 -0.0606855 -0.0195005)
(0.04534 -0.0626691 -0.0353637)
(0.0396991 -0.0563178 -0.03965)
(0.032868 -0.0425963 -0.0318961)
(0.0263479 -0.0237625 -0.0137524)
(0.0216614 -0.00302613 0.0116861)
(0.0197587 0.0160205 0.0404663)
(0.0207485 0.0301265 0.0683651)
(0.023949 0.0370953 0.0914261)
(0.0282735 0.0362333 0.106461)
(0.0327691 0.028283 0.111419)
(0.0369922 0.0148662 0.105558)
(0.0408238 -0.00217227 0.0894611)
(0.0440794 -0.0211261 0.0647931)
(0.0484582 -0.0403299 0.0339353)
(0.0449517 -0.0654883 -0.0152304)
(0.047874 -0.0714796 -0.0361534)
(0.0474285 -0.0704501 -0.0485624)
(0.0451168 -0.062791 -0.0503538)
(0.0413162 -0.0497245 -0.0413495)
(0.0370831 -0.0334279 -0.0231616)
(0.0336966 -0.0167574 0.00131821)
(0.0320376 -0.00267769 0.0283701)
(0.0322362 0.00637981 0.0539609)
(0.0336647 0.00907907 0.0742837)
(0.0353562 0.00540293 0.0863374)
(0.0366516 -0.00355663 0.0883976)
(0.0376077 -0.0161462 0.0802194)
(0.0387001 -0.0307084 0.0629578)
(0.0402004 -0.045794 0.0386941)
(0.0439153 -0.0600294 0.00973803)
(0.0330583 -0.0784574 -0.0398144)
(0.0379918 -0.0817537 -0.0554549)
(0.0411535 -0.0785974 -0.0627206)
(0.0430813 -0.0697707 -0.0605385)
(0.0434806 -0.0567095 -0.0492428)