/*--------------------------------*- C++ -*----------------------------------*\
| =========                 |                                                 |
| \\      /  F ield         | OpenFOAM: The Open Source CFD Toolbox           |
|  \\    /   O peration     | Version:  3.0.0                                 |
|   \\  /    A nd           | Web:      www.OpenFOAM.org                      |
|    \\/     M anipulation  |                                                 |
\*---------------------------------------------------------------------------*/
FoamFile
{
    version     2.0;
    format      ascii;
    class       volScalarField;
    location    "5";
    object      k;
}
// * * * * * * * * * * * * * * * * * * * * * * * * * * * * * * * * * * * * * //

dimensions      [0 2 -2 0 0 0 0];

internalField   nonuniform List<scalar> 
400
(
6.8732e-07
1.16955e-06
2.906e-06
2.60376e-05
0.000145992
0.000354165
0.000467899
0.000534656
0.000560612
0.000567918
0.000548167
0.000512935
0.000466804
0.000413893
0.000361413
0.000303059
0.000251038
0.000194574
0.000132304
7.86955e-05
1.91636e-06
5.5775e-06
2.27597e-05
8.18629e-05
0.000187909
0.000253155
0.000277162
0.000285249
0.000288238
0.000295347
0.000307723
0.000331496
0.000360999
0.000390707
0.000421306
0.000439489
0.000446387
0.000447464
0.000404421
0.000374234
3.80376e-06
2.58938e-05
7.37679e-05
0.000139149
0.000204311
0.000245627
0.000267217
0.00029483
0.000326052
0.000367469
0.00039852
0.000430798
0.000455831
0.000493961
0.000533849
0.000583358
0.000615637
0.000625395
0.000652745
0.000768249
1.4865e-05
6.06505e-05
0.000108154
0.000164347
0.000218268
0.000259796
0.000301085
0.000356901
0.000383961
0.000401157
0.000415759
0.000432157
0.000455715
0.000495972
0.000548799
0.000616552
0.000704831
0.000749551
0.000776031
0.00102582
3.73506e-05
8.16206e-05
0.000128891
0.000184809
0.000245797
0.000298993
0.000344166
0.000362796
0.000367623
0.000356766
0.000337537
0.000331265
0.000341422
0.000395461
0.000480042
0.000590248
0.000731607
0.000850169
0.000900144
0.0012245
6.0002e-05
9.50009e-05
0.000143763
0.000207477
0.00027607
0.000326395
0.00034695
0.000350662
0.000322617
0.000266742
0.000234734
0.000223788
0.000225134
0.000272438
0.000362797
0.00050265
0.000717943
0.000917289
0.00100613
0.00137655
9.07192e-05
9.94667e-05
0.000154941
0.000223152
0.000299106
0.000334093
0.000342974
0.000328997
0.000274043
0.000203476
0.000167779
0.000156
0.000156441
0.000193581
0.000266665
0.000404506
0.000651329
0.000951722
0.00111633
0.00150732
0.000121967
9.86883e-05
0.000158277
0.000236439
0.000308791
0.000334885
0.000338041
0.000311241
0.000247533
0.000173644
0.000134169
0.000120919
0.000119881
0.000145234
0.000203098
0.000331577
0.00059486
0.00096578
0.00122353
0.00162023
0.00015493
9.63916e-05
0.000156186
0.000235886
0.000309964
0.000334232
0.000333615
0.000301644
0.000239657
0.000168402
0.000120579
0.000103797
0.000102343
0.00012122
0.000168927
0.000281299
0.000536762
0.000969345
0.00133172
0.00172882
0.000188625
9.0393e-05
0.00015066
0.000231245
0.000307942
0.000333667
0.000331709
0.000299467
0.000244125
0.000178275
0.000124924
9.96716e-05
9.77337e-05
0.000113996
0.000155629
0.00025809
0.000493547
0.000963959
0.00144172
0.00183566
0.000215692
8.91624e-05
0.000139266
0.00021992
0.000300485
0.000330044
0.000327539
0.000302498
0.000254172
0.000197303
0.000143117
0.000109679
0.000103054
0.000114754
0.000152919
0.000249467
0.000457949
0.000950968
0.0015457
0.00195052
0.00022825
9.09033e-05
0.000122276
0.000200968
0.000286854
0.000321765
0.000321969
0.000306071
0.00026926
0.000222022
0.000174012
0.000136978
0.000124363
0.000133482
0.000165112
0.000248853
0.000439818
0.000937282
0.00164812
0.00207818
0.000221597
9.56305e-05
0.000108686
0.000171333
0.000257691
0.00030248
0.000309186
0.000302798
0.000283183
0.000248081
0.000210249
0.00017594
0.000158141
0.000164815
0.000191481
0.000263497
0.000430819
0.000921035
0.00173902
0.00222954
0.000197993
9.56303e-05
9.92087e-05
0.000138096
0.000227478
0.000280821
0.000294854
0.000293109
0.000283138
0.000263828
0.000240033
0.000216278
0.000198057
0.000202039
0.000220584
0.000279619
0.000427995
0.000914637
0.00183965
0.0024147
0.000143783
8.98783e-05
9.07124e-05
0.000109686
0.000169812
0.000232606
0.000261678
0.000270168
0.000269874
0.000264151
0.000252828
0.000241786
0.000229162
0.000231978
0.000246175
0.000298071
0.000433858
0.000917203
0.00195535
0.00265348
6.79867e-05
7.34307e-05
8.01907e-05
9.64376e-05
0.000135049
0.000195416
0.000229502
0.000243836
0.000248831
0.000249801
0.000247458
0.000245483
0.000240398
0.000243598
0.000259297
0.000316043
0.00045949
0.00096736
0.00211449
0.00296887
1.60061e-05
3.93823e-05
5.54226e-05
6.89474e-05
8.82197e-05
0.000123957
0.000157864
0.000179205
0.000192141
0.000200592
0.000206843
0.000216161
0.000224589
0.000242736
0.000279511
0.000368108
0.00054982
0.00110065
0.00235936
0.00341226
2.11973e-05
3.73618e-05
5.59541e-05
7.153e-05
8.92759e-05
0.000115692
0.000139336
0.000162207
0.000177547
0.0002007
0.000219003
0.00025113
0.000285163
0.00034812
0.00043196
0.00061801
0.000874869
0.0015109
0.00291558
0.00409332
0.000128496
0.000311415
0.00038438
0.000430325
0.000466499
0.000511973
0.000563558
0.000633126
0.00070429
0.000807264
0.000907981
0.00106172
0.00119489
0.00142772
0.00160167
0.00195154
0.0023207
0.00307103
0.00458971
0.00533992
0.00293149
0.00579651
0.00683118
0.00703047
0.00700691
0.00694817
0.00690263
0.00688157
0.00688248
0.00688993
0.00690549
0.00693932
0.00696835
0.00702671
0.00708383
0.00717236
0.00727381
0.00740631
0.00789727
0.00684142
)
;

boundaryField
{
    movingWall
    {
        type            kqRWallFunction;
        value           nonuniform List<scalar> 
20
(
0.00293149
0.00579651
0.00683118
0.00703047
0.00700691
0.00694817
0.00690263
0.00688157
0.00688248
0.00688993
0.00690549
0.00693932
0.00696835
0.00702671
0.00708383
0.00717236
0.00727381
0.00740631
0.00789727
0.00684142
)
;
    }
    fixedWalls
    {
        type            kqRWallFunction;
        value           nonuniform List<scalar> 
60
(
6.8732e-07
1.91636e-06
3.80376e-06
1.4865e-05
3.73506e-05
6.0002e-05
9.07192e-05
0.000121967
0.00015493
0.000188625
0.000215692
0.00022825
0.000221597
0.000197993
0.000143783
6.79867e-05
1.60061e-05
2.11973e-05
0.000128496
0.00293149
7.86955e-05
0.000374234
0.000768249
0.00102582
0.0012245
0.00137655
0.00150732
0.00162023
0.00172882
0.00183566
0.00195052
0.00207818
0.00222954
0.0024147
0.00265348
0.00296887
0.00341226
0.00409332
0.00533992
0.00684142
6.8732e-07
1.16955e-06
2.906e-06
2.60376e-05
0.000145992
0.000354165
0.000467899
0.000534656
0.000560612
0.000567918
0.000548167
0.000512935
0.000466804
0.000413893
0.000361413
0.000303059
0.000251038
0.000194574
0.000132304
7.86955e-05
)
;
    }
    frontAndBack
    {
        type            empty;
    }
}


// ************************************************************************* //
