/*--------------------------------*- C++ -*----------------------------------*\
| =========                 |                                                 |
| \\      /  F ield         | OpenFOAM: The Open Source CFD Toolbox           |
|  \\    /   O peration     | Version:  3.0.0                                 |
|   \\  /    A nd           | Web:      www.OpenFOAM.org                      |
|    \\/     M anipulation  |                                                 |
\*---------------------------------------------------------------------------*/
FoamFile
{
    version     2.0;
    format      ascii;
    class       volScalarField;
    location    "5";
    object      nut;
}
// * * * * * * * * * * * * * * * * * * * * * * * * * * * * * * * * * * * * * //

dimensions      [0 2 -1 0 0 0 0];

internalField   nonuniform List<scalar> 
400
(
5.36933e-09
9.13609e-09
2.26967e-08
2.02911e-07
1.12483e-06
2.67683e-06
3.50054e-06
3.97644e-06
4.15999e-06
4.21149e-06
4.07199e-06
3.82208e-06
3.49252e-06
3.11131e-06
2.72967e-06
2.30111e-06
1.91525e-06
1.49226e-06
1.02064e-06
6.1018e-07
1.49688e-08
1.44917e-07
3.78594e-07
1.0545e-06
2.30215e-06
3.3373e-06
4.25168e-06
5.1247e-06
6.24941e-06
7.30605e-06
8.47793e-06
9.51921e-06
1.04253e-05
1.03888e-05
1.04779e-05
9.62428e-06
8.37316e-06
6.76382e-06
4.47179e-06
2.82323e-06
2.9706e-08
6.31092e-07
1.42083e-06
2.5303e-06
4.08449e-06
6.26882e-06
8.39963e-06
1.11523e-05
1.36947e-05
1.62744e-05
1.79834e-05
1.94099e-05
1.94277e-05
1.9604e-05
1.871e-05
1.72841e-05
1.43975e-05
1.07552e-05
7.35637e-06
5.59992e-06
1.15967e-07
1.48556e-06
2.5095e-06
4.04101e-06
6.8049e-06
1.07029e-05
1.46885e-05
1.99481e-05
2.30638e-05
2.55117e-05
2.71812e-05
2.85493e-05
2.94947e-05
2.99427e-05
2.91553e-05
2.6678e-05
2.26928e-05
1.61703e-05
9.69869e-06
7.32014e-06
2.90755e-07
2.0961e-06
3.57615e-06
6.01677e-06
1.1043e-05
1.69608e-05
2.25e-05
2.70676e-05
2.96004e-05
3.11404e-05
3.07561e-05
3.07845e-05
3.16727e-05
3.38915e-05
3.55892e-05
3.43598e-05
3.01216e-05
2.21443e-05
1.24667e-05
8.6009e-06
4.66072e-07
2.6533e-06
4.75903e-06
8.63749e-06
1.61077e-05
2.32635e-05
2.85967e-05
3.3195e-05
3.35116e-05
3.0609e-05
2.87237e-05
2.85059e-05
2.90364e-05
3.3084e-05
3.76608e-05
3.94972e-05
3.74939e-05
2.83791e-05
1.54398e-05
9.55585e-06
7.0261e-07
3.04234e-06
5.95996e-06
1.13242e-05
2.10273e-05
2.83205e-05
3.40245e-05
3.76742e-05
3.48822e-05
2.87442e-05
2.54108e-05
2.48655e-05
2.54482e-05
3.05747e-05
3.58657e-05
4.02733e-05
4.10828e-05
3.38348e-05
1.86227e-05
1.03605e-05
9.41829e-07
3.18865e-06
6.932e-06
1.38554e-05
2.47915e-05
3.23396e-05
3.86101e-05
4.11083e-05
3.64817e-05
2.81814e-05
2.33411e-05
2.24045e-05
2.28484e-05
2.72896e-05
3.31527e-05
4.03967e-05
4.41998e-05
3.82479e-05
2.20311e-05
1.10436e-05
1.19266e-06
3.33602e-06
7.54331e-06
1.53482e-05
2.72401e-05
3.54558e-05
4.21315e-05
4.40337e-05
3.89491e-05
2.97598e-05
2.2707e-05
2.08854e-05
2.12842e-05
2.47085e-05
3.06133e-05
3.89643e-05
4.52569e-05
4.17412e-05
2.51393e-05
1.16906e-05
1.44747e-06
3.12761e-06
7.82746e-06
1.59783e-05
2.85646e-05
3.75205e-05
4.4521e-05
4.64697e-05
4.21057e-05
3.31447e-05
2.45846e-05
2.08408e-05
2.10972e-05
2.39794e-05
2.96489e-05
3.85118e-05
4.59201e-05
4.42305e-05
2.85403e-05
1.2318e-05
1.65102e-06
2.91208e-06
7.54367e-06
1.58795e-05
2.84397e-05
3.82053e-05
4.53217e-05
4.84655e-05
4.52949e-05
3.7723e-05
2.87579e-05
2.32161e-05
2.23892e-05
2.43147e-05
2.9646e-05
3.85658e-05
4.54423e-05
4.5582e-05
3.13374e-05
1.29827e-05
1.74512e-06
2.60396e-06
6.53711e-06
1.44906e-05
2.69315e-05
3.70294e-05
4.42732e-05
4.87558e-05
4.77974e-05
4.24321e-05
3.49374e-05
2.88595e-05
2.67798e-05
2.81203e-05
3.20745e-05
3.89392e-05
4.50251e-05
4.59699e-05
3.4241e-05
1.371e-05
1.6953e-06
2.21527e-06
5.48364e-06
1.21255e-05
2.35996e-05
3.40227e-05
4.15072e-05
4.70935e-05
4.92309e-05
4.66179e-05
4.14843e-05
3.61664e-05
3.30311e-05
3.36942e-05
3.63064e-05
4.10893e-05
4.4619e-05
4.55936e-05
3.64288e-05
1.45572e-05
1.51805e-06
1.83382e-06
4.43306e-06
9.28909e-06
1.99066e-05
3.01856e-05
3.77438e-05
4.34034e-05
4.69604e-05
4.74924e-05
4.54362e-05
4.25e-05
3.9238e-05
3.91613e-05
3.97504e-05
4.17372e-05
4.3625e-05
4.487e-05
3.77997e-05
1.55724e-05
1.10802e-06
1.45796e-06
3.338e-06
6.60425e-06
1.36259e-05
2.29701e-05
3.0648e-05
3.64857e-05
4.08737e-05
4.369e-05
4.41997e-05
4.39346e-05
4.17005e-05
4.12678e-05
4.07872e-05
4.11602e-05
4.15409e-05
4.27229e-05
3.81092e-05
1.68489e-05
5.27695e-07
1.10684e-06
2.38968e-06
4.95903e-06
9.61333e-06
1.73555e-05
2.42617e-05
2.96223e-05
3.36271e-05
3.66665e-05
3.83276e-05
3.9486e-05
3.86075e-05
3.81246e-05
3.76394e-05
3.81143e-05
3.89636e-05
4.10249e-05
3.84424e-05
1.84824e-05
1.24855e-07
6.27328e-07
1.47228e-06
2.77515e-06
4.96792e-06
8.95962e-06
1.39104e-05
1.83478e-05
2.20303e-05
2.495e-05
2.71901e-05
2.9104e-05
2.99863e-05
3.10528e-05
3.23666e-05
3.47087e-05
3.68034e-05
3.88734e-05
3.80011e-05
2.06862e-05
1.65265e-07
7.51318e-07
1.52037e-06
2.58842e-06
4.12901e-06
6.52206e-06
9.24533e-06
1.23072e-05
1.48948e-05
1.79826e-05
2.01476e-05
2.28026e-05
2.48723e-05
2.78402e-05
3.03953e-05
3.47591e-05
3.65941e-05
3.75105e-05
3.80102e-05
2.38847e-05
9.91614e-07
6.6914e-06
9.28409e-06
1.15006e-05
1.36252e-05
1.60612e-05
1.85385e-05
2.1179e-05
2.33807e-05
2.61439e-05
2.81839e-05
3.06323e-05
3.24159e-05
3.48986e-05
3.64557e-05
3.90037e-05
3.90221e-05
3.73803e-05
3.88248e-05
2.92511e-05
1.82919e-05
3.10841e-05
3.50166e-05
3.57417e-05
3.56561e-05
3.54426e-05
3.52765e-05
3.51998e-05
3.52032e-05
3.52305e-05
3.52875e-05
3.5411e-05
3.55167e-05
3.57284e-05
3.59349e-05
3.62532e-05
3.66156e-05
3.70856e-05
3.87937e-05
3.5054e-05
)
;

boundaryField
{
    movingWall
    {
        type            nutkWallFunction;
        Cmu             0.09;
        kappa           0.41;
        E               9.8;
        value           nonuniform List<scalar> 
20
(
0
0
0
0
0
0
0
0
0
0
0
0
0
0
0
4.54673e-08
1.01276e-07
1.73492e-07
4.34765e-07
0
)
;
    }
    fixedWalls
    {
        type            nutkWallFunction;
        Cmu             0.09;
        kappa           0.41;
        E               9.8;
        value           uniform 0;
    }
    frontAndBack
    {
        type            empty;
    }
}


// ************************************************************************* //
