/*--------------------------------*- C++ -*----------------------------------*\
| =========                 |                                                 |
| \\      /  F ield         | OpenFOAM: The Open Source CFD Toolbox           |
|  \\    /   O peration     | Version:  3.0.0                                 |
|   \\  /    A nd           | Web:      www.OpenFOAM.org                      |
|    \\/     M anipulation  |                                                 |
\*---------------------------------------------------------------------------*/
FoamFile
{
    version     2.0;
    format      ascii;
    class       volScalarField;
    location    "5";
    object      omega;
}
// * * * * * * * * * * * * * * * * * * * * * * * * * * * * * * * * * * * * * //

dimensions      [0 0 -1 0 0 0 0];

internalField   nonuniform List<scalar> 
400
(
128.008
128.014
128.036
128.32
129.79
132.307
133.665
134.456
134.763
134.849
134.619
134.203
133.658
133.029
132.402
131.701
131.073
130.388
129.628
128.971
128.024
38.4877
60.1163
77.6322
81.6233
75.8562
65.1887
55.6617
46.1225
40.425
36.297
34.8238
34.6273
37.6086
40.2092
45.6646
53.3116
66.1554
90.4382
132.555
128.047
41.0301
51.9188
54.993
50.0212
39.1824
31.8129
26.4366
23.8087
22.5796
22.1604
22.1948
23.463
25.1969
28.5328
33.751
42.76
58.1481
88.732
137.189
128.184
40.8266
43.0979
40.6698
32.0751
24.2734
20.498
17.8914
16.6478
15.7245
15.2959
15.1372
15.4507
16.564
18.8233
23.1109
31.0596
46.3535
80.014
140.137
128.461
38.9392
36.0419
30.7157
22.2583
17.6285
15.2963
13.4033
12.4195
11.4567
10.9746
10.7608
10.7797
11.6684
13.4884
17.1784
24.2884
38.3922
72.2041
142.369
128.74
35.8048
30.2085
24.0205
17.139
14.0303
12.1325
10.5637
9.62704
8.71447
8.17215
7.85056
7.7535
8.23473
9.63328
12.7262
19.1483
32.3227
65.1649
144.053
129.117
32.6941
25.9969
19.7058
14.2247
11.7968
10.0802
8.73269
7.85624
7.07886
6.60265
6.27374
6.14744
6.33141
7.43512
10.044
15.8541
28.1285
59.9445
145.486
129.5
30.9498
22.8327
17.0648
12.4555
10.3552
8.75525
7.57125
6.78513
6.16166
5.7482
5.3971
5.2468
5.32197
6.12614
8.20802
13.4584
25.2505
55.5367
146.712
129.903
28.8942
20.7052
15.3689
11.3789
9.42672
7.91842
6.85031
6.1531
5.6587
5.31019
4.96983
4.80839
4.90599
5.51811
7.21941
11.8603
23.2228
52.9735
147.881
130.313
28.9016
19.2477
14.4724
10.7805
8.89294
7.4506
6.44434
5.79791
5.37869
5.08138
4.78253
4.63255
4.75392
5.24906
6.70158
10.7479
21.794
50.5155
149.023
130.642
30.6181
18.4613
13.8493
10.5657
8.6387
7.22699
6.24153
5.6115
5.23031
4.9766
4.72425
4.60284
4.71954
5.15815
6.4686
10.0776
20.8628
49.3244
150.24
130.794
34.9097
18.7048
13.8688
10.6512
8.68945
7.27233
6.27763
5.63337
5.23241
4.98067
4.74637
4.6439
4.74681
5.14777
6.39081
9.76828
20.389
48.1331
151.581
130.713
43.1688
19.82
14.1299
10.9193
8.89052
7.44897
6.42971
5.75214
5.32159
5.06817
4.86475
4.78765
4.8915
5.27403
6.4128
9.65552
20.201
47.7375
153.157
130.426
52.1481
22.3793
14.8665
11.4272
9.30315
7.81197
6.75314
6.02929
5.55516
5.28286
5.08888
5.04759
5.15914
5.54923
6.69951
9.81077
20.3842
48.6685
155.063
129.765
61.6468
27.1757
16.6083
12.4625
10.1265
8.53818
7.40476
6.60265
6.04603
5.72013
5.50332
5.49543
5.62128
6.03559
7.24172
10.4441
21.4686
51.3092
157.487
128.837
66.3426
33.5571
19.4469
14.0481
11.2596
9.45945
8.23152
7.39972
6.81278
6.4564
6.21697
6.22672
6.38952
6.88899
8.29199
11.7928
23.5798
55.0041
160.632
128.197
62.7778
37.6441
24.8446
17.7579
13.8351
11.3486
9.76709
8.72167
8.03977
7.60731
7.42719
7.48971
7.81689
8.63578
10.6056
14.9394
28.3137
62.0865
164.953
128.262
49.7283
36.803
27.6346
21.6216
17.7385
15.0709
13.1799
11.9201
11.1608
10.8699
11.0132
11.4651
12.5042
14.2114
17.7798
23.9074
40.2793
76.7052
171.378
129.583
46.5396
41.402
37.4177
34.2381
31.8765
30.3993
29.8941
30.1227
30.8777
32.2163
34.6601
36.8611
40.9104
43.9348
50.0347
59.4715
82.1563
118.216
182.554
160.262
186.478
195.084
196.702
196.513
196.04
195.672
195.5
195.507
195.567
195.692
195.965
196.2
196.67
197.129
197.841
198.653
199.709
203.571
195.168
)
;

boundaryField
{
    movingWall
    {
        Cmu             0.09;
        kappa           0.41;
        E               9.8;
        beta1           0.075;
        type            omegaWallFunction;
        value           nonuniform List<scalar> 
20
(
160.262
186.478
195.084
196.702
196.513
196.04
195.672
195.5
195.507
195.567
195.692
195.965
196.2
196.67
197.129
197.841
198.653
199.709
203.571
195.168
)
;
    }
    fixedWalls
    {
        Cmu             0.09;
        kappa           0.41;
        E               9.8;
        beta1           0.075;
        type            omegaWallFunction;
        value           nonuniform List<scalar> 
60
(
128.008
128.024
128.047
128.184
128.461
128.74
129.117
129.5
129.903
130.313
130.642
130.794
130.713
130.426
129.765
128.837
128.197
128.262
129.583
160.262
128.971
132.555
137.189
140.137
142.369
144.053
145.486
146.712
147.881
149.023
150.24
151.581
153.157
155.063
157.487
160.632
164.953
171.378
182.554
195.168
128.008
128.014
128.036
128.32
129.79
132.307
133.665
134.456
134.763
134.849
134.619
134.203
133.658
133.029
132.402
131.701
131.073
130.388
129.628
128.971
)
;
    }
    frontAndBack
    {
        type            empty;
    }
}


// ************************************************************************* //
