/*--------------------------------*- C++ -*----------------------------------*\
| =========                 |                                                 |
| \\      /  F ield         | OpenFOAM: The Open Source CFD Toolbox           |
|  \\    /   O peration     | Version:  3.0.0                                 |
|   \\  /    A nd           | Web:      www.OpenFOAM.org                      |
|    \\/     M anipulation  |                                                 |
\*---------------------------------------------------------------------------*/
FoamFile
{
    version     2.0;
    format      ascii;
    class       volScalarField;
    location    "5";
    object      p;
}
// * * * * * * * * * * * * * * * * * * * * * * * * * * * * * * * * * * * * * //

dimensions      [0 2 -2 0 0 0 0];

internalField   nonuniform List<scalar> 
400
(
1.59337e-07
-7.04881e-05
-0.000108261
-0.000211749
-0.000186683
-0.000821164
-0.00216254
-0.00372004
-0.00511395
-0.00615413
-0.00671297
-0.00668025
-0.0059784
-0.00457055
-0.0024487
0.00029526
0.00340699
0.00628504
0.00810389
0.0085389
1.21407e-05
-5.96176e-05
-8.09208e-05
-0.000263696
-0.00083116
-0.00184866
-0.00323252
-0.00464442
-0.00595051
-0.00691514
-0.00743993
-0.00742573
-0.00683582
-0.00558636
-0.003673
-0.0011342
0.00183116
0.00475023
0.00690675
0.00797973
0.000159106
1.41345e-05
-0.000310659
-0.000949349
-0.00200391
-0.00337733
-0.00482006
-0.00621219
-0.00743894
-0.00828911
-0.00872092
-0.00868796
-0.00815324
-0.00708664
-0.00548193
-0.00335896
-0.000801635
0.00197748
0.00450332
0.00605143
0.000284285
-5.05739e-05
-0.000815015
-0.00202169
-0.00352223
-0.00511196
-0.00660939
-0.0078913
-0.00884554
-0.00948491
-0.00980662
-0.00977061
-0.00933645
-0.00847421
-0.00718264
-0.00548138
-0.00339575
-0.000985597
0.00145391
0.0030791
2.03655e-05
-0.000539061
-0.00169436
-0.00332473
-0.00506365
-0.00669208
-0.00807271
-0.00915907
-0.00993718
-0.0104504
-0.0107027
-0.0106737
-0.0103242
-0.0096319
-0.00860234
-0.00726088
-0.0056203
-0.00367477
-0.00157426
-8.07919e-05
-0.000756135
-0.00145094
-0.00286144
-0.00464538
-0.00641635
-0.00794628
-0.00916196
-0.0100845
-0.0107443
-0.0111823
-0.0114033
-0.011394
-0.0111191
-0.0105623
-0.00973571
-0.00867101
-0.00739202
-0.00588097
-0.00429728
-0.00293437
-0.00191442
-0.00264504
-0.0041091
-0.00583714
-0.00750677
-0.00888156
-0.00994471
-0.010747
-0.0113234
-0.0117107
-0.0119182
-0.011937
-0.011731
-0.0112831
-0.0106089
-0.00974621
-0.00874254
-0.00757522
-0.00642256
-0.00527199
-0.00313414
-0.00382697
-0.00521735
-0.00680307
-0.00832243
-0.00954038
-0.0104793
-0.0111923
-0.0117086
-0.0120607
-0.0122622
-0.012307
-0.012158
-0.0117933
-0.0112307
-0.0105102
-0.00970917
-0.00879068
-0.00796854
-0.0070094
-0.00413282
-0.0047736
-0.0060513
-0.00749247
-0.00886625
-0.0099506
-0.0107963
-0.0114444
-0.0119177
-0.0122442
-0.0124387
-0.0124988
-0.0123878
-0.0120794
-0.0115949
-0.0109659
-0.0103167
-0.00953859
-0.00897361
-0.00816598
-0.00480385
-0.00536912
-0.00653864
-0.0078743
-0.00913608
-0.0101263
-0.0109119
-0.0115174
-0.0119621
-0.012269
-0.0124517
-0.0125117
-0.0124164
-0.0121368
-0.0117015
-0.01112
-0.0106017
-0.0098478
-0.00952685
-0.00875871
-0.0050854
-0.00560893
-0.00667832
-0.00794965
-0.00913083
-0.0100811
-0.0108371
-0.0114215
-0.011852
-0.0121456
-0.0123134
-0.0123561
-0.0122522
-0.0119802
-0.0115631
-0.0110092
-0.0105756
-0.00974594
-0.00968606
-0.00882366
-0.00497885
-0.00549983
-0.00649794
-0.00771566
-0.00887467
-0.00982023
-0.0105763
-0.0111638
-0.0115967
-0.0118854
-0.0120376
-0.0120545
-0.0119263
-0.0116389
-0.0112135
-0.0106685
-0.0102205
-0.00933891
-0.00949896
-0.00838484
-0.00459142
-0.00511755
-0.00606603
-0.00720903
-0.00837764
-0.00934598
-0.0101309
-0.0107481
-0.0112036
-0.0115012
-0.0116448
-0.0116356
-0.0114723
-0.0111483
-0.0106877
-0.0101118
-0.00959667
-0.0086957
-0.00893697
-0.00751964
-0.0040937
-0.00458535
-0.00544389
-0.00647508
-0.00762325
-0.00864095
-0.00949303
-0.0101735
-0.0106778
-0.0110036
-0.0111521
-0.0111226
-0.0109181
-0.010539
-0.0100152
-0.0093662
-0.00875387
-0.0078241
-0.00803802
-0.00634127
-0.00368503
-0.00405307
-0.00471449
-0.00557091
-0.00663086
-0.00770389
-0.00865621
-0.00943622
-0.0100206
-0.0103993
-0.0105713
-0.0105351
-0.0102894
-0.00984312
-0.00923166
-0.00847238
-0.00772859
-0.00672068
-0.00683305
-0.00489522
-0.00351433
-0.00360637
-0.00390222
-0.00449279
-0.00542215
-0.0065406
-0.00762063
-0.00853959
-0.00924229
-0.00970466
-0.00992233
-0.00988981
-0.00962185
-0.00910753
-0.00839095
-0.0074858
-0.00655264
-0.00536709
-0.00528521
-0.00291904
-0.00359491
-0.00328963
-0.00304861
-0.00329664
-0.00407068
-0.00520992
-0.00642031
-0.00750432
-0.0083625
-0.00894605
-0.00924412
-0.00924979
-0.00897232
-0.00839608
-0.00756609
-0.00647493
-0.00525944
-0.00370181
-0.00306955
0.000769685
-0.00304711
-0.00267328
-0.00208086
-0.0020301
-0.00268042
-0.00384827
-0.00517697
-0.00641033
-0.00742506
-0.0081488
-0.00855133
-0.00861325
-0.00834583
-0.00774213
-0.00681623
-0.00550524
-0.00386624
-0.00156529
0.000628458
0.00861387
-0.00382785
-0.0026374
-0.00141902
-0.00105683
-0.00164239
-0.00283799
-0.00425318
-0.00560522
-0.00673817
-0.00757149
-0.00806475
-0.00820485
-0.00797827
-0.00736791
-0.00629964
-0.00468259
-0.00237927
0.00138335
0.00686921
0.0214011
-0.00192179
0.000801741
0.000822619
0.000203543
-0.000794076
-0.00211745
-0.00360449
-0.00503943
-0.00624547
-0.00712987
-0.007653
-0.00779791
-0.00754264
-0.00685213
-0.00565729
-0.00376125
-0.000390122
0.00569786
0.0159123
0.0334587
)
;

boundaryField
{
    movingWall
    {
        type            zeroGradient;
    }
    fixedWalls
    {
        type            zeroGradient;
    }
    frontAndBack
    {
        type            empty;
    }
}


// ************************************************************************* //
