/*--------------------------------*- C++ -*----------------------------------*\
| =========                 |                                                 |
| \\      /  F ield         | OpenFOAM: The Open Source CFD Toolbox           |
|  \\    /   O peration     | Version:  3.0.0                                 |
|   \\  /    A nd           | Web:      www.OpenFOAM.org                      |
|    \\/     M anipulation  |                                                 |
\*---------------------------------------------------------------------------*/
FoamFile
{
    version     2.0;
    format      ascii;
    class       surfaceScalarField;
    location    "5";
    object      phi;
}
// * * * * * * * * * * * * * * * * * * * * * * * * * * * * * * * * * * * * * //

dimensions      [0 3 -1 0 0 0 0];

internalField   nonuniform List<scalar> 
760
(
2.14236e-07
-2.14251e-07
2.36362e-07
-2.21263e-08
-2.47061e-08
2.61067e-07
-8.09513e-07
7.84806e-07
-2.21705e-06
1.40754e-06
-3.74686e-06
1.52981e-06
-5.03374e-06
1.28689e-06
-6.10908e-06
1.07533e-06
-6.87473e-06
7.65652e-07
-7.43849e-06
5.63762e-07
-7.75056e-06
3.1207e-07
-7.8784e-06
1.27838e-07
-7.76275e-06
-1.15648e-07
-7.42795e-06
-3.34799e-07
-6.81437e-06
-6.13577e-07
-5.87375e-06
-9.40628e-07
-4.55329e-06
-1.32046e-06
-2.86747e-06
-1.68582e-06
-1.05177e-06
-1.8157e-06
-1.05177e-06
-1.42704e-08
-1.99981e-07
-4.83338e-07
4.46941e-07
-1.62996e-06
1.40769e-06
-3.25699e-06
2.41183e-06
-4.6392e-06
2.78974e-06
-5.63044e-06
2.52105e-06
-6.52394e-06
2.18039e-06
-7.1629e-06
1.71429e-06
-7.69934e-06
1.30209e-06
-8.02596e-06
8.90387e-07
-8.20015e-06
4.86261e-07
-8.1569e-06
8.45873e-08
-7.98213e-06
-2.9042e-07
-7.62828e-06
-6.88647e-07
-7.07038e-06
-1.17147e-06
-6.26395e-06
-1.74706e-06
-5.13931e-06
-2.44509e-06
-3.61853e-06
-3.20661e-06
-1.7596e-06
-3.67463e-06
-2.81137e-06
-5.30852e-07
3.30872e-07
-1.62343e-06
1.53951e-06
-3.08408e-06
2.86835e-06
-4.28065e-06
3.6084e-06
-5.12727e-06
3.63637e-06
-5.80608e-06
3.19986e-06
-6.31576e-06
2.69006e-06
-6.64287e-06
2.04141e-06
-6.8376e-06
1.49682e-06
-6.8804e-06
9.33182e-07
-6.85732e-06
4.63181e-07
-6.76711e-06
-5.62031e-09
-6.59487e-06
-4.62657e-07
-6.30324e-06
-9.80283e-07
-5.89592e-06
-1.57878e-06
-5.32985e-06
-2.31314e-06
-4.55016e-06
-3.22478e-06
-3.45857e-06
-4.2982e-06
-1.9534e-06
-5.1798e-06
-4.76476e-06
-9.49619e-07
1.28049e-06
-2.27629e-06
2.86619e-06
-3.47023e-06
4.06229e-06
-4.27981e-06
4.41798e-06
-4.80445e-06
4.16101e-06
-5.14326e-06
3.53867e-06
-5.28457e-06
2.83137e-06
-5.33687e-06
2.0937e-06
-5.33985e-06
1.4998e-06
-5.33872e-06
9.32054e-07
-5.30724e-06
4.31706e-07
-5.22971e-06
-8.31505e-08
-5.07915e-06
-6.13221e-07
-4.84752e-06
-1.21191e-06
-4.5297e-06
-1.89661e-06
-4.12408e-06
-2.71876e-06
-3.60327e-06
-3.74559e-06
-2.85706e-06
-5.04442e-06
-1.67522e-06
-6.36164e-06
-6.43998e-06
-1.1256e-06
2.40609e-06
-2.30237e-06
4.04295e-06
-3.1368e-06
4.89672e-06
-3.67782e-06
4.959e-06
-3.95417e-06
4.43736e-06
-4.0553e-06
3.6398e-06
-4.07427e-06
2.85034e-06
-4.09016e-06
2.10959e-06
-4.08343e-06
1.49307e-06
-4.06941e-06
9.18033e-07
-4.03141e-06
3.93711e-07
-3.96185e-06
-1.52708e-07
-3.833e-06
-7.42073e-07
-3.64013e-06
-1.40478e-06
-3.38398e-06
-2.15276e-06
-3.07347e-06
-3.02927e-06
-2.70467e-06
-4.11438e-06
-2.20399e-06
-5.5451e-06
-1.36429e-06
-7.20134e-06
-7.80427e-06
-1.0029e-06
3.409e-06
-1.92999e-06
4.97004e-06
-2.52407e-06
5.4908e-06
-2.88006e-06
5.31499e-06
-3.01088e-06
4.56818e-06
-3.04438e-06
3.6733e-06
-3.04196e-06
2.84792e-06
-3.04362e-06
2.11124e-06
-3.03651e-06
1.48596e-06
-3.02663e-06
9.08151e-07
-3.00091e-06
3.67991e-07
-2.94926e-06
-2.04357e-07
-2.84687e-06
-8.44466e-07
-2.68636e-06
-1.56528e-06
-2.47778e-06
-2.36135e-06
-2.23838e-06
-3.26866e-06
-1.98687e-06
-4.36589e-06
-1.67073e-06
-5.86125e-06
-1.05161e-06
-7.82045e-06
-8.85588e-06
-7.84213e-07
4.19321e-06
-1.4291e-06
5.61492e-06
-1.84485e-06
5.90655e-06
-2.06864e-06
5.53878e-06
-2.14079e-06
4.64033e-06
-2.15777e-06
3.69028e-06
-2.15777e-06
2.84793e-06
-2.16061e-06
2.11408e-06
-2.1577e-06
1.48304e-06
-2.15546e-06
9.05914e-07
-2.1453e-06
3.5783e-07
-2.11584e-06
-2.33815e-07
-2.04376e-06
-9.16548e-07
-1.9201e-06
-1.68894e-06
-1.75771e-06
-2.52375e-06
-1.57568e-06
-3.45069e-06
-1.39243e-06
-4.54915e-06
-1.17666e-06
-6.07701e-06
-8.35839e-07
-8.16127e-06
-9.69172e-06
-4.99743e-07
4.69295e-06
-9.21692e-07
6.03687e-06
-1.1988e-06
6.18366e-06
-1.33176e-06
5.67174e-06
-1.37645e-06
4.68502e-06
-1.38916e-06
3.70299e-06
-1.39401e-06
2.85277e-06
-1.39936e-06
2.11943e-06
-1.4003e-06
1.48399e-06
-1.4019e-06
9.07512e-07
-1.40027e-06
3.56194e-07
-1.38621e-06
-2.47868e-07
-1.34273e-06
-9.60028e-07
-1.26315e-06
-1.76852e-06
-1.15755e-06
-2.62935e-06
-1.04412e-06
-3.56412e-06
-9.41355e-07
-4.65191e-06
-8.19551e-07
-6.19882e-06
-6.1065e-07
-8.37017e-06
-1.03024e-05
-2.45265e-07
4.93822e-06
-4.60097e-07
6.25171e-06
-6.06658e-07
6.33022e-06
-6.71919e-07
5.737e-06
-6.99732e-07
4.71283e-06
-7.11407e-07
3.71466e-06
-7.19252e-07
2.86062e-06
-7.24958e-07
2.12514e-06
-7.25912e-07
1.48495e-06
-7.24984e-07
9.06583e-07
-7.21273e-07
3.52484e-07
-7.13866e-07
-2.55275e-07
-6.96785e-07
-9.77109e-07
-6.67084e-07
-1.79822e-06
-6.28505e-07
-2.66792e-06
-5.86286e-07
-3.60634e-06
-5.69081e-07
-4.66912e-06
-5.39892e-07
-6.228e-06
-4.78225e-07
-8.43184e-06
-1.07806e-05
3.26166e-08
4.9056e-06
-5.08653e-08
6.33519e-06
-8.37889e-08
6.36314e-06
-9.91125e-08
5.75233e-06
-9.28628e-08
4.70658e-06
-1.00388e-07
3.72219e-06
-1.05938e-07
2.86617e-06
-1.08462e-07
2.12766e-06
-1.06735e-07
1.48322e-06
-1.01224e-07
9.01072e-07
-9.39661e-08
3.45226e-07
-8.95616e-08
-2.59679e-07
-9.2826e-08
-9.73845e-07
-1.13696e-07
-1.77736e-06
-1.42972e-07
-2.63865e-06
-1.96792e-07
-3.55252e-06
-2.64353e-07
-4.60156e-06
-3.24279e-07
-6.16808e-06
-3.44114e-07
-8.412e-06
-1.11247e-05
2.44696e-07
4.66091e-06
3.64025e-07
6.21586e-06
4.48392e-07
6.27878e-06
4.70688e-07
5.73003e-06
4.75611e-07
4.70166e-06
4.73209e-07
3.72459e-06
4.71494e-07
2.86788e-06
4.7207e-07
2.12709e-06
4.76552e-07
1.47874e-06
4.8566e-07
8.91965e-07
4.97002e-07
3.33885e-07
4.94277e-07
-2.56954e-07
4.61977e-07
-9.41545e-07
3.9257e-07
-1.70795e-06
2.90723e-07
-2.5368e-06
1.54179e-07
-3.41597e-06
3.40938e-08
-4.48147e-06
-1.49307e-07
-5.98468e-06
-2.73707e-07
-8.2876e-06
-1.13984e-05
4.67385e-07
4.19352e-06
7.38559e-07
5.94468e-06
9.23552e-07
6.09378e-06
9.91351e-07
5.66223e-06
1.00983e-06
4.68318e-06
1.02357e-06
3.71086e-06
1.03384e-06
2.85761e-06
1.04129e-06
2.11963e-06
1.04695e-06
1.47308e-06
1.0518e-06
8.8711e-07
1.05299e-06
3.32697e-07
1.03363e-06
-2.37597e-07
9.70839e-07
-8.78749e-07
8.55492e-07
-1.5926e-06
6.89828e-07
-2.37114e-06
4.95263e-07
-3.22141e-06
2.56192e-07
-4.2424e-06
-2.22867e-08
-5.7062e-06
-1.74495e-07
-8.1354e-06
-1.15729e-05
6.7671e-07
3.51681e-06
1.07891e-06
5.54248e-06
1.36486e-06
5.80783e-06
1.52451e-06
5.50259e-06
1.56663e-06
4.64106e-06
1.59635e-06
3.68114e-06
1.61657e-06
2.8374e-06
1.6287e-06
2.1075e-06
1.63236e-06
1.46942e-06
1.62631e-06
8.93159e-07
1.60696e-06
3.52049e-07
1.56043e-06
-1.91069e-07
1.46347e-06
-7.81793e-07
1.30559e-06
-1.43472e-06
1.08784e-06
-2.15339e-06
8.25343e-07
-2.95891e-06
4.95899e-07
-3.91296e-06
1.68834e-07
-5.37913e-06
-6.08872e-08
-7.90567e-06
-1.16338e-05
8.42191e-07
2.67462e-06
1.38176e-06
5.00292e-06
1.7329e-06
5.45668e-06
1.98214e-06
5.25335e-06
2.09493e-06
4.52827e-06
2.1631e-06
3.61297e-06
2.21101e-06
2.78949e-06
2.24096e-06
2.07755e-06
2.25075e-06
1.45962e-06
2.23754e-06
9.06374e-07
2.19693e-06
3.92658e-07
2.11752e-06
-1.11654e-07
1.98226e-06
-6.46541e-07
1.77941e-06
-1.23186e-06
1.50555e-06
-1.87953e-06
1.16677e-06
-2.62012e-06
7.53849e-07
-3.50004e-06
3.6214e-07
-4.98742e-06
7.12659e-08
-7.6148e-06
-1.15625e-05
9.42457e-07
1.73217e-06
1.57466e-06
4.37071e-06
2.04561e-06
4.98574e-06
2.44426e-06
4.85469e-06
2.68047e-06
4.29206e-06
2.81278e-06
3.48067e-06
2.89317e-06
2.70909e-06
2.93816e-06
2.03256e-06
2.94964e-06
1.44814e-06
2.92571e-06
9.30303e-07
2.86122e-06
4.57155e-07
2.74496e-06
4.60172e-09
2.56584e-06
-4.67418e-07
2.31053e-06
-9.76554e-07
1.97013e-06
-1.53914e-06
1.54551e-06
-2.1955e-06
1.04513e-06
-2.99966e-06
5.69835e-07
-4.51213e-06
1.8517e-07
-7.23013e-06
-1.13774e-05
8.36263e-07
8.95903e-07
1.55553e-06
3.65145e-06
2.15902e-06
4.38225e-06
2.70184e-06
4.31187e-06
3.11418e-06
3.87972e-06
3.38098e-06
3.21387e-06
3.55051e-06
2.53956e-06
3.65148e-06
1.9316e-06
3.69368e-06
1.40593e-06
3.67987e-06
9.44116e-07
3.60506e-06
5.31965e-07
3.46763e-06
1.42038e-07
3.24523e-06
-2.45018e-07
2.93396e-06
-6.65289e-07
2.51729e-06
-1.12246e-06
1.99691e-06
-1.67511e-06
1.40099e-06
-2.40375e-06
8.22388e-07
-3.93353e-06
3.41754e-07
-6.7495e-06
-1.10356e-05
3.2536e-07
5.70542e-07
1.28753e-06
2.68928e-06
2.15103e-06
3.51875e-06
2.91363e-06
3.54926e-06
3.55055e-06
3.2428e-06
4.00932e-06
2.7551e-06
4.31686e-06
2.23202e-06
4.50389e-06
1.74457e-06
4.59197e-06
1.31786e-06
4.59387e-06
9.42222e-07
4.51155e-06
6.14282e-07
4.34552e-06
3.08069e-07
4.07208e-06
2.84197e-08
3.70605e-06
-2.9926e-07
3.21203e-06
-6.28442e-07
2.61419e-06
-1.07728e-06
1.92305e-06
-1.71261e-06
1.21094e-06
-3.22141e-06
5.41989e-07
-6.08055e-06
-1.04936e-05
-2.02933e-07
7.73475e-07
5.75022e-07
1.91133e-06
1.53879e-06
2.55498e-06
2.56359e-06
2.52446e-06
3.47544e-06
2.33095e-06
4.19986e-06
2.03068e-06
4.73076e-06
1.70112e-06
5.0896e-06
1.38573e-06
5.30068e-06
1.10677e-06
5.3889e-06
8.54008e-07
5.36028e-06
6.42903e-07
5.23287e-06
4.35479e-07
5.00062e-06
2.60666e-07
4.67875e-06
2.26128e-08
4.20881e-06
-1.58503e-07
3.64339e-06
-5.11861e-07
2.93328e-06
-1.00249e-06
2.10241e-06
-2.39054e-06
1.02134e-06
-4.99949e-06
-9.47228e-06
-1.02509e-06
1.79856e-06
-3.66178e-07
1.25242e-06
9.65722e-07
1.22308e-06
2.29637e-06
1.19381e-06
3.4569e-06
1.17041e-06
4.40806e-06
1.07952e-06
5.16158e-06
9.47594e-07
5.73853e-06
8.08782e-07
6.16231e-06
6.82992e-07
6.44682e-06
5.6949e-07
6.62213e-06
4.67592e-07
6.68755e-06
3.70066e-07
6.66771e-06
2.80503e-07
6.51378e-06
1.76545e-07
6.28243e-06
7.28424e-08
5.91281e-06
-1.42234e-07
5.36564e-06
-4.55327e-07
4.43834e-06
-1.46324e-06
2.53268e-06
-3.09382e-06
-6.9396e-06
1.79856e-06
3.05098e-06
4.27406e-06
5.46788e-06
6.63829e-06
7.71782e-06
8.66541e-06
9.47419e-06
1.01572e-05
1.07267e-05
1.11943e-05
1.15643e-05
1.18448e-05
1.20214e-05
1.20942e-05
1.1952e-05
1.14967e-05
1.00334e-05
6.9396e-06
)
;

boundaryField
{
    movingWall
    {
        type            calculated;
        value           uniform 0;
    }
    fixedWalls
    {
        type            calculated;
        value           uniform 0;
    }
    frontAndBack
    {
        type            empty;
        value           nonuniform 0();
    }
}


// ************************************************************************* //
