/*--------------------------------*- C++ -*----------------------------------*\
| =========                 |                                                 |
| \\      /  F ield         | OpenFOAM: The Open Source CFD Toolbox           |
|  \\    /   O peration     | Version:  3.0.0                                 |
|   \\  /    A nd           | Web:      www.OpenFOAM.org                      |
|    \\/     M anipulation  |                                                 |
\*---------------------------------------------------------------------------*/
FoamFile
{
    version     2.0;
    format      ascii;
    class       volVectorField;
    location    "5";
    object      U;
}
// * * * * * * * * * * * * * * * * * * * * * * * * * * * * * * * * * * * * * //

dimensions      [0 1 -1 0 0 0 0];

internalField   nonuniform List<vector> 
400
(
(0.00283407 -0.00280969 0)
(0.00511388 -0.00145101 0)
(0.00499179 -0.000158879 0)
(-0.00627563 0.00227051 0)
(-0.0227527 0.00988762 0)
(-0.064652 0.0169495 0)
(-0.0903594 0.0121852 0)
(-0.115989 0.0119486 0)
(-0.131808 0.00854698 0)
(-0.145905 0.00714647 0)
(-0.153429 0.00422244 0)
(-0.157618 0.00280295 0)
(-0.158343 -0.00035182 0)
(-0.152666 -0.00312896 0)
(-0.142782 -0.00626864 0)
(-0.125721 -0.00960834 0)
(-0.102472 -0.0128009 0)
(-0.072064 -0.0153394 0)
(-0.0390251 -0.014963 0)
(-0.00725808 -0.00343781 0)
(0.0020038 -0.00642819 0)
(-0.00275581 0.000414921 0)
(-0.0152613 0.011748 0)
(-0.0476511 0.0319279 0)
(-0.0811925 0.0449541 0)
(-0.105926 0.0405788 0)
(-0.1242 0.0358207 0)
(-0.138932 0.0289616 0)
(-0.150562 0.0206305 0)
(-0.159004 0.0142763 0)
(-0.163819 0.0073817 0)
(-0.165313 0.00163249 0)
(-0.162907 -0.00517193 0)
(-0.157184 -0.0120349 0)
(-0.147194 -0.0208471 0)
(-0.132551 -0.0311505 0)
(-0.112253 -0.0433204 0)
(-0.0861477 -0.0548731 0)
(-0.0546348 -0.0573595 0)
(-0.0162086 -0.0347587 0)
(-0.00280914 -0.000828657 0)
(-0.0179356 0.0186992 0)
(-0.0452705 0.045146 0)
(-0.0761894 0.0616311 0)
(-0.0969394 0.0640534 0)
(-0.111962 0.0570388 0)
(-0.12237 0.0483946 0)
(-0.131678 0.0363962 0)
(-0.136338 0.0277922 0)
(-0.137805 0.0180237 0)
(-0.138141 0.009577 0)
(-0.13682 0.000681196 0)
(-0.134698 -0.00817583 0)
(-0.129626 -0.0180884 0)
(-0.122442 -0.0295551 0)
(-0.111998 -0.0436527 0)
(-0.0980538 -0.0609637 0)
(-0.0787604 -0.0806894 0)
(-0.0534904 -0.0951627 0)
(-0.0204384 -0.0812871 0)
(-0.00636668 0.0155418 0)
(-0.0304709 0.0455275 0)
(-0.0603073 0.0714473 0)
(-0.0808713 0.080202 0)
(-0.0933663 0.0774497 0)
(-0.10163 0.0670957 0)
(-0.1059 0.0550983 0)
(-0.106993 0.0418614 0)
(-0.106372 0.030144 0)
(-0.107234 0.0186744 0)
(-0.106859 0.00901633 0)
(-0.106033 -0.000907082 0)
(-0.103733 -0.0108438 0)
(-0.0997462 -0.0221822 0)
(-0.0941266 -0.0352403 0)
(-0.0867812 -0.0512616 0)
(-0.0772092 -0.07145 0)
(-0.0636014 -0.0961681 0)
(-0.0446963 -0.118921 0)
(-0.0175935 -0.117089 0)
(-0.00885363 0.0371853 0)
(-0.035532 0.0691414 0)
(-0.058241 0.0894482 0)
(-0.0708781 0.0934524 0)
(-0.0790475 0.0859672 0)
(-0.0810998 0.0721675 0)
(-0.0818042 0.0574842 0)
(-0.081441 0.0427501 0)
(-0.0816124 0.0303499 0)
(-0.0816468 0.0186934 0)
(-0.0813544 0.00825955 0)
(-0.080435 -0.00242391 0)
(-0.0784477 -0.0136113 0)
(-0.0750124 -0.0261814 0)
(-0.070435 -0.0405627 0)
(-0.064849 -0.0577333 0)
(-0.0581909 -0.0794292 0)
(-0.0482553 -0.108288 0)
(-0.03533 -0.139042 0)
(-0.0151154 -0.14612 0)
(-0.00714108 0.0570707 0)
(-0.0325928 0.0903175 0)
(-0.0475714 0.103543 0)
(-0.056964 0.102499 0)
(-0.0608685 0.0902707 0)
(-0.0605798 0.0736461 0)
(-0.0608446 0.057462 0)
(-0.060499 0.0425679 0)
(-0.0607743 0.0300367 0)
(-0.06063 0.0184114 0)
(-0.0605736 0.00765608 0)
(-0.0599363 -0.00360053 0)
(-0.0583776 -0.0158761 0)
(-0.0554881 -0.0296606 0)
(-0.0516735 -0.0450522 0)
(-0.0471977 -0.0628127 0)
(-0.0425976 -0.0845173 0)
(-0.0353156 -0.113815 0)
(-0.0292097 -0.152268 0)
(-0.00852261 -0.16887 0)
(-0.00580595 0.0754416 0)
(-0.0255373 0.104772 0)
(-0.0346831 0.113025 0)
(-0.0418521 0.108312 0)
(-0.0431954 0.0922763 0)
(-0.0426438 0.073912 0)
(-0.0430583 0.0571646 0)
(-0.042892 0.0424042 0)
(-0.0431444 0.0297856 0)
(-0.043077 0.0182026 0)
(-0.0432482 0.00724631 0)
(-0.0430298 -0.00448454 0)
(-0.0419576 -0.0177859 0)
(-0.0397087 -0.0327987 0)
(-0.0367036 -0.0491532 0)
(-0.033089 -0.067545 0)
(-0.0302169 -0.0895688 0)
(-0.0240251 -0.120047 0)
(-0.0230587 -0.160378 0)
(-0.00643755 -0.186812 0)
(-0.00266799 0.088504 0)
(-0.0172423 0.116838 0)
(-0.0222585 0.121182 0)
(-0.0277046 0.112214 0)
(-0.0274708 0.0933697 0)
(-0.0272706 0.0740565 0)
(-0.0277481 0.0570925 0)
(-0.0277265 0.0424099 0)
(-0.0279295 0.0297239 0)
(-0.0279463 0.0181748 0)
(-0.0282179 0.00712255 0)
(-0.0282719 -0.0049277 0)
(-0.0275849 -0.019024 0)
(-0.0260065 -0.0349522 0)
(-0.0241016 -0.0519267 0)
(-0.0214478 -0.0705009 0)
(-0.0206769 -0.0921441 0)
(-0.0155733 -0.122926 0)
(-0.0186643 -0.165557 0)
(-0.00242314 -0.200618 0)
(-0.000600594 0.0971523 0)
(-0.0092322 0.122623 0)
(-0.0110933 0.124799 0)
(-0.0146052 0.114 0)
(-0.0136696 0.093984 0)
(-0.0138217 0.0742236 0)
(-0.0142545 0.0571812 0)
(-0.0143051 0.0424987 0)
(-0.0144388 0.0297392 0)
(-0.0144412 0.0181878 0)
(-0.0146176 0.0070981 0)
(-0.0146937 -0.00508256 0)
(-0.0142873 -0.0196177 0)
(-0.013418 -0.0360809 0)
(-0.0129347 -0.053467 0)
(-0.0113023 -0.0721607 0)
(-0.0128882 -0.0936166 0)
(-0.00831441 -0.124764 0)
(-0.0151356 -0.168075 0)
(-0.00107859 -0.21134 0)
(0.00315009 0.0992792 0)
(-0.0016794 0.127286 0)
(-0.00101172 0.128324 0)
(-0.00294539 0.115453 0)
(-0.00159403 0.094479 0)
(-0.00181982 0.0744974 0)
(-0.00203699 0.0573365 0)
(-0.00207203 0.0425834 0)
(-0.00211868 0.0297332 0)
(-0.00204346 0.0181313 0)
(-0.00201854 0.00702483 0)
(-0.00196647 -0.00511875 0)
(-0.00183425 -0.019606 0)
(-0.00169926 -0.0359685 0)
(-0.00275385 -0.0533473 0)
(-0.00227599 -0.0718103 0)
(-0.00653049 -0.0931154 0)
(-0.00237598 -0.124074 0)
(-0.0127487 -0.168463 0)
(0.00168935 -0.219376 0)
(0.00536484 0.0969773 0)
(0.00474692 0.126191 0)
(0.00833489 0.126813 0)
(0.00818254 0.114559 0)
(0.00975057 0.094093 0)
(0.00963094 0.074438 0)
(0.00951103 0.0573412 0)
(0.00950594 0.0425746 0)
(0.00952885 0.0296565 0)
(0.00964623 0.0179778 0)
(0.00975073 0.00685645 0)
(0.00980622 -0.00509648 0)
(0.00962873 -0.019099 0)
(0.00907221 -0.0348715 0)
(0.00673818 -0.0518723 0)
(0.00592779 -0.0699074 0)
(-0.000901776 -0.0911887 0)
(0.00313198 -0.121538 0)
(-0.0111545 -0.16744 0)
(0.00307061 -0.225269 0)
(0.00727353 0.0910901 0)
(0.0109237 0.124344 0)
(0.0169045 0.125611 0)
(0.0182201 0.115192 0)
(0.0202077 0.0940891 0)
(0.0205075 0.074547 0)
(0.020666 0.0573724 0)
(0.0208242 0.0425321 0)
(0.0209319 0.0295544 0)
(0.0210203 0.0178172 0)
(0.021005 0.00669299 0)
(0.0208369 -0.00493995 0)
(0.0201672 -0.0181366 0)
(0.0189201 -0.0329528 0)
(0.0155479 -0.0491027 0)
(0.0133554 -0.0665493 0)
(0.00454026 -0.0874184 0)
(0.00824778 -0.117086 0)
(-0.0102532 -0.164471 0)
(0.00605797 -0.229138 0)
(0.00977305 0.079311 0)
(0.016268 0.115968 0)
(0.0250312 0.119155 0)
(0.0280874 0.111908 0)
(0.031105 0.0929588 0)
(0.0318409 0.0736554 0)
(0.0322133 0.0568374 0)
(0.0325141 0.0422436 0)
(0.0326664 0.029427 0)
(0.0326512 0.0178029 0)
(0.0323544 0.00682371 0)
(0.0317638 -0.00435259 0)
(0.0303936 -0.0166076 0)
(0.0284286 -0.0302643 0)
(0.0240852 -0.0452822 0)
(0.0207412 -0.0619396 0)
(0.0101741 -0.0816956 0)
(0.0131513 -0.111072 0)
(-0.00934784 -0.160375 0)
(0.00880882 -0.231542 0)
(0.0112391 0.0644045 0)
(0.0211741 0.108723 0)
(0.0321609 0.114509 0)
(0.0364064 0.108977 0)
(0.0407098 0.0929444 0)
(0.0426842 0.0735448 0)
(0.0437947 0.0565754 0)
(0.0445917 0.0420196 0)
(0.0450059 0.0293804 0)
(0.0450095 0.0180246 0)
(0.0444372 0.00741197 0)
(0.0433702 -0.0031356 0)
(0.041179 -0.0143335 0)
(0.0384322 -0.0266802 0)
(0.0330029 -0.0403616 0)
(0.0285534 -0.0558979 0)
(0.0160804 -0.074367 0)
(0.0181645 -0.104071 0)
(-0.00810635 -0.155349 0)
(0.0131846 -0.232837 0)
(0.0125519 0.0447742 0)
(0.0241561 0.0934032 0)
(0.0374144 0.104351 0)
(0.0447625 0.10103 0)
(0.0508079 0.0885251 0)
(0.0548118 0.0710347 0)
(0.0570443 0.0549957 0)
(0.0583905 0.0411257 0)
(0.0589918 0.0291254 0)
(0.0589448 0.0184138 0)
(0.0580059 0.00850491 0)
(0.0564118 -0.00120024 0)
(0.0533005 -0.0111697 0)
(0.0497129 -0.022081 0)
(0.0429276 -0.0342019 0)
(0.0373105 -0.0482541 0)
(0.0226055 -0.065225 0)
(0.0237731 -0.0955563 0)
(-0.00655465 -0.149662 0)
(0.0176961 -0.23382 0)
(0.00969521 0.0246558 0)
(0.024915 0.0820217 0)
(0.0386484 0.0959227 0)
(0.0486169 0.0942936 0)
(0.0573769 0.0844397 0)
(0.0644816 0.0690707 0)
(0.0691606 0.0538043 0)
(0.0721059 0.0404171 0)
(0.0736058 0.0290223 0)
(0.0740421 0.0190681 0)
(0.0730211 0.0100942 0)
(0.0712342 0.00147759 0)
(0.0672994 -0.00709614 0)
(0.0629674 -0.0163888 0)
(0.0545606 -0.0266269 0)
(0.0476706 -0.0388129 0)
(0.0304341 -0.0543203 0)
(0.030726 -0.085542 0)
(-0.00465978 -0.142764 0)
(0.02376 -0.233236 0)
(-0.00373747 0.00746554 0)
(0.0181879 0.0592992 0)
(0.036273 0.0777765 0)
(0.0505671 0.0791833 0)
(0.0636347 0.0726066 0)
(0.0747797 0.061421 0)
(0.0828748 0.0493044 0)
(0.0882476 0.0378116 0)
(0.0910865 0.0277462 0)
(0.0923414 0.0190068 0)
(0.0911955 0.0113857 0)
(0.0893005 0.00428213 0)
(0.0842276 -0.00260153 0)
(0.0791737 -0.00987029 0)
(0.0689728 -0.0176684 0)
(0.0610117 -0.0274861 0)
(0.0416753 -0.041575 0)
(0.04081 -0.0732894 0)
(-0.00140571 -0.133593 0)
(0.0314777 -0.226644 0)
(-0.0108675 0.0198482 0)
(0.00346006 0.0543384 0)
(0.0222695 0.0674005 0)
(0.0410275 0.0668781 0)
(0.0592781 0.0612063 0)
(0.0759663 0.0524585 0)
(0.0888672 0.0431725 0)
(0.0984341 0.0347579 0)
(0.103849 0.0272455 0)
(0.107554 0.0204435 0)
(0.107544 0.0145208 0)
(0.106926 0.00904846 0)
(0.102128 0.00409709 0)
(0.0981026 -0.00113797 0)
(0.0882165 -0.0064326 0)
(0.080896 -0.014713 0)
(0.0621044 -0.0268987 0)
(0.0597717 -0.058125 0)
(0.0104539 -0.116805 0)
(0.046437 -0.201426 0)
(-0.0175297 0.00367994 0)
(-0.0193255 0.0108614 0)
(0.00696568 0.0263382 0)
(0.0324753 0.0298619 0)
(0.0568123 0.0301932 0)
(0.0782465 0.0278622 0)
(0.0953563 0.0241877 0)
(0.109301 0.0199709 0)
(0.119141 0.0163239 0)
(0.126735 0.0128958 0)
(0.130876 0.010221 0)
(0.133734 0.00721152 0)
(0.133478 0.0051806 0)
(0.132382 0.00161639 0)
(0.127195 -0.000855416 0)
(0.122821 -0.00697238 0)
(0.108613 -0.0152134 0)
(0.104245 -0.040518 0)
(0.0530138 -0.0848305 0)
(0.0803467 -0.150391 0)
(0.0417292 0.079557 0)
(0.0423066 0.0511874 0)
(0.0712202 0.0313241 0)
(0.0973427 0.0231099 0)
(0.120757 0.0197555 0)
(0.143081 0.0176711 0)
(0.163308 0.0157844 0)
(0.181264 0.0141956 0)
(0.196497 0.0126172 0)
(0.209192 0.0114159 0)
(0.219557 0.00997819 0)
(0.227791 0.00909552 0)
(0.234184 0.00754358 0)
(0.238528 0.00684363 0)
(0.241164 0.00471876 0)
(0.239975 0.00268609 0)
(0.233594 0.00100834 0)
(0.220204 -0.00735745 0)
(0.169523 -0.0169784 0)
(0.156166 -0.0942423 0)
)
;

boundaryField
{
    movingWall
    {
        type            fixedValue;
        value           uniform (1 0 0);
    }
    fixedWalls
    {
        type            fixedValue;
        value           uniform (0 0 0);
    }
    frontAndBack
    {
        type            empty;
    }
}


// ************************************************************************* //
