/*--------------------------------*- C++ -*----------------------------------*\
| =========                 |                                                 |
| \\      /  F ield         | OpenFOAM: The Open Source CFD Toolbox           |
|  \\    /   O peration     | Version:  3.0.0                                 |
|   \\  /    A nd           | Web:      www.OpenFOAM.org                      |
|    \\/     M anipulation  |                                                 |
\*---------------------------------------------------------------------------*/
FoamFile
{
    version     2.0;
    format      ascii;
    class       volScalarField;
    location    "250";
    object      nut;
}
// * * * * * * * * * * * * * * * * * * * * * * * * * * * * * * * * * * * * * //

dimensions      [0 2 -1 0 0 0 0];

internalField   nonuniform List<scalar> 
10720
(
0.0969416
0.101622
0.106956
0.112812
0.119492
0.12701
0.135501
0.144766
0.154762
0.165044
0.175121
0.184059
0.191288
0.196632
0.200091
0.201871
0.202185
0.201322
0.199399
0.196607
0.192921
0.188422
0.183145
0.177336
0.171422
0.165683
0.16009
0.154493
0.148785
0.142961
0.137014
0.130913
0.124617
0.118075
0.111094
0.103553
0.0943
0.0840022
0.0606045
0.0924902
0.0877762
0.0827077
0.0766494
0.0696654
0.0612131
0.0505236
0.0380416
0.0346758
0.0324897
0.0392886
0.045852
0.0511231
0.0556589
0.0599242
0.0641325
0.068335
0.0725028
0.0765824
0.0805414
0.0843707
0.0880768
0.0916742
0.0951543
0.0983337
0.100995
0.103111
0.104728
0.105899
0.106657
0.107048
0.107158
0.107051
0.106693
0.105993
0.104927
0.103052
0.100868
0.0917333
0.100375
0.0999928
0.0993372
0.0984374
0.0974798
0.0964057
0.0953046
0.0943046
0.0943705
0.095465
0.0972594
0.100158
0.104141
0.109044
0.11488
0.121363
0.128373
0.135645
0.143027
0.15016
0.15691
0.162868
0.167698
0.170976
0.172267
0.171655
0.169538
0.166251
0.162143
0.157499
0.152537
0.147409
0.142229
0.137095
0.132112
0.12738
0.123118
0.119303
0.113983
0.100766
0.100846
0.101058
0.100801
0.100291
0.0994737
0.0981861
0.096252
0.0933245
0.0899443
0.0858421
0.0815693
0.0773778
0.0733088
0.0694702
0.0659149
0.0627173
0.0599029
0.0574932
0.0554784
0.0538524
0.0525958
0.0516853
0.0510784
0.0507485
0.0506634
0.0507623
0.0509803
0.0512612
0.0516114
0.0526786
0.0550625
0.0582925
0.0616819
0.0647902
0.0675818
0.0699497
0.0740567
0.0777314
0.121944
0.121772
0.121392
0.120804
0.120122
0.119241
0.118158
0.116937
0.11551
0.114125
0.112944
0.112047
0.111404
0.110991
0.110671
0.110493
0.110543
0.110877
0.111205
0.110795
0.110926
0.111798
0.113232
0.118149
0.125272
0.132699
0.139508
0.145278
0.149829
0.153107
0.15518
0.156206
0.156393
0.155945
0.155062
0.153788
0.15252
0.149838
0.149982
0.122114
0.122062
0.122069
0.121808
0.121359
0.120684
0.119704
0.118381
0.116741
0.114732
0.112357
0.10968
0.106756
0.103597
0.100291
0.0968826
0.093435
0.0899955
0.0866175
0.0833156
0.0801185
0.0770238
0.0740343
0.071061
0.0680546
0.0650783
0.0621724
0.0593791
0.0567293
0.0542578
0.0519639
0.0503367
0.0502056
0.0511989
0.0528741
0.0550306
0.0575964
0.060504
0.0655303
0.129083
0.128976
0.128767
0.128454
0.128075
0.12759
0.12699
0.126299
0.125483
0.124551
0.123506
0.122349
0.121147
0.120003
0.11882
0.117271
0.115463
0.113505
0.111418
0.109185
0.106923
0.104785
0.102819
0.101532
0.101334
0.102311
0.104406
0.110245
0.117708
0.125655
0.133536
0.140961
0.147685
0.153614
0.158808
0.163299
0.16751
0.169915
0.173288
0.129164
0.129161
0.129147
0.129014
0.128779
0.12842
0.127897
0.127188
0.12628
0.125154
0.123801
0.122236
0.120467
0.118486
0.116324
0.113992
0.111518
0.10893
0.106263
0.103533
0.100769
0.0979765
0.0951551
0.0922215
0.0891108
0.0858695
0.0825272
0.0791201
0.0756809
0.0722418
0.0688311
0.0654838
0.0623066
0.0594539
0.0568962
0.0555817
0.0559024
0.0566589
0.0593478
0.13269
0.132617
0.132476
0.132274
0.132032
0.131719
0.131338
0.130895
0.130373
0.129776
0.129099
0.128331
0.127468
0.126506
0.125436
0.124243
0.122881
0.121323
0.119529
0.117494
0.115193
0.112664
0.10991
0.107247
0.105168
0.103559
0.102194
0.100846
0.100732
0.102073
0.107546
0.115258
0.124351
0.134259
0.14456
0.154985
0.165639
0.175921
0.185477
0.132746
0.132741
0.132733
0.132642
0.132493
0.132259
0.131924
0.131477
0.130911
0.130216
0.129387
0.128428
0.127336
0.1261
0.124732
0.123225
0.121589
0.119829
0.117961
0.115989
0.113926
0.111773
0.109524
0.10711
0.104475
0.101641
0.098624
0.0954443
0.0921231
0.0886834
0.0851493
0.0815478
0.0779007
0.0742462
0.0706015
0.0670324
0.0638434
0.060566
0.0591012
0.13475
0.134696
0.134602
0.134465
0.134298
0.134083
0.133823
0.133519
0.133162
0.132753
0.132288
0.13176
0.131164
0.130493
0.129736
0.128883
0.127915
0.12681
0.125536
0.124067
0.12236
0.120389
0.118115
0.115591
0.112983
0.110406
0.107821
0.10559
0.103751
0.102012
0.100674
0.100747
0.104781
0.112105
0.122255
0.135002
0.15011
0.168185
0.186792
0.134785
0.134783
0.134776
0.134714
0.134614
0.134451
0.134219
0.133911
0.133528
0.133064
0.132514
0.131881
0.131163
0.130351
0.129449
0.128451
0.127357
0.126166
0.124883
0.123505
0.122036
0.120471
0.118798
0.116964
0.114919
0.112667
0.110206
0.107543
0.104684
0.101638
0.0984182
0.0950407
0.0915215
0.0878763
0.0841187
0.0802074
0.076156
0.0716499
0.0647934
0.136064
0.136026
0.135957
0.135857
0.135736
0.135581
0.135392
0.135174
0.134918
0.134624
0.134291
0.133912
0.133485
0.133003
0.132457
0.13184
0.131139
0.13034
0.129419
0.128359
0.127128
0.1257
0.124041
0.122135
0.12001
0.117704
0.11521
0.112615
0.110013
0.107353
0.10509
0.103077
0.101322
0.101112
0.105375
0.114294
0.128298
0.15004
0.177816
0.13609
0.136087
0.13608
0.136035
0.135963
0.135844
0.135672
0.135448
0.135172
0.134842
0.134454
0.134011
0.133512
0.132951
0.132328
0.131638
0.130879
0.13005
0.12915
0.128177
0.127128
0.125997
0.124772
0.123413
0.121876
0.120156
0.118244
0.116135
0.113822
0.111302
0.108574
0.105641
0.102509
0.0991826
0.0956627
0.0919134
0.0878294
0.0834109
0.0745937
0.136966
0.136937
0.136886
0.136811
0.13672
0.136603
0.136462
0.136297
0.136105
0.135885
0.135636
0.135352
0.135032
0.13467
0.13426
0.133795
0.133266
0.132664
0.131973
0.131179
0.130262
0.129205
0.127985
0.126584
0.125003
0.123238
0.121258
0.119046
0.116619
0.11398
0.111257
0.108466
0.105866
0.103555
0.101802
0.10259
0.109934
0.128077
0.160853
0.136984
0.136981
0.136974
0.136939
0.136886
0.136795
0.136663
0.136492
0.136284
0.136038
0.135752
0.135428
0.135065
0.13466
0.134212
0.133717
0.133172
0.132576
0.131927
0.131221
0.130456
0.129625
0.128719
0.127706
0.126553
0.125252
0.123791
0.122158
0.120342
0.118331
0.116114
0.113686
0.111038
0.108164
0.105053
0.101671
0.0978572
0.093813
0.0849492
0.13762
0.137597
0.137558
0.137499
0.137429
0.137338
0.137229
0.137102
0.136954
0.136785
0.136593
0.136376
0.136131
0.135854
0.135541
0.135187
0.134784
0.134325
0.133797
0.13319
0.132488
0.131678
0.130744
0.129677
0.12848
0.127139
0.125622
0.1239
0.12195
0.119744
0.117273
0.11455
0.111672
0.108647
0.105857
0.103309
0.102282
0.110562
0.140634
0.137633
0.137628
0.137621
0.137592
0.137552
0.137481
0.137377
0.137242
0.13708
0.136889
0.136669
0.136424
0.136151
0.135848
0.135515
0.135148
0.134745
0.134304
0.133823
0.133299
0.132728
0.132106
0.131422
0.130655
0.12978
0.128787
0.127667
0.126406
0.124991
0.123408
0.121643
0.119682
0.117511
0.115114
0.11247
0.109544
0.10615
0.102562
0.0943897
0.138112
0.138095
0.138063
0.138017
0.137961
0.137889
0.137801
0.1377
0.137582
0.137448
0.137296
0.137124
0.136931
0.136713
0.136466
0.136187
0.135869
0.135507
0.135094
0.13462
0.134075
0.133446
0.132721
0.131893
0.130964
0.129925
0.12875
0.127415
0.12589
0.124141
0.122136
0.119839
0.117234
0.114301
0.111151
0.107765
0.104614
0.102474
0.122949
0.138122
0.138116
0.138109
0.138084
0.138052
0.137996
0.137911
0.137802
0.137672
0.137521
0.137347
0.137156
0.136944
0.136712
0.136457
0.136177
0.135872
0.135538
0.135173
0.134774
0.13434
0.133864
0.133339
0.132748
0.132072
0.131305
0.130436
0.129454
0.128347
0.127102
0.125702
0.124134
0.12238
0.12042
0.118226
0.115764
0.112843
0.109746
0.102531
0.138495
0.138482
0.138456
0.138419
0.138373
0.138314
0.138242
0.138159
0.138064
0.137955
0.137832
0.137694
0.137538
0.137364
0.137167
0.136944
0.136691
0.136404
0.136075
0.135698
0.135263
0.134764
0.134189
0.133534
0.132799
0.131977
0.131048
0.129994
0.128792
0.127411
0.125818
0.123968
0.121817
0.119304
0.116396
0.112964
0.109365
0.103602
0.112311
0.138502
0.138496
0.138488
0.138466
0.138441
0.138395
0.138325
0.138235
0.138128
0.138005
0.137866
0.137712
0.137545
0.137361
0.137162
0.136945
0.136708
0.136449
0.136167
0.135858
0.13552
0.13515
0.13474
0.134277
0.133748
0.133146
0.132463
0.131689
0.130815
0.129828
0.128715
0.127461
0.126048
0.124457
0.122659
0.120621
0.11816
0.115544
0.109357
0.138801
0.13879
0.138769
0.138738
0.138699
0.13865
0.138589
0.13852
0.13844
0.13835
0.138249
0.138135
0.138008
0.137865
0.137704
0.137523
0.137317
0.137084
0.136817
0.136513
0.136163
0.135761
0.1353
0.134776
0.134187
0.133528
0.132783
0.131937
0.130972
0.129867
0.128592
0.127111
0.125376
0.123318
0.120871
0.117817
0.114372
0.108525
0.108397
0.138807
0.1388
0.13879
0.138771
0.13875
0.138712
0.138653
0.138578
0.138489
0.138387
0.138273
0.138147
0.138012
0.137865
0.137706
0.137534
0.137346
0.137142
0.13692
0.136677
0.13641
0.136117
0.135793
0.135425
0.135004
0.134525
0.133981
0.133365
0.132667
0.131878
0.130985
0.129976
0.128835
0.127544
0.126075
0.1244
0.12235
0.120172
0.114979
0.13905
0.139042
0.139023
0.138996
0.138963
0.13892
0.138868
0.13881
0.138742
0.138666
0.138581
0.138487
0.13838
0.138262
0.138129
0.137979
0.13781
0.137618
0.137399
0.13715
0.136863
0.136535
0.13616
0.135734
0.135257
0.134722
0.134118
0.133431
0.132648
0.131751
0.130717
0.129518
0.128114
0.126446
0.124446
0.121896
0.11886
0.113812
0.109068
0.139054
0.139047
0.139036
0.139018
0.139001
0.138969
0.138919
0.138855
0.13878
0.138695
0.138599
0.138496
0.138384
0.138264
0.138135
0.137996
0.137846
0.137682
0.137504
0.13731
0.137097
0.136862
0.136601
0.136306
0.135967
0.135581
0.135143
0.134647
0.134084
0.133446
0.132724
0.131906
0.130979
0.129927
0.128724
0.127348
0.12565
0.123847
0.119553
0.139256
0.139249
0.139232
0.139209
0.139179
0.139141
0.139096
0.139046
0.138988
0.138923
0.138851
0.13877
0.138681
0.138581
0.13847
0.138344
0.138203
0.138043
0.137861
0.137654
0.137418
0.137147
0.136838
0.136488
0.136097
0.135659
0.135164
0.134601
0.133959
0.133223
0.132375
0.131392
0.130244
0.128882
0.127249
0.125171
0.122586
0.118543
0.112235
0.139259
0.139252
0.13924
0.139223
0.139208
0.139181
0.139139
0.139084
0.13902
0.138947
0.138866
0.138779
0.138686
0.138586
0.13848
0.138367
0.138244
0.138112
0.137967
0.13781
0.137638
0.137448
0.137236
0.136995
0.136719
0.136406
0.136049
0.135645
0.135186
0.134667
0.134077
0.133409
0.132651
0.131788
0.130799
0.129665
0.128259
0.126765
0.123248
0.139429
0.139423
0.139407
0.139385
0.139359
0.139325
0.139285
0.139241
0.13919
0.139134
0.139072
0.139004
0.138927
0.138843
0.138749
0.138643
0.138523
0.138389
0.138237
0.138063
0.137864
0.137639
0.137382
0.137091
0.136767
0.136405
0.135995
0.13553
0.134999
0.13439
0.133689
0.132876
0.131927
0.130803
0.129457
0.127764
0.125594
0.122476
0.116141
0.139432
0.139424
0.139412
0.139394
0.139382
0.139359
0.139322
0.139274
0.139219
0.139157
0.139087
0.139013
0.138935
0.138851
0.138763
0.138669
0.138568
0.138459
0.138341
0.138212
0.138071
0.137915
0.137742
0.137544
0.137317
0.137059
0.136767
0.136434
0.136058
0.135631
0.135146
0.134596
0.133971
0.133259
0.132442
0.131502
0.130335
0.129093
0.126224
0.139576
0.139569
0.139554
0.139534
0.13951
0.139479
0.139444
0.139404
0.13936
0.139311
0.139258
0.139199
0.139133
0.139061
0.13898
0.13889
0.138789
0.138674
0.138545
0.138398
0.138231
0.13804
0.137825
0.137581
0.137311
0.137008
0.136666
0.136278
0.135836
0.135329
0.134744
0.134067
0.133276
0.132341
0.13122
0.129827
0.128005
0.12561
0.119955
0.139578
0.13957
0.139557
0.13954
0.139529
0.13951
0.139478
0.139436
0.139388
0.139334
0.139274
0.13921
0.139143
0.139072
0.138998
0.138919
0.138834
0.138744
0.138647
0.13854
0.138423
0.138295
0.138151
0.137987
0.137799
0.137586
0.137343
0.137069
0.136757
0.136403
0.136001
0.135545
0.135027
0.134436
0.133756
0.132974
0.132002
0.130964
0.128625
0.139701
0.139694
0.13968
0.139661
0.139638
0.13961
0.139578
0.139543
0.139504
0.139461
0.139415
0.139364
0.139307
0.139245
0.139176
0.139098
0.139012
0.138914
0.138803
0.138678
0.138536
0.138374
0.138191
0.137985
0.137757
0.137502
0.137215
0.136889
0.136517
0.136092
0.135602
0.135034
0.134371
0.133588
0.132647
0.13149
0.129952
0.128074
0.123315
0.139703
0.139695
0.139683
0.139665
0.139656
0.139639
0.139611
0.139574
0.139532
0.139484
0.139432
0.139377
0.139319
0.139258
0.139195
0.139128
0.139057
0.138981
0.1389
0.138811
0.138714
0.138607
0.138487
0.13835
0.138194
0.138015
0.137813
0.137584
0.137324
0.137029
0.136694
0.136313
0.135881
0.135387
0.134819
0.134165
0.133352
0.132479
0.130569
0.139809
0.139802
0.139787
0.139769
0.139747
0.139722
0.139693
0.139662
0.139628
0.139591
0.13955
0.139505
0.139457
0.139403
0.139343
0.139276
0.139202
0.139118
0.139022
0.138914
0.138792
0.138654
0.138498
0.138323
0.138129
0.137913
0.13767
0.137393
0.137079
0.13672
0.136306
0.135827
0.135268
0.134608
0.133816
0.132845
0.131545
0.130026
0.126131
0.139811
0.139804
0.139791
0.139773
0.139765
0.13975
0.139726
0.139694
0.139656
0.139614
0.139567
0.139519
0.139469
0.139416
0.139362
0.139305
0.139245
0.139181
0.139112
0.139038
0.138956
0.138866
0.138765
0.138651
0.138519
0.13837
0.1382
0.138007
0.137789
0.137542
0.137261
0.136942
0.136578
0.136164
0.135687
0.135136
0.134454
0.133717
0.132154
0.139903
0.139895
0.13988
0.139862
0.139842
0.139819
0.139793
0.139765
0.139735
0.139703
0.139667
0.139629
0.139586
0.13954
0.139488
0.13943
0.139365
0.139293
0.139211
0.139117
0.139012
0.138893
0.138759
0.138609
0.138443
0.138259
0.138051
0.137815
0.137548
0.137242
0.136891
0.136484
0.13601
0.135452
0.13478
0.133962
0.132862
0.1316
0.128439
0.139905
0.139899
0.139885
0.139868
0.13986
0.139848
0.139826
0.139797
0.139764
0.139726
0.139685
0.139642
0.139598
0.139552
0.139505
0.139456
0.139405
0.139351
0.139292
0.139229
0.13916
0.139085
0.139
0.138902
0.138791
0.138665
0.138522
0.13836
0.138176
0.137967
0.13773
0.137461
0.137154
0.136805
0.136402
0.135937
0.135361
0.134737
0.133452
0.139985
0.139975
0.13996
0.139943
0.139924
0.139903
0.13988
0.139856
0.139829
0.139801
0.139771
0.139738
0.139701
0.13966
0.139616
0.139566
0.139509
0.139446
0.139375
0.139294
0.139202
0.139099
0.138983
0.138854
0.138711
0.138552
0.138374
0.138172
0.137943
0.137681
0.137381
0.137034
0.13663
0.136154
0.135583
0.13489
0.133958
0.132891
0.130328
0.139988
0.139982
0.139969
0.139951
0.139944
0.139933
0.139914
0.139888
0.139857
0.139824
0.139787
0.139749
0.13971
0.13967
0.139629
0.139587
0.139542
0.139496
0.139446
0.139393
0.139334
0.13927
0.139198
0.139116
0.139021
0.138914
0.138793
0.138655
0.138499
0.138322
0.138122
0.137894
0.137634
0.137337
0.136996
0.136602
0.136115
0.135582
0.134524
0.140056
0.140046
0.140031
0.140014
0.139997
0.139977
0.139957
0.139936
0.139914
0.139889
0.139863
0.139835
0.139803
0.139768
0.139729
0.139685
0.139636
0.139581
0.139518
0.139448
0.139368
0.139278
0.139177
0.139065
0.138942
0.138805
0.138651
0.138477
0.138279
0.138054
0.137796
0.137499
0.137152
0.136745
0.136257
0.135666
0.134877
0.133962
0.131913
0.14006
0.140055
0.140042
0.140024
0.140017
0.140008
0.139991
0.139968
0.13994
0.139909
0.139876
0.139842
0.139808
0.139772
0.139737
0.1397
0.139662
0.139621
0.139579
0.139533
0.139484
0.139429
0.139367
0.139297
0.139217
0.139125
0.139022
0.138905
0.138773
0.138622
0.138451
0.138258
0.138037
0.137784
0.137493
0.137158
0.136744
0.136289
0.135413
0.140118
0.140107
0.140092
0.140077
0.140061
0.140044
0.140026
0.140009
0.13999
0.139969
0.139947
0.139922
0.139895
0.139864
0.13983
0.139792
0.139749
0.1397
0.139645
0.139583
0.139514
0.139435
0.139347
0.139249
0.139142
0.139024
0.13889
0.138739
0.138569
0.138374
0.138151
0.137894
0.137596
0.137246
0.136827
0.136321
0.135652
0.134858
0.133233
0.140124
0.14012
0.140107
0.140089
0.140083
0.140075
0.14006
0.140038
0.140013
0.139985
0.139955
0.139924
0.139894
0.139862
0.139831
0.139799
0.139766
0.139731
0.139695
0.139655
0.139613
0.139566
0.139513
0.139453
0.139385
0.139307
0.139218
0.139118
0.139005
0.138877
0.138731
0.138565
0.138377
0.138162
0.137913
0.137626
0.137274
0.136884
0.136157
0.140174
0.140162
0.140147
0.140132
0.140118
0.140103
0.140089
0.140074
0.140059
0.140042
0.140023
0.140001
0.139977
0.139951
0.139921
0.139887
0.139849
0.139806
0.139758
0.139703
0.139642
0.139573
0.139496
0.139411
0.139317
0.139214
0.139098
0.138967
0.138819
0.13865
0.138457
0.138234
0.137977
0.137674
0.137313
0.136877
0.136308
0.135616
0.134323
0.14018
0.140178
0.140165
0.140147
0.140141
0.140134
0.140121
0.140101
0.140078
0.140052
0.140024
0.139997
0.139969
0.139942
0.139914
0.139886
0.139857
0.139828
0.139796
0.139762
0.139726
0.139686
0.139641
0.139589
0.13953
0.139463
0.139387
0.139302
0.139205
0.139095
0.13897
0.138828
0.138667
0.138482
0.13827
0.138024
0.137723
0.137387
0.136782
0.140222
0.14021
0.140196
0.140182
0.14017
0.140158
0.140146
0.140135
0.140122
0.140108
0.140092
0.140073
0.140052
0.140028
0.140002
0.139972
0.139938
0.139901
0.139858
0.13981
0.139756
0.139695
0.139628
0.139553
0.139471
0.139381
0.13928
0.139166
0.139036
0.138889
0.138721
0.138528
0.138304
0.138042
0.137731
0.137353
0.136869
0.136264
0.135223
0.14023
0.14023
0.140217
0.140198
0.140193
0.140188
0.140175
0.140157
0.140135
0.140111
0.140086
0.140061
0.140036
0.140012
0.139988
0.139964
0.139939
0.139913
0.139886
0.139857
0.139825
0.139791
0.139752
0.139708
0.139657
0.139599
0.139534
0.139461
0.139377
0.139282
0.139176
0.139054
0.138915
0.138756
0.138574
0.138363
0.138105
0.137816
0.13731
0.140265
0.140253
0.140239
0.140227
0.140217
0.140208
0.140199
0.140191
0.14018
0.140168
0.140154
0.140138
0.140119
0.140098
0.140075
0.140049
0.140019
0.139986
0.139948
0.139906
0.139858
0.139804
0.139744
0.139679
0.139607
0.139528
0.139439
0.139339
0.139226
0.139098
0.138952
0.138784
0.138589
0.138361
0.138091
0.137762
0.137357
0.136826
0.135975
0.140275
0.140276
0.140264
0.140244
0.14024
0.140235
0.140224
0.140207
0.140186
0.140164
0.140141
0.140119
0.140097
0.140075
0.140054
0.140033
0.140011
0.139989
0.139965
0.13994
0.139913
0.139883
0.13985
0.139812
0.139768
0.139718
0.139662
0.139599
0.139527
0.139446
0.139353
0.139249
0.13913
0.138993
0.138836
0.138654
0.138433
0.138184
0.137759
0.140304
0.140291
0.140278
0.140268
0.14026
0.140254
0.140249
0.140242
0.140233
0.140223
0.14021
0.140196
0.14018
0.140162
0.140142
0.140119
0.140093
0.140063
0.14003
0.139992
0.13995
0.139902
0.139849
0.139791
0.139728
0.139659
0.139581
0.139493
0.139394
0.139281
0.139153
0.139006
0.138837
0.138638
0.138404
0.138116
0.137787
0.137322
0.136615
0.140314
0.140317
0.140306
0.140286
0.140282
0.140278
0.140268
0.140251
0.140232
0.140211
0.14019
0.140171
0.140151
0.140132
0.140114
0.140095
0.140076
0.140057
0.140036
0.140015
0.139992
0.139966
0.139937
0.139904
0.139866
0.139823
0.139775
0.13972
0.139659
0.139589
0.13951
0.139419
0.139317
0.1392
0.139064
0.138907
0.138717
0.138502
0.138143
0.140338
0.140326
0.140314
0.140305
0.140301
0.140298
0.140294
0.140289
0.140282
0.140273
0.140262
0.14025
0.140237
0.140221
0.140204
0.140183
0.14016
0.140134
0.140105
0.140071
0.140034
0.139992
0.139945
0.139893
0.139837
0.139776
0.139707
0.13963
0.139542
0.139444
0.139331
0.139202
0.139054
0.138881
0.138681
0.13843
0.138165
0.137761
0.137167
0.140349
0.140355
0.140344
0.140323
0.140321
0.140317
0.140307
0.140291
0.140272
0.140253
0.140235
0.140217
0.140201
0.140184
0.140168
0.140151
0.140135
0.140118
0.140101
0.140082
0.140062
0.14004
0.140015
0.139987
0.139954
0.139917
0.139876
0.139829
0.139777
0.139717
0.13965
0.139572
0.139484
0.139383
0.139266
0.13913
0.138966
0.138779
0.138475
0.140369
0.140357
0.140346
0.14034
0.140339
0.140338
0.140336
0.140332
0.140326
0.140319
0.140311
0.140301
0.140289
0.140276
0.140261
0.140243
0.140223
0.1402
0.140174
0.140144
0.14011
0.140073
0.140031
0.139986
0.139936
0.139882
0.139821
0.139753
0.139675
0.139588
0.139489
0.139376
0.139247
0.139099
0.138934
0.138724
0.138503
0.138151
0.137649
0.14038
0.140388
0.140378
0.140357
0.140355
0.140353
0.140342
0.140326
0.140309
0.140292
0.140276
0.14026
0.140245
0.140231
0.140217
0.140203
0.140188
0.140174
0.140159
0.140143
0.140126
0.140107
0.140086
0.140062
0.140035
0.140004
0.13997
0.139931
0.139887
0.139837
0.13978
0.139714
0.139638
0.139551
0.13945
0.139332
0.139189
0.139027
0.138766
0.140396
0.140386
0.140376
0.140374
0.140375
0.140376
0.140374
0.140371
0.140367
0.140362
0.140356
0.140348
0.140338
0.140327
0.140314
0.140299
0.140281
0.14026
0.140237
0.140211
0.140181
0.140148
0.14011
0.14007
0.140026
0.139978
0.139924
0.139863
0.139795
0.139718
0.139631
0.139534
0.139426
0.139303
0.139167
0.138994
0.138807
0.138506
0.138076
0.140408
0.140418
0.140409
0.140388
0.140386
0.140384
0.140374
0.140358
0.140342
0.140327
0.140313
0.140299
0.140286
0.140274
0.140262
0.14025
0.140237
0.140225
0.140212
0.140199
0.140185
0.140169
0.140152
0.140134
0.140112
0.140088
0.140061
0.140031
0.139995
0.139954
0.139906
0.139851
0.139786
0.139711
0.139623
0.139521
0.139396
0.139253
0.139027
0.140422
0.140411
0.140403
0.140406
0.140409
0.140409
0.140409
0.140408
0.140406
0.140403
0.140398
0.140392
0.140384
0.140375
0.140363
0.14035
0.140335
0.140317
0.140297
0.140273
0.140247
0.140217
0.140184
0.140148
0.140109
0.140066
0.140017
0.139964
0.139903
0.139836
0.139763
0.139683
0.139595
0.139494
0.13938
0.139237
0.139078
0.138827
0.138459
0.140432
0.140444
0.140436
0.140415
0.140415
0.140413
0.140402
0.140387
0.140372
0.140359
0.140347
0.140336
0.140324
0.140314
0.140303
0.140293
0.140283
0.140273
0.140263
0.140253
0.140242
0.14023
0.140219
0.140206
0.140193
0.140176
0.140156
0.140133
0.140105
0.140072
0.140033
0.139986
0.139931
0.139867
0.139791
0.139701
0.139592
0.139466
0.139267
0.140445
0.140435
0.140428
0.140436
0.140439
0.140439
0.140441
0.140442
0.140442
0.14044
0.140437
0.140433
0.140427
0.140419
0.14041
0.140399
0.140386
0.140372
0.140354
0.140334
0.14031
0.140284
0.140254
0.140222
0.140186
0.140148
0.140105
0.140058
0.140006
0.139951
0.139891
0.139825
0.139752
0.139668
0.139572
0.139453
0.139317
0.139112
0.138801
0.140454
0.140466
0.14046
0.14044
0.140441
0.140439
0.140427
0.140412
0.1404
0.140389
0.140378
0.140369
0.14036
0.140351
0.140342
0.140335
0.140327
0.14032
0.140312
0.140305
0.140299
0.140293
0.140289
0.140284
0.140277
0.140267
0.140254
0.140237
0.140216
0.14019
0.140159
0.14012
0.140074
0.140019
0.139954
0.139875
0.139779
0.139668
0.139495
0.140465
0.140456
0.140452
0.140463
0.140465
0.140466
0.140469
0.140471
0.140472
0.140472
0.14047
0.140468
0.140464
0.140459
0.140453
0.140445
0.140436
0.140425
0.140411
0.140396
0.140377
0.140355
0.140331
0.140303
0.140273
0.140239
0.140202
0.140161
0.140117
0.14007
0.140018
0.139961
0.139898
0.139826
0.139744
0.139643
0.139527
0.139359
0.139101
0.140472
0.14048
0.140476
0.140461
0.140462
0.14046
0.140449
0.140435
0.140425
0.140416
0.140407
0.140399
0.140392
0.140386
0.14038
0.140375
0.14037
0.140366
0.140362
0.140359
0.140357
0.140357
0.140358
0.140358
0.140355
0.140349
0.140341
0.14033
0.140316
0.140299
0.140277
0.14025
0.140214
0.140169
0.140113
0.140045
0.139961
0.13986
0.139724
0.140481
0.140474
0.140474
0.140482
0.140483
0.140485
0.140488
0.14049
0.140491
0.140492
0.140492
0.140491
0.14049
0.140488
0.140485
0.140481
0.140476
0.140471
0.140463
0.140454
0.140443
0.14043
0.140415
0.140396
0.140374
0.140347
0.140317
0.140282
0.140243
0.1402
0.140152
0.140099
0.140041
0.139975
0.139902
0.139814
0.139713
0.139573
0.139361
0.140484
0.140488
0.140486
0.140477
0.140475
0.140473
0.140466
0.140455
0.140447
0.14044
0.140434
0.140428
0.140423
0.140419
0.140416
0.140413
0.140411
0.140409
0.140408
0.140408
0.140408
0.140408
0.140409
0.140409
0.140407
0.140403
0.140398
0.140392
0.140384
0.140374
0.140362
0.140346
0.140325
0.140297
0.140259
0.140207
0.140138
0.140045
0.13994
0.14049
0.140487
0.140488
0.140492
0.140494
0.140496
0.140499
0.140501
0.140502
0.140504
0.140505
0.140506
0.140506
0.140505
0.140504
0.140503
0.140501
0.140498
0.140494
0.14049
0.140484
0.140477
0.140469
0.140458
0.140446
0.140431
0.140411
0.140388
0.140359
0.140325
0.140285
0.140237
0.140184
0.140122
0.140054
0.139973
0.139882
0.139761
0.139586
0.140492
0.140494
0.140492
0.140485
0.140483
0.140481
0.140475
0.140469
0.140463
0.140459
0.140454
0.140451
0.140448
0.140446
0.140444
0.140443
0.140441
0.14044
0.14044
0.140439
0.140439
0.140439
0.140439
0.140438
0.140437
0.140435
0.140432
0.140428
0.140424
0.140418
0.140411
0.140403
0.140391
0.140376
0.140356
0.140326
0.140286
0.140211
0.140132
0.140496
0.140494
0.140495
0.140499
0.140501
0.140503
0.140506
0.140508
0.14051
0.140512
0.140514
0.140515
0.140516
0.140517
0.140517
0.140517
0.140517
0.140516
0.140514
0.140512
0.140509
0.140505
0.1405
0.140495
0.140488
0.14048
0.14047
0.140457
0.14044
0.140419
0.140392
0.140357
0.140314
0.140262
0.140201
0.140126
0.140042
0.139932
0.139783
0.140496
0.140497
0.140495
0.14049
0.140488
0.140485
0.140481
0.140476
0.140472
0.140469
0.140466
0.140464
0.140462
0.140461
0.140459
0.140459
0.140458
0.140457
0.140457
0.140457
0.140456
0.140456
0.140457
0.140457
0.140456
0.140455
0.140454
0.140452
0.140449
0.140447
0.140443
0.140438
0.140432
0.140424
0.140413
0.140396
0.140377
0.140333
0.140283
0.140499
0.140498
0.140499
0.140503
0.140505
0.140508
0.140511
0.140513
0.140516
0.140518
0.140521
0.140522
0.140524
0.140525
0.140526
0.140527
0.140528
0.140528
0.140528
0.140527
0.140525
0.140524
0.140521
0.140518
0.140514
0.14051
0.140504
0.140497
0.140488
0.140477
0.140462
0.140442
0.140414
0.140378
0.140331
0.140269
0.140194
0.140094
0.139963
0.140499
0.140499
0.140497
0.140493
0.14049
0.140487
0.140483
0.140479
0.140476
0.140474
0.140472
0.140471
0.14047
0.140469
0.140468
0.140468
0.140468
0.140468
0.140468
0.140467
0.140468
0.140468
0.140468
0.140469
0.140469
0.140469
0.140468
0.140468
0.140467
0.140466
0.140464
0.140462
0.140458
0.140454
0.140448
0.14044
0.140429
0.140407
0.140381
0.1405
0.1405
0.140502
0.140505
0.140508
0.140511
0.140514
0.140517
0.14052
0.140523
0.140525
0.140528
0.14053
0.140532
0.140533
0.140535
0.140536
0.140537
0.140538
0.140538
0.140538
0.140537
0.140536
0.140535
0.140533
0.14053
0.140527
0.140523
0.140518
0.140512
0.140504
0.140493
0.140479
0.140458
0.140429
0.140385
0.140328
0.140243
0.140129
0.1405
0.1405
0.140498
0.140494
0.140491
0.140488
0.140485
0.140481
0.140479
0.140477
0.140476
0.140475
0.140474
0.140474
0.140474
0.140474
0.140474
0.140474
0.140474
0.140475
0.140475
0.140475
0.140476
0.140477
0.140477
0.140478
0.140478
0.140479
0.140479
0.140479
0.140478
0.140478
0.140477
0.140475
0.140472
0.140468
0.140463
0.14045
0.140438
0.140501
0.140501
0.140503
0.140506
0.140509
0.140512
0.140516
0.140519
0.140523
0.140526
0.140529
0.140532
0.140534
0.140537
0.140539
0.140541
0.140543
0.140544
0.140546
0.140547
0.140548
0.140548
0.140548
0.140548
0.140547
0.140546
0.140544
0.140542
0.140539
0.140535
0.140531
0.140525
0.140518
0.140508
0.140492
0.140468
0.140432
0.14037
0.140279
0.1405
0.1405
0.140498
0.140494
0.140491
0.140488
0.140485
0.140481
0.140479
0.140478
0.140477
0.140477
0.140477
0.140477
0.140477
0.140477
0.140478
0.140478
0.140478
0.140479
0.14048
0.14048
0.140481
0.140482
0.140483
0.140484
0.140485
0.140486
0.140487
0.140488
0.140488
0.140489
0.140489
0.140489
0.140489
0.140487
0.140485
0.140478
0.140474
0.140501
0.140501
0.140503
0.140507
0.14051
0.140513
0.140517
0.140521
0.140525
0.140528
0.140531
0.140534
0.140537
0.14054
0.140543
0.140545
0.140548
0.14055
0.140552
0.140554
0.140555
0.140557
0.140558
0.140558
0.140558
0.140558
0.140558
0.140557
0.140556
0.140554
0.140551
0.140548
0.140544
0.140539
0.140531
0.140519
0.140502
0.140463
0.140403
0.140499
0.140499
0.140497
0.140493
0.14049
0.140487
0.140483
0.140481
0.140479
0.140478
0.140477
0.140477
0.140478
0.140478
0.140478
0.140479
0.14048
0.14048
0.140481
0.140481
0.140482
0.140483
0.140484
0.140486
0.140487
0.140488
0.14049
0.140491
0.140492
0.140494
0.140495
0.140497
0.140498
0.140499
0.1405
0.140501
0.140501
0.140498
0.140497
0.1405
0.140501
0.140503
0.140507
0.14051
0.140514
0.140518
0.140522
0.140526
0.140529
0.140533
0.140536
0.14054
0.140543
0.140546
0.140549
0.140552
0.140554
0.140557
0.140559
0.140561
0.140563
0.140565
0.140567
0.140568
0.140568
0.140569
0.140569
0.140569
0.140568
0.140567
0.140566
0.140564
0.140561
0.140557
0.140551
0.140545
0.140524
0.140494
0.140498
0.140497
0.140495
0.140491
0.140488
0.140485
0.140482
0.140479
0.140478
0.140477
0.140477
0.140477
0.140477
0.140478
0.140479
0.140479
0.14048
0.140481
0.140482
0.140483
0.140483
0.140485
0.140486
0.140487
0.140489
0.140491
0.140492
0.140494
0.140496
0.140498
0.1405
0.140502
0.140504
0.140506
0.140508
0.14051
0.140512
0.140511
0.140514
0.140498
0.140499
0.140502
0.140506
0.140509
0.140513
0.140518
0.140522
0.140526
0.14053
0.140534
0.140538
0.140541
0.140545
0.140548
0.140552
0.140555
0.140558
0.140561
0.140564
0.140567
0.140569
0.140571
0.140573
0.140575
0.140576
0.140578
0.140579
0.14058
0.14058
0.14058
0.14058
0.14058
0.140578
0.140577
0.140574
0.140572
0.140561
0.140553
0.140496
0.140495
0.140493
0.140489
0.140486
0.140482
0.140479
0.140477
0.140475
0.140475
0.140475
0.140476
0.140476
0.140477
0.140478
0.140479
0.14048
0.140481
0.140481
0.140482
0.140483
0.140485
0.140486
0.140488
0.14049
0.140491
0.140493
0.140495
0.140497
0.1405
0.140502
0.140505
0.140508
0.14051
0.140513
0.140516
0.140519
0.140521
0.140525
0.140496
0.140497
0.1405
0.140504
0.140508
0.140512
0.140517
0.140522
0.140526
0.14053
0.140535
0.140539
0.140543
0.140546
0.14055
0.140554
0.140557
0.140561
0.140564
0.140567
0.140571
0.140574
0.140576
0.140579
0.140581
0.140583
0.140585
0.140587
0.140589
0.14059
0.140591
0.140592
0.140593
0.140593
0.140593
0.140592
0.140593
0.140586
0.14059
0.140494
0.140493
0.14049
0.140487
0.140483
0.140479
0.140476
0.140474
0.140473
0.140473
0.140473
0.140474
0.140474
0.140475
0.140476
0.140477
0.140478
0.140479
0.14048
0.140481