/*--------------------------------*- C++ -*----------------------------------*\
| =========                 |                                                 |
| \\      /  F ield         | OpenFOAM: The Open Source CFD Toolbox           |
|  \\    /   O peration     | Version:  3.0.0                                 |
|   \\  /    A nd           | Web:      www.OpenFOAM.org                      |
|    \\/     M anipulation  |                                                 |
\*---------------------------------------------------------------------------*/
FoamFile
{
    version     2.0;
    format      ascii;
    class       volScalarField;
    location    "250";
    object      p;
}
// * * * * * * * * * * * * * * * * * * * * * * * * * * * * * * * * * * * * * //

dimensions      [0 2 -2 0 0 0 0];

internalField   nonuniform List<scalar> 
10720
(
1.74508e-05
-80.6916
-175.261
-265.715
-346.318
-427.504
-497.138
-553.144
-600.26
-634.854
-659.063
-675.138
-684.323
-687.188
-684.161
-674.766
-660.213
-639.195
-612.949
-580.1
-541.748
-497.092
-448.441
-396.743
-345.539
-299.949
-258.881
-218.64
-178.91
-139.898
-101.396
-63.2401
-25.3078
12.6537
50.9074
90.5958
131.894
180.757
227.28
83.5909
160.104
245.34
327.647
401.129
461.491
504.797
528.559
535.917
532.698
519.935
500.752
479.466
458.035
437.213
417.062
397.867
379.401
361.477
343.661
325.914
307.942
289.824
271.923
256.018
243.153
232.385
223.371
216.122
210.702
207.036
205.011
204.542
205.628
208.271
212.855
219.878
232.907
255.66
148.137
86.0309
17.5946
-53.749
-125.854
-198.61
-268.009
-331.926
-389.893
-440.153
-482.798
-517.907
-545.314
-565.197
-577.478
-582.312
-580.359
-571.143
-555.274
-532.159
-502.446
-465.906
-424.337
-378.952
-332.929
-290.668
-251.656
-212.992
-174.477
-136.41
-98.6732
-61.1375
-23.7058
13.8574
51.8031
91.2562
132.376
181.166
226.95
204.697
259.351
314.983
370.392
421.314
465.021
498.292
518.658
526.79
524.761
514.277
498.342
479.779
460.188
440.419
420.858
401.833
383.337
365.265
347.355
329.538
311.628
293.705
276.148
260.347
247.201
236.072
226.676
219.046
213.245
209.213
206.857
206.094
206.92
209.344
213.754
220.641
233.59
255.35
171.564
115.869
54.2222
-12.9825
-81.5629
-150.703
-218.815
-283.01
-341.68
-393.95
-438.664
-475.396
-504.221
-525.602
-539.683
-546.755
-546.994
-540.287
-526.902
-506.661
-479.936
-446.828
-408.673
-366.807
-323.846
-283.404
-245.555
-208.045
-170.534
-133.29
-96.2347
-59.2509
-22.2594
14.9553
52.6303
91.8697
132.816
181.433
226.798
222.543
273.164
324.627
374.744
419.78
458.05
487.285
505.826
514.333
514.048
506.235
493.107
476.727
458.637
439.858
420.962
402.324
384.068
366.162
348.435
330.802
313.145
295.53
278.308
262.586
249.239
237.92
228.359
220.57
214.606
210.416
207.913
207.017
207.72
210.042
214.373
221.2
234.036
254.862
208.803
161.934
109.137
51.7929
-7.65004
-69.0105
-130.5
-190.198
-246.694
-298.87
-345.619
-386.296
-420.588
-448.378
-469.533
-483.882
-491.18
-491.315
-484.333
-470.195
-449.154
-421.493
-388.312
-351.013
-311.863
-273.948
-237.834
-201.863
-165.637
-129.431
-93.2323
-56.9478
-20.5186
16.2483
53.5738
92.53
133.238
181.556
226.536
251.242
292.693
335.034
377.022
415.192
448.277
474.241
491.489
500.354
501.578
496.077
485.542
471.561
455.475
438.265
420.541
402.716
385.012
367.477
350.036
332.637
315.23
297.891
280.955
265.337
251.86
240.37
230.62
222.621
216.43
212.011
209.286
208.183
208.702
210.87
215.078
221.803
234.455
254.359
223.6
181.841
134.566
82.802
28.9529
-27.3316
-84.5515
-140.928
-195.361
-246.675
-293.705
-335.672
-371.966
-402.15
-425.914
-442.932
-453.045
-456.17
-452.287
-441.449
-423.825
-399.765
-370.174
-336.381
-300.343
-264.635
-230.062
-195.46
-160.423
-125.218
-89.8771
-54.3235
-18.5063
17.7541
54.6663
93.2727
133.671
181.583
226.032
261.538
298.396
336.097
373.382
407.206
436.769
460.361
476.66
485.795
488.231
484.727
476.533
464.861
450.811
435.272
418.853
401.998
384.994
367.969
350.932
333.876
316.8
299.799
283.19
267.741
254.206
242.579
232.67
224.492
218.107
213.492
210.578
209.301
209.663
211.698
215.794
222.415
234.856
253.825
235.002
197.99
155.813
109.64
61.5274
10.7924
-41.1465
-92.8766
-143.577
-192.151
-237.589
-279.122
-316.037
-347.754
-373.831
-393.881
-407.629
-414.811
-415.202
-408.746
-395.515
-375.822
-350.423
-320.544
-287.901
-254.676
-221.848
-188.716
-154.937
-120.773
-86.3136
-51.5104
-16.3271
19.3989
55.8624
94.0698
134.094
181.485
225.287
268.596
301.069
334.479
367.727
397.991
424.726
446.419
461.922
471.209
474.585
472.712
466.529
456.964
444.901
431.108
416.147
400.454
384.347
368.009
351.518
334.915
318.245
301.625
285.361
270.112
256.567
244.835
234.791
226.449
219.877
215.065
211.955
210.493
210.684
212.57
216.539
223.035
235.223
253.244
240.795
207.376
169.17
127.291
83.7139
37.4806
-10.1364
-57.8952
-105.233
-151.155
-194.774
-235.38
-272.216
-304.625
-332.065
-354.042
-370.075
-379.856
-383.072
-379.657
-369.66
-353.367
-331.42
-304.91
-275.32
-244.466
-213.384
-181.728
-149.231
-116.136
-82.5803
-48.546
-14.0157
21.1531
57.1386
94.9068
134.494
181.247
224.312
271.152
300.381
330.572
360.7
388.18
412.65
432.806
447.604
456.928
461.022
460.457
455.96
448.256
438.045
425.967
412.507
398.072
382.984
367.459
351.625
335.571
319.382
303.195
287.31
272.304
258.81
247.02
236.871
228.39
221.646
216.646
213.347
211.703
211.724
213.46
217.295
223.653
235.547
252.62
243.99
213.646
178.859
140.748
101.174
59.024
15.4761
-28.387
-72.19
-115.078
-156.271
-195.168
-231.056
-263.269
-291.216
-314.341
-332.11
-344.166
-350.125
-349.787
-343.107
-330.283
-311.832
-288.696
-262.159
-233.753
-204.521
-174.411
-143.252
-111.279
-78.6685
-45.4372
-11.5876
23.0015
58.4833
95.7772
134.871
180.876
223.111
271.583
298.074
325.565
353.099
378.28
400.861
419.725
433.877
443.144
447.772
448.235
445.127
439.027
430.489
420.034
408.063
394.936
380.957
366.352
351.282
335.87
320.236
304.537
289.066
274.348
260.961
249.156
238.934
230.334
223.435
218.258
214.774
212.948
212.797
214.377
218.067
224.269
235.828
251.958
245.131
217.345
185.437
150.497
114.313
75.6908
35.6986
-4.6852
-45.2419
-85.2186
-123.958
-160.963
-195.578
-227.165
-255.134
-278.894
-297.868
-311.603
-319.665
-321.759
-317.791
-307.908
-292.52
-272.432
-248.738
-222.709
-195.342
-166.799
-137.009
-106.197
-74.5693
-42.1783
-9.04319
24.9354
59.887
96.6754
135.228
180.389
221.703
270.427
294.661
319.911
345.281
368.53
389.514
407.265
420.818
429.96
434.966
436.231
434.254
429.514
422.454
413.491
402.95
391.132
378.308
364.696
350.47
335.78
320.77
305.613
290.599
276.211
262.987
251.216
240.955
232.263
225.228
219.886
216.225
214.221
213.896
215.316
218.851
224.881
236.065
251.259
244.992
219.406
189.988
157.808
124.576
89.0614
52.2594
15.0515
-22.4566
-59.5987
-95.8326
-130.755
-163.775
-194.331
-221.846
-245.723
-265.379
-280.316
-290.085
-294.304
-292.805
-285.652
-273.143
-255.946
-234.981
-211.301
-185.83
-158.887
-130.496
-100.882
-70.2757
-38.7609
-6.37603
26.9577
61.3461
97.5947
135.57
179.801
220.121
268.32
290.628
313.966
337.486
359.082
378.688
395.461
408.444
417.42
422.679
424.561
423.496
419.894
414.117
406.501
397.299
386.754
375.096
362.521
349.202
335.301
320.976
306.413
291.898
277.885
264.877
253.188
242.925
234.17
227.02
221.527
217.697
215.519
215.021
216.276
219.646
225.485
236.258
250.525
243.967
220.283
193.028
163.25
132.595
99.8125
65.8382
31.4723
-3.24385
-37.7318
-71.5475
-104.374
-135.689
-164.993
-191.759
-215.416
-235.38
-251.13
-262.191
-268.133
-268.709
-263.921
-253.981
-239.421
-221.005
-199.593
-176.017
-150.69
-123.721
-95.3377
-65.7864
-35.1821
-3.58208
29.0718
62.8613
98.5318
135.893
179.121
218.399
265.593
286.244
307.931
329.85
350.005
368.411
384.303
396.744
405.528
410.944
413.293
412.959
410.303
405.627
399.206
391.233
381.899
371.387
359.865
347.492
334.43
320.845
306.924
292.949
279.354
266.614
255.057
244.831
236.043
228.801
223.175
219.186
216.839
216.168
217.254
220.449
226.08
236.406
249.758
242.359
220.344
194.994
167.332
138.947
108.587
77.1396
45.341
13.1753
-18.842
-50.346
-81.0967
-110.639
-138.548
-164.344
-187.491
-207.434
-223.647
-235.645
-242.98
-245.325
-242.623
-234.999
-222.866
-206.84
-187.614
-165.919
-142.217
-116.688
-89.5639
-61.1007
-31.4405
-0.659519
31.2792
64.4339
99.4849
136.196
178.356
216.556
262.497
281.701
301.942
322.452
341.342
358.686
373.776
385.7
394.271
399.768
402.468
402.716
400.84
397.101
391.727
384.865
376.659
367.251
356.773
345.366
333.179
320.375
307.138
293.743
280.607
268.185
256.808
246.66
237.871
230.563
224.822
220.687
218.176
217.334
218.249
221.258
226.663
236.511
248.962
240.373
219.83
196.172
170.389
144.016
115.814
86.6277
57.1441
27.3006
-2.44377
-31.7771
-60.5287
-88.3051
-114.747
-139.434
-161.878
-181.556
-197.954
-210.579
-218.995
-222.803
-221.89
-216.312
-206.372
-192.557
-175.415
-155.566
-133.487
-109.408
-83.5642
-56.2185
-27.5345
2.39304
33.5811
66.0636
100.453
136.473
177.508
214.605
259.19
277.124
296.081
315.341
333.104
349.499
363.853
375.282
383.626
389.147
392.103
392.811
391.575
388.628
384.163
378.293
371.124
362.759
353.3
342.856
331.562
319.568
307.05
294.272
281.636
269.577
258.428
248.399
239.643
232.296
226.46
222.193
219.528
218.517
219.256
222.07
227.232
236.574
248.139
238.151
218.921
196.777
172.675
148.1
121.833
94.677
67.2844
39.5523
11.8993
-15.41
-42.2574
-68.3085
-93.2613
-116.758
-138.359
-157.575
-173.926
-186.915
-196.132
-201.128
-201.738
-197.955
-189.989
-178.21
-163.038
-144.987
-124.517
-101.889
-77.3437
-51.1414
-23.4639
5.5771
35.9787
67.7507
101.436
136.722
176.584
212.556
255.789
272.59
290.404
308.541
325.292
340.825
354.499
365.461
373.565
379.068
382.206
383.274
382.561
380.279
376.596
371.602
365.374
357.983
349.498
340
329.602
318.436
306.663
294.534
282.433
270.779
259.904
250.035
241.347
233.99
228.082
223.698
220.887
219.712
220.273
222.882
227.784
236.596
247.293
235.794
217.746
196.964
174.377
151.417
126.891
101.571
76.0681
50.2604
24.5308
-0.900155
-25.9547
-50.3485
-73.8333
-96.0997
-116.763
-135.378
-151.497
-164.638
-174.41
-180.345
-182.226
-179.996
-173.784
-163.861
-150.536
-134.217
-115.329
-94.1475
-70.9095
-45.8723
-19.2293
8.89323
38.4723
69.4954
102.433
136.942
175.586
210.417
252.372
268.155
284.938
302.059
317.896
332.641
345.684
356.201
364.06
369.509
372.769
374.118
373.831
372.105
369.092
364.868
359.485
352.989
345.422
336.839
327.326
316.993
305.984
294.527
282.992
271.783
261.224
251.557
242.972
235.635
229.679
225.195
222.249
220.915
221.296
223.691
228.317
236.579
246.428
233.374
216.398
196.851
175.637
154.136
131.186
107.531
83.7441
59.692
35.7266
12.0316
-11.3451
-34.1607
-56.214
-77.2455
-96.9163
-114.829
-130.571
-143.688
-153.802
-160.456
-163.379
-162.475
-157.808
-149.564
-137.954
-123.292
-105.95
-86.199
-64.2715
-40.4163
-14.8326
12.3406
41.0626
71.2981
103.445
137.131
174.521
208.199
248.992
263.856
279.702
295.898
310.901
324.92
337.374
347.468
355.08
360.45
363.786
365.349
365.407
364.144
361.704
358.149
353.519
347.838
341.127
333.416
324.763
315.258
305.019
294.254
283.311
272.582
262.379
252.952
244.506
237.22
231.24
226.676
223.608
222.12
222.321
224.495
228.83
236.526
245.548
230.945
214.943
196.522
176.56
156.383
134.87
112.727
90.505
68.0572
45.7076
23.6164
1.80701
-19.518
-40.1945
-60.0077
-78.6627
-95.8066
-111.066
-124.016
-134.291
-141.467
-145.226
-145.438
-142.115
-135.374
-125.346
-112.252
-96.4067
-78.0633
-57.4424
-34.7804
-10.2775
15.9183
43.7491
73.1586
104.472
137.292
173.397
205.911
245.687
259.715
274.704
290.051
304.292
317.637
329.538
339.232
346.595
351.867
355.242
356.967
357.301
356.425
354.471
351.497
347.532
342.588
336.666
329.774
321.95
313.256
303.785
293.721
283.392
273.17
263.36
254.21
245.938
238.734
232.758
228.133
224.956
223.323
223.344
225.289
229.319
236.438
244.657
228.543
213.433
196.046
177.228
158.263
138.059
117.299
96.5057
75.5269
54.6627
34.0532
13.6981
-6.22627
-25.5923
-44.2197
-61.855
-78.1903
-92.8867
-105.557
-115.845
-123.37
-127.779
-128.915
-126.751
-121.344
-112.759
-101.138
-86.7306
-69.7626
-50.437
-28.9737
-5.56888
19.6236
46.5308
75.0763
105.515
137.426
172.222
203.565
242.483
255.745
269.947
284.512
298.05
310.768
322.149
331.459
338.578
343.737
347.121
348.965
349.523
348.967
347.424
344.951
341.571
337.287
332.085
325.958
318.921
311.012
302.3
292.94
283.237
273.547
264.16
255.322
247.258
240.168
234.221
229.557
226.287
224.516
224.359
226.07
229.783
236.32
243.759
226.194
211.906
195.47
177.706
159.849
140.848
121.356
101.874
82.2411
62.743
43.5003
24.4969
5.88227
-12.2404
-29.7257
-46.3551
-61.8618
-75.9424
-88.2448
-98.4289
-106.154
-111.05
-112.937
-111.756
-107.52
-100.241
-89.9907
-76.9544
-61.3215
-43.2722
-23.007
-0.713403
23.453
49.4059
77.0512
106.575
137.536
171.005
201.172
239.395
251.952
265.428
279.27
292.153
304.288
315.177
324.121
330.998
336.035
339.406
341.335
342.07
341.779
340.585
338.544
335.676
331.978
327.43
322.009
315.711
308.553
300.581
291.921
282.853
273.713
264.774
256.28
248.457
241.51
235.621
230.94
227.593
225.695
225.362
226.835
230.221
236.173
242.858
223.918
210.389
194.831
178.041
161.206
143.311
124.987
106.707
88.3135
70.0739
52.095
34.3454
16.9566
0.00645873
-16.3876
-32.0378
-46.7128
-60.1451
-72.0144
-82.0008
-89.7987
-95.0395
-97.5226
-97.164
-93.9464
-87.8388
-78.8526
-67.1126
-52.7665
-35.9677
-16.8938
4.2806
27.4016
52.3724
79.0824
107.653
137.625
169.755
198.747
236.434
248.341
261.143
274.312
286.587
298.173
308.599
317.193
323.833
328.74
332.081
334.068
334.942
334.87
333.971
332.3
329.879
326.701
322.74
317.964
312.356
305.911
298.653
290.681
282.249
273.669
265.202
257.078
249.525
242.751
236.947
232.273
228.865
226.851
226.347
227.578
230.631
236.001
241.96
221.727
208.901
194.16
178.272
162.38
145.507
128.26
111.09
93.8385
76.7601
59.9476
43.3615
27.1139
11.2662
-4.08899
-18.7938
-32.6455
-45.4095
-56.7984
-66.5161
-74.2812
-79.7448
-82.6862
-83.0048
-80.6621
-75.5947
-67.7651
-57.2409
-44.1263
-28.5451
-10.6493
9.40307
31.4634
55.427
81.169
108.75
137.698
168.484
196.301
233.607
244.91
257.085
269.627
281.332
292.403
302.391
310.65
317.058
321.831
325.127
327.15
328.134
328.242
327.591
326.238
324.205
321.486
318.05
313.862
308.889
303.115
296.539
289.238
281.436
273.423
265.441
257.711
250.455
243.883
238.19
233.545
230.096
227.977
227.308
228.297
231.011
235.807
241.069
219.629
207.459
193.476
178.427
163.411
147.485
131.234
115.089
98.896
82.8899
67.157
51.6489
36.4651
21.6504
7.27664
-6.51909
-19.5662
-31.6564
-42.5335
-51.9272
-59.574
-65.156
-68.436
-69.3005
-67.7002
-63.5485
-56.7676
-47.3748
-35.4307
-21.028
-4.29086
14.6423
35.6312
58.5655
83.31
109.869
137.759
167.202
193.85
230.917
241.657
253.246
265.201
276.371
286.957
296.53
304.467
310.65
315.287
318.53
320.57
321.638
321.894
321.452
320.372
318.676
316.359
313.392
309.733
305.344
300.193
294.265
287.611
280.427
272.98
265.494
258.177
251.241
244.897
239.34
234.749
231.277
229.067
228.24
228.988
231.36
235.593
240.19
217.63
206.071
192.798
178.532
164.327
149.283
133.956
118.762
103.547
88.5356
73.8023
59.2959
45.1026
31.2543
17.8067
4.87677
-7.38949
-18.8107
-29.1579
-38.1863
-45.6479
-51.2592
-54.7738
-56.0707
-55.0908
-51.7359
-45.8978
-37.5496
-26.7109
-13.4414
2.16272
19.9846
39.8959
61.7838
85.5039
111.011
137.815
165.92
191.408
228.363
238.578
249.617
261.021
271.69
281.817
290.997
298.626
304.588
309.089
312.269
314.314
315.446
315.824
315.558
314.71
313.306
311.342
308.79
305.606
301.749
297.176
291.856
285.82
279.238
272.352
265.367
258.474
251.879
245.785
240.39
235.874
232.399
230.112
229.135
229.646
231.677
235.363
239.326
215.732
204.745
192.136
178.602
165.156
150.931
136.465
122.154
107.847
93.7563
79.951
66.3745
53.1042
40.1606
27.5851
15.477
3.96157
-6.80125
-16.6101
-25.2437
-32.4694
-38.0373
-41.6972
-43.3249
-42.8562
-40.1887
-35.1918
-27.8007
-17.9988
-5.81183
8.69062
25.416
44.2476
65.0756
87.7494
112.179
137.873
164.651
188.988
225.946
235.668
246.191
257.078
267.273
276.965
285.77
293.104
298.855
303.219
306.332
308.369
309.549
310.025
309.907
309.259
308.108
306.452
304.266
301.508
298.132
294.089
289.337
283.888
277.886
271.549
265.063
258.605
252.365
246.543
241.331
236.913
233.453
231.104
229.988
230.267
231.961
235.119
238.481
213.935
203.486
191.5
178.653
165.915
152.456
138.793
125.303
111.841
98.6061
85.6627
72.9516
60.5399
48.4402
36.6845
25.3546
14.5586
4.43636
-4.83448
-13.0537
-20.0061
-25.471
-29.201
-31.0708
-31.0169
-28.9356
-24.682
-18.1613
-9.32455
1.83329
15.2719
30.9184
48.6754
68.4355
90.0439
113.376
137.94
163.406
186.608
223.661
232.922
242.959
253.357
263.104
272.384
280.834
287.886
293.431
297.659
300.701
302.722
303.937
304.493
304.499
304.021
303.088
301.701
299.838
297.459
294.516
290.957
286.732
281.834
276.387
270.584
264.592
258.572
252.7
247.165
242.157
237.857
234.432
232.036
230.792
230.847
232.21
234.863
237.66
212.24
202.297
190.897
178.694
166.62
153.878
140.965
128.242
115.566
103.128
90.9858
79.0801
67.4694
56.1579
45.1707
34.5765
24.4665
14.9626
6.22391
-1.57143
-8.22282
-13.5382
-17.2758
-19.3133
-19.5883
-18.0006
-14.398
-8.6626
-0.718385
9.46784
21.8818
36.4757
53.1671
71.8548
92.3867
114.605
138.024
162.197
184.281
221.507
230.333
239.911
249.847
259.171
268.06
276.17
282.952
288.299
292.394
295.362
297.361
298.598
299.219
299.33
298.997
298.253
297.1
295.521
293.477
290.923
287.804
284.062
279.68
274.76
269.471
263.964
258.379
252.882
247.649
242.862
238.699
235.327
232.901
231.542
231.382
232.425
234.597
236.865
210.646
201.178
190.331
178.734
167.284
155.214
143.003
130.996
119.054
107.36
95.9639
84.8075
73.9424
63.3684
53.1009
43.1997
33.7419
24.8332
16.6154
9.24672
2.91426
-2.2141
-5.90903
-8.04947
-8.57849
-7.40265
-4.36675
0.664709
7.78935
17.0639
28.4986
42.0681
57.7092
75.3278
94.7731
115.868
138.133
161.035
182.022
219.479
227.894
237.039
246.538
255.46
263.978
271.764
278.288
283.443
287.408
290.3
292.271
293.522
294.195
294.395
294.186
293.604
292.655
291.325
289.578
287.371
284.648
281.349
277.447
273.022
268.226
263.188
258.035
252.915
247.993
243.442
239.433
236.132
233.691
232.23
231.868
232.603
234.322
236.098
209.149
200.131
189.805
178.78
167.916
156.478
144.925
133.588
122.333
111.332
100.632
90.1737
80.0048
70.1184
60.5261
51.2773
42.4371
34.0983
26.3864
19.4428
13.4385
8.5257
4.91308
2.72269
2.00432
2.84188
5.39018
9.79426
16.1703
24.5938
35.0979
47.6779
62.2873
78.8445
97.2021
117.167
138.274
159.931
179.843
217.572
225.6
234.335
243.42
251.96
260.125
267.602
273.878
278.848
282.685
285.502
287.442
288.7
289.414
289.687
289.584
289.142
288.371
287.258
285.774
283.875
281.51
278.614
275.154
271.193
266.863
262.276
257.545
252.801
248.197
243.893
240.054
236.84
234.4
232.852
232.302
232.745
234.04
235.362
207.747
199.154
189.321
178.837
168.524
157.679
146.746
136.037
125.424
115.072
105.022
95.2152
85.6952
76.4522
67.4916
58.8551
50.5988
42.8033
35.5798
29.0555
23.3841
18.7059
15.2085
13.01
12.157
12.7218
14.8524
18.7025
24.3981
32.0317
41.6558
53.2839
66.888
82.3955
99.6694
118.506
138.458
158.896
177.757
215.782
223.444
231.79
240.481
248.659
256.488
263.669
269.707
274.5
278.214
280.954
282.86
284.12
284.867
285.2
285.188
284.867
284.25
283.327
282.073
280.449
278.403
275.872
272.817
269.288
265.397
261.242
256.92
252.547
248.262
244.213
240.556
237.444
235.022
233.402
232.68
232.848
233.752
234.656
206.437
198.247
188.88
178.906
169.113
158.829
148.478
138.359
128.349
118.603
109.16
99.9628
91.0487
82.4065
74.0371
65.976
58.2703
50.9914
44.2366
38.1208
32.7821
28.351
24.9926
22.8229
21.8808
22.2279
24.0051
27.3675
32.449
39.3537
48.1496
58.8673
71.4948
85.9724
102.171
119.887
138.69
157.941
175.776
214.104
221.418
229.395
237.712
245.546
253.055
259.954
265.764
270.386
273.979
276.645
278.515
279.77
280.543
280.928
280.992
280.776
280.292
279.535
278.484
277.102
275.341
273.14
270.455
267.324
263.844
260.098
256.168
252.158
248.191
244.403
240.938
237.941
235.551
233.876
232.999
232.913
233.456
233.982
205.215
197.406
188.481
178.991
169.69
159.934
150.131
140.567
131.122
121.944
113.07
104.442
96.0942
88.0138
80.1979
72.6763
65.4891
58.6994
52.3933
46.6732
41.6638
37.4864
34.2848
32.171
31.1781
31.3562
32.8361
35.7718
40.301
46.5362
54.5569
64.4085
76.093
89.5638
104.704
121.311
138.979
157.074
173.91
212.533
219.518
227.144
235.105
242.611
249.814
256.443
262.036
266.493
269.969
272.561
274.393
275.642
276.433
276.861
276.992
276.865
276.496
275.885
275.011
273.842
272.335
270.43
268.081
265.316
262.218
258.856
255.301
251.643
247.989
244.462
241.197
238.328
235.983
234.268
233.255
232.937
233.153
233.338
204.078
196.631
188.125
179.093
170.256
160.999
151.713
142.671
133.757
125.113
116.771
108.676
100.858
93.3026
86.0045
78.9888
72.2898
65.9624
60.0835
54.7441
50.0577
46.1352
43.1035
41.0675
40.0544
40.104
41.3363
43.9006
47.9358
53.5583
60.8567
69.8878
80.6674
93.1601
107.262
122.779
139.331
156.303
172.169
211.064
217.736
225.029
232.651
239.844
246.755
253.127
258.51
262.809
266.173
268.692
270.486
271.725
272.53
272.992
273.179
273.13
272.862
272.376
271.657
270.677
269.394
267.754
265.709
263.279
260.533
257.531
254.33
251.009
247.66
244.395
241.334
238.6
236.315
234.576
233.446
232.92
232.843
232.724
203.022
195.918
187.81
179.213
170.815
162.03
153.232
144.681
136.267
128.124
120.281
112.684
105.362
98.2977
91.4845
84.943
78.7028
72.8114
67.3378
62.3639
57.991
54.3221
51.4673
49.5248
48.5162
48.4715
49.4993
51.7424
55.3367
60.4011
67.0295
75.2879
85.2025
96.7507
109.841
124.292
139.751
155.635
170.561
209.693
216.067
223.042
230.341
237.236
243.869
249.994
255.177
259.324
262.579
265.027
266.782
268.008
268.823
269.314
269.549
269.566
269.384
269.008
268.425
267.61
266.526
265.122
263.351
261.225
258.802
256.133
253.266
250.265
247.212
244.204
241.349
238.759
236.545
234.796
233.57
232.861
232.523
232.137
202.042
195.265
187.536
179.35
171.369
163.03
154.694
146.606
138.663
130.99
123.615
116.486
109.627
103.023
96.6627
90.5652
84.7554
79.2746
74.1851
69.5594
65.4894
62.0695
59.3954
57.5581
56.573
56.4614
57.3217
59.2875
62.4904
67.048
73.0578
80.5912
89.6844
100.325
112.436
125.849
140.245
155.077
169.092
208.413
214.504
221.177
228.168
234.778
241.145
247.034
252.025
256.026
259.176
261.555
263.271
264.482
265.303
265.818
266.093
266.167
266.06
265.779
265.314
264.644
263.736
262.541
261.015
259.165
257.038
254.677
252.12
249.422
246.652
243.894
241.245
238.804
236.671
234.928
233.626
232.758
232.193
231.574
201.136
194.669
187.3
179.506
171.919
164.003
156.102
148.452
140.951
133.721
126.786
120.095
113.671
107.496
101.561
95.8789
90.4727
85.3783
80.6511
76.3563
72.5769
69.3992
66.9057
65.1807
64.2343
64.0792
64.8026
66.5297
69.386
73.4855
78.9257
85.7824
94.0988
103.872
115.04
127.45
140.814
154.632
167.768
207.221
213.042
219.428
226.124
232.462
238.575
244.237
249.045
252.906
255.954
258.265
259.942
261.138
261.962
262.497
262.805
262.928
262.886
262.687
262.325
261.781
261.027
260.018
258.712
257.109
255.252
253.172
250.903
248.488
245.987
243.472
241.025
238.736
236.693
234.97
233.611
232.61
231.851
231.032
200.298
194.127
187.1
179.679
172.467
164.951
157.462
150.225
143.142
136.328
129.806
123.526
117.508
111.736
106.197
100.905
95.8772
91.1456
86.7596
82.7784
79.276
76.332
74.0169
72.4085
71.5112
71.3305
71.9435
73.4659
76.0155
79.7017
84.6196
90.8472
98.4329
107.383
117.646
129.091
141.461
154.304
166.591
206.112
211.676
217.787
224.203
230.281
236.151
241.596
246.227
249.954
252.903
255.15
256.788
257.966
258.791
259.341
259.678
259.842
259.856
259.728
259.455
259.022
258.403
257.558
256.447
255.067
253.453
251.63
249.626
247.475
245.227
242.944
240.695
238.559
236.613
234.923
233.525
232.416
231.494
230.509
199.526
193.637
186.936
179.868
173.011
165.874
158.776
151.929
145.24
138.818
132.684
126.789
121.153
115.758
110.591
105.662
100.989
96.5974
92.5324
88.8466
85.6076
82.8878
80.7471
79.2561
78.415
78.2232
78.7479
80.0949
82.3737
85.6874
90.1281
95.7734
102.675
110.847
120.25
130.772
142.187
154.095
165.564
205.081
210.4
216.249
222.397
228.226
233.864
239.102
243.563
247.16
250.016
252.198
253.799
254.959
255.782
256.343
256.704
256.904
256.965
256.899
256.703
256.366
255.864
255.164
254.226
253.046
251.65
250.061
248.299
246.392
244.381
242.317
240.26
238.276
236.433
234.786
233.369
232.176
231.12
229.999
198.816
193.194
186.803
180.072
173.552
166.776
160.047
153.569
147.252
141.199
135.43
129.897
124.618
119.575
114.756
110.168
105.826
101.753
97.9892
94.582
91.5917
89.085
87.1129
85.7387
84.9589
84.7664
85.2207
86.4173
88.4573
91.4362
95.442
100.55
106.815
114.255
122.844
132.487
142.991
154.005
164.687
204.123
209.21
214.808
220.699
226.292
231.707
236.746
241.045
244.518
247.282
249.402
250.965
252.106
252.926
253.496
253.876
254.106
254.208
254.194
254.065
253.811
253.413
252.839
252.055
251.052
249.852
248.473
246.931
245.249
243.458
241.6
239.727
237.893
236.156
234.564
233.143
231.89
230.728
229.498
198.164
192.797
186.702
180.29
174.091
167.656
161.277
155.148
149.181
143.477
138.05
132.857
127.914
123.201
118.707
114.437
110.404
106.63
103.148
100.002
97.2468
94.9418
93.1315
91.8714
91.1546
90.9699
91.3684
92.436
94.2652
96.9437
100.554
105.169
110.842
117.598
125.42
134.232
143.87
154.032
163.959
203.235
208.099
213.458
219.105
224.47
229.672
234.521
238.664
242.017
244.694
246.754
248.279
249.402
250.216
250.792
251.188
251.443
251.58
251.611
251.539
251.357
251.049
250.585
249.936
249.09
248.065
246.876
245.533
244.055
242.467
240.802
239.104
237.416
235.787
234.257
232.848
231.556
230.316
229.004
197.565
192.443
186.628
180.522
174.626
168.515
162.468
156.669
151.033
145.657
140.553
135.679
131.05
126.646
122.456
118.484
114.74
111.244
108.026
105.125
102.59
100.475
98.8186
97.6686
97.0154
96.8444
97.1987
98.1557
99.7985
102.208
105.46
109.623
114.75
120.869
127.973
136.002
144.821
154.174
163.379
202.412
207.064
212.195
217.608
222.756
227.754
232.42
236.413
239.652
242.243
244.245
245.734
246.836
247.644
248.224
248.633
248.909
249.074
249.144
249.122
249.002
248.77
248.404
247.872
247.166
246.296
245.276
244.112
242.819
241.417
239.932
238.398
236.851
235.331
233.871
232.487
231.175
229.881
228.511
197.018
192.127
186.581
180.765
175.158
169.355
163.622
158.134
152.812
147.744
142.944
138.37
134.035
129.92
126.014
122.32
118.846
115.61
112.638
109.966
107.638
105.701
104.19
103.145
102.555
102.401
102.72
103.582
105.06
107.228
110.156
113.906
118.531
124.061
130.496
137.791
145.839
154.426
162.941
201.651
206.1
211.013
216.202
221.142
225.946
230.436
234.286
237.414
239.923
241.868
243.321
244.403
245.203
245.784
246.203
246.496
246.687
246.789
246.808
246.741
246.577
246.294
245.866
245.282
244.55
243.68
242.677
241.551
240.318
238.998
237.617
236.206
234.794
233.409
232.062
230.748
229.422
228.016
196.519
191.849
186.558
181.018
175.685
170.174
164.739
159.546
154.519
149.742
145.228
140.935
136.876
133.033
129.392
125.958
122.736
119.741
116.999
114.541
112.405
110.635
109.26
108.315
107.785
107.651
107.943
108.722
110.055
112.007
114.641
118.016
122.181
127.167
132.982
139.594
146.919
154.784
162.642
200.947
205.203
209.907
214.882
219.624
224.241
228.563
232.275
235.297
237.727
239.617
241.034
242.095
242.886
243.467
243.893
244.2
244.411
244.541
244.596
244.574
244.467
244.257
243.919
243.442
242.831
242.094
241.234
240.258
239.178
238.009
236.772
235.489
234.184
232.876
231.577
230.277
228.938
227.515
196.064
191.605
186.558
181.279
176.208
170.973
165.82
160.906
156.158
151.656
147.41
143.382
139.582
135.992
132.599
129.407
126.42
123.651
121.122
118.862
116.905
115.29
114.044
113.192
112.72
112.606
112.876
113.584
114.788
116.546
118.916
121.95
125.695
130.183
135.425
141.403
148.055
155.24
162.474
200.296
204.368
208.874
213.644
218.196
222.634
226.794
230.374
233.294
235.647
237.483
238.866
239.906
240.687
241.266
241.697
242.015
242.243
242.395
242.48
242.496
242.438
242.291
242.031
241.647
241.143
240.523
239.79
238.948
238.006
236.974
235.869
234.707
233.506
232.279
231.035
229.762
228.428
227.007
195.65
191.392
186.577
181.548
176.724
171.752
166.867
162.217
157.732
153.489
149.496
145.716
142.158
138.805
135.644
132.677
129.909
127.349
125.019
122.943
121.153
119.683
118.554
117.789
117.372
117.279
117.532
118.177
119.266
120.851
122.982
125.708
129.071
133.103
137.82
143.212
149.238
155.788
162.432
199.697
203.592
207.908
212.483
216.853
221.119
225.125
228.577
231.399
233.678
235.462
236.81
237.829
238.598
239.175
239.609
239.935
240.176
240.347
240.457
240.506
240.489
240.395
240.203
239.901
239.489
238.972
238.351
237.628
236.809
235.902
234.918
233.869
232.768
231.624
230.44
229.205
227.891
226.487
195.275
191.208
186.613
181.823
177.234
172.511
167.879
163.479
159.243
155.243
151.488
147.941
144.61
141.479
138.534
135.778
133.212
130.848
128.702
126.797
125.161
123.824
122.805
122.12
121.754
121.682
121.92
122.51
123.497
124.927
126.843
129.29
132.307
135.924
140.16
145.015
150.461
156.419
162.506
199.144
202.872
207.007
211.394
215.59
219.692
223.549
226.879
229.606
231.814
233.546
234.86
235.858
236.616
237.188
237.623
237.955
238.206
238.393
238.523
238.599
238.618
238.569
238.435
238.203
237.872
237.445
236.922
236.304
235.596
234.801
233.928
232.984
231.979
230.916
229.797
228.611
227.329
225.954
194.936
191.051
186.666
182.101
177.736
173.25
168.858
164.693
160.692
156.922
153.39
150.062
146.944
144.02
141.277
138.716
136.34
134.156
132.181
130.434
128.94
127.726
126.808
126.198
125.879
125.826
126.052
126.593
127.489
128.78
130.504
132.7
135.403
138.643
142.442
146.804
151.718
157.125
162.688
198.635
202.203
206.164
210.373
214.403
218.347
222.062
225.275
227.91
230.048
231.731
233.012
233.988
234.733
235.299
235.734
236.07
236.329
236.528
236.675
236.773
236.822
236.811
236.727
236.555
236.295
235.946
235.508
234.984
234.373
233.679
232.906
232.06
231.145
230.163
229.112
227.98
226.742
225.407
194.629
190.918
186.733
182.383
178.23
173.969
169.804
165.862
162.082
158.528
155.206
152.083
149.164
146.433
143.879
141.501
139.3
137.284
135.466
133.866
132.503
131.402
130.577
130.035
129.759
129.723
129.939
130.437
131.252
132.418
133.969
135.939