/*--------------------------------*- C++ -*----------------------------------*\
| =========                 |                                                 |
| \\      /  F ield         | OpenFOAM: The Open Source CFD Toolbox           |
|  \\    /   O peration     | Version:  3.0.0                                 |
|   \\  /    A nd           | Web:      www.OpenFOAM.org                      |
|    \\/     M anipulation  |                                                 |
\*---------------------------------------------------------------------------*/
FoamFile
{
    version     2.0;
    format      ascii;
    class       surfaceScalarField;
    location    "250";
    object      phi;
}
// * * * * * * * * * * * * * * * * * * * * * * * * * * * * * * * * * * * * * //

dimensions      [0 3 -1 0 0 0 0];

internalField   nonuniform List<scalar> 
21254
(
-0.269661
0.288569
-0.0189075
0.310027
-0.0214579
0.327836
-0.0178094
0.343402
-0.0155655
0.357961
-0.0145591
0.369052
-0.0110919
0.377343
-0.00829028
0.38372
-0.00637706
0.387226
-0.00350653
0.389028
-0.00180127
0.389235
-0.000207419
0.387483
0.00175176
0.384401
0.00308254
0.380217
0.00418325
0.374899
0.00531805
0.368796
0.00610374
0.361702
0.00709352
0.353709
0.00799296
0.344626
0.00908281
0.334644
0.00998221
0.323381
0.0112628
0.311385
0.0119964
0.298896
0.0124893
0.287225
0.0116706
0.277587
0.0096377
0.269274
0.00831381
0.261128
0.00814548
0.252833
0.00829559
0.244053
0.00877906
0.234703
0.00935016
0.224754
0.00994966
0.214186
0.0105672
0.202918
0.0112683
0.190683
0.0122355
0.176906
0.0137769
0.160466
0.01644
0.138964
0.0215013
0.107482
0.0314826
0.090406
0.0170783
-0.246744
-0.0229164
-0.223185
-0.0235599
-0.19369
-0.0294949
-0.160983
-0.0327065
-0.126248
-0.0347351
-0.0899733
-0.0362747
-0.0536868
-0.0362865
-0.0193564
-0.0343303
0.0117631
-0.0311195
0.0394326
-0.0276695
0.0633437
-0.0239111
0.0837966
-0.0204529
0.101225
-0.017428
0.115928
-0.0147036
0.128554
-0.0126257
0.139457
-0.0109033
0.149129
-0.00967222
0.157828
-0.00869901
0.165875
-0.00804627
0.173411
-0.00753609
0.18062
-0.00720882
0.18751
-0.00688996
0.194027
-0.00651776
0.199576
-0.00554911
0.203973
-0.00439659
0.207485
-0.00351222
0.210112
-0.00262666
0.211964
-0.00185218
0.213075
-0.00111128
0.213472
-0.000397003
0.213032
0.000439964
0.211767
0.00126503
0.209795
0.00197279
0.207209
0.00258565
0.203914
0.00329509
0.199534
0.00437985
0.192987
0.00654732
0.179179
0.0138075
0.158632
0.0205469
-0.246798
0.268415
-0.0405246
0.290433
-0.0434757
0.313269
-0.0406458
0.334442
-0.036738
0.354998
-0.0351153
0.373868
-0.0299624
0.390696
-0.0251185
0.405762
-0.0214428
0.418655
-0.0163994
0.429442
-0.0125879
0.438375
-0.00914033
0.445727
-0.0056007
0.451489
-0.00267885
0.455521
0.000151082
0.457695
0.00314389
0.457717
0.00608127
0.455583
0.00922795
0.45148
0.0120958
0.444959
0.0156037
0.436396
0.0185457
0.425444
0.0222148
0.412471
0.0249687
0.397528
0.0274329
0.381317
0.0278813
0.36515
0.025805
0.349457
0.0240063
0.334292
0.0233104
0.319829
0.0227584
0.305844
0.0227649
0.292154
0.0230398
0.278527
0.0235766
0.264783
0.024311
0.250654
0.0253977
0.235896
0.0269936
0.220066
0.0296068
0.202068
0.0344381
0.1805
0.0430687
0.146348
0.065635
0.10417
0.0592578
-0.224614
-0.0451002
-0.200855
-0.0473186
-0.172986
-0.057364
-0.143375
-0.062317
-0.111769
-0.0663409
-0.0786157
-0.0694284
-0.0454617
-0.0694404
-0.0137222
-0.0660699
0.0159224
-0.0607642
0.042725
-0.0544721
0.066218
-0.0474041
0.0866894
-0.0409242
0.104582
-0.0353202
0.120173
-0.0302954
0.133889
-0.0263411
0.146026
-0.0230406
0.156879
-0.0205253
0.166756
-0.0185758
0.175915
-0.0172052
0.18448
-0.0161009
0.192616
-0.0153448
0.200401
-0.0146758
0.207776
-0.0138919
0.214301
-0.0120741
0.219709
-0.00980462
0.224196
-0.00799914
0.227758
-0.00618891
0.230449
-0.00454354
0.232298
-0.00296047
0.233381
-0.00147937
0.233836
-1.55655e-05
0.233729
0.00137261
0.232937
0.0027645
0.231393
0.00412998
0.229021
0.00566639
0.225579
0.007822
0.221103
0.0110234
0.211138
0.0237719
0.192007
0.0396781
-0.239245
0.260834
-0.0621132
0.282466
-0.0651083
0.305735
-0.0639144
0.326899
-0.0579017
0.346866
-0.0550824
0.365864
-0.0489603
0.382595
-0.0418495
0.397489
-0.0363371
0.410098
-0.0290081
0.42076
-0.02325
0.429451
-0.0178313
0.436404
-0.0125539
0.441512
-0.00778722
0.44531
-0.00364622
0.447653
0.000800539
0.449208
0.00452585
0.449575
0.00886146
0.44905
0.0126206
0.447244
0.0174095
0.44405
0.0217399
0.439315
0.0269504
0.432838
0.0314452
0.424588
0.0356831
0.414684
0.0377853
0.403702
0.036787
0.391757
0.0359508
0.37879
0.0362777
0.364993
0.0365552
0.350571
0.0371867
0.335634
0.0379773
0.320321
0.0388893
0.304643
0.0399895
0.288508
0.0415325
0.2717
0.0438015
0.253775
0.0475316
0.233642
0.0545712
0.21003
0.0666812
0.175024
0.10064
0.125926
0.108357
-0.217449
-0.0668966
-0.193383
-0.0713841
-0.164479
-0.0862683
-0.134268
-0.0925277
-0.102563
-0.0980457
-0.0694864
-0.102505
-0.0366702
-0.102257
-0.00589324
-0.0968468
0.0226461
-0.0893036
0.048661
-0.080487
0.0718227
-0.0705659
0.0922953
-0.0613968
0.110365
-0.0533902
0.1263
-0.0462305
0.140416
-0.040457
0.153031
-0.0356552
0.164406
-0.0319001
0.174805
-0.0289755
0.184443
-0.0268424
0.193486
-0.0251439
0.202122
-0.0239815
0.210377
-0.022931
0.218173
-0.0216874
0.225221
-0.0191222
0.231244
-0.0158274
0.236338
-0.0130931
0.240561
-0.0104123
0.243947
-0.00792897
0.246559
-0.00557297
0.24839
-0.00330998
0.249503
-0.00112874
0.249903
0.000972197
0.249627
0.00304117
0.248615
0.00514176
0.246781
0.00750041
0.243763
0.0108396
0.239178
0.0156084
0.229471
0.033479
0.211036
0.0581137
-0.230597
0.253322
-0.084838
0.27601
-0.0877959
0.300874
-0.0887786
0.323496
-0.0805234
0.345304
-0.0768913
0.366087
-0.0697425
0.385074
-0.0608367
0.402037
-0.0533005
0.417225
-0.0441954
0.430422
-0.0364475
0.441739
-0.0291483
0.451201
-0.0220158
0.458859
-0.0154457
0.464755
-0.00954187
0.469148
-0.00359213
0.47164
0.00203378
0.472432
0.00806968
0.471313
0.0137391
0.468664
0.0200586
0.464377
0.0260268
0.458611
0.0327163
0.451605
0.0384509
0.443456
0.043833
0.434626
0.0466152
0.425494
0.0459188
0.416076
0.0453681
0.405973
0.0463808
0.395025
0.0475035
0.38306
0.0491516
0.369931
0.0511069
0.355673
0.0531468
0.340315
0.055348
0.323878
0.0579693
0.306232
0.0614473
0.287083
0.0666804
0.265395
0.0762594
0.239836
0.0922402
0.203346
0.137131
0.152518
0.159185
-0.208151
-0.0893433
-0.183985
-0.0955496
-0.154605
-0.115648
-0.124332
-0.1228
-0.0926477
-0.12973
-0.0595674
-0.135585
-0.0269899
-0.134834
0.0033371
-0.127174
0.0312134
-0.11718
0.0566496
-0.105923
0.0793353
-0.0932515
0.0994861
-0.0815477
0.117461
-0.0713654
0.133482
-0.0622508
0.147862
-0.0548374
0.160832
-0.0486254
0.172658
-0.043726
0.183522
-0.0398391
0.19365
-0.0369706
0.203186
-0.0346802
0.212245
-0.0330398
0.220897
-0.0315831
0.229093
-0.0298835
0.236528
-0.0265579
0.242966
-0.0222648
0.248461
-0.0185887
0.253059
-0.0150101
0.256808
-0.0116778
0.259741
-0.00850617
0.261916
-0.0054844
0.263362
-0.00257493
0.264107
0.000227344
0.26416
0.00298809
0.263512
0.0057893
0.26206
0.00895235
0.259453
0.0134469
0.25515
0.0199117
0.245978
0.0426509
0.22778
0.076311
-0.225946
0.249457
-0.108348
0.273004
-0.111343
0.299288
-0.115062
0.322666
-0.103902
0.345522
-0.099747
0.367438
-0.0916589
0.387356
-0.080755
0.405346
-0.0712897
0.421741
-0.0605904
0.435864
-0.0505705
0.44812
-0.0414043
0.458453
-0.0323488
0.46717
-0.024163
0.473922
-0.0162937
0.478873
-0.00854289
0.482092
-0.00118561
0.483745
0.00641635
0.483855
0.0136292
0.482163
0.0217509
0.478947
0.0292423
0.474069
0.0375951
0.467683
0.0448361
0.460045
0.0514714
0.451556
0.0551043
0.442781
0.0546942
0.433903
0.0542461
0.424745
0.055539
0.415201
0.057047
0.405081
0.0592713
0.39417
0.0620179
0.382184
0.0651336
0.368879
0.0686524
0.354052
0.0727966
0.337434
0.078065
0.318625
0.0854889
0.296705
0.0981798
0.270183
0.118762
0.232614
0.1747
0.181172
0.210628
-0.202444
-0.112845
-0.177566
-0.120428
-0.146925
-0.146289
-0.115835
-0.15389
-0.0834639
-0.162101
-0.0498169
-0.169232
-0.0168479
-0.167803
0.013466
-0.157488
0.0410354
-0.144749
0.0661092
-0.130997
0.0883886
-0.115531
0.108182
-0.101341
0.12597
-0.0891526
0.141946
-0.0782275
0.156417
-0.069308
0.16964
-0.0618481
0.181783
-0.0558696
0.193024
-0.0510794
0.203548
-0.0474947
0.213493
-0.0446253
0.222955
-0.0425023
0.231978
-0.0406055
0.240532
-0.0384379
0.248355
-0.0343804
0.255189
-0.0290995
0.261064
-0.0244629
0.266009
-0.0199559
0.270079
-0.0157477
0.273302
-0.011729
0.275711
-0.00789364
0.27735
-0.0042141
0.278272
-0.000694396
0.278482
0.00277868
0.277947
0.00632412
0.276628
0.0102709
0.274162
0.0159133
0.269988
0.024086
0.261347
0.0512918
0.243748
0.0939095
-0.222125
0.246661
-0.132884
0.271589
-0.136272
0.299277
-0.14275
0.323919
-0.128544
0.347835
-0.123663
0.371202
-0.115025
0.392151
-0.101704
0.411518
-0.0906567
0.428977
-0.0780499
0.444433
-0.0660262
0.458108
-0.0550793
0.469809
-0.0440501
0.479782
-0.0341361
0.488002
-0.0245138
0.494321
-0.0148611
0.499069
-0.00593367
0.501843
0.00364173
0.50274
0.0127329
0.501894
0.0225963
0.499141
0.031996
0.494547
0.0421883
0.488357
0.0510265
0.480735
0.0590937
0.472116
0.0637228
0.463023
0.0637878
0.453716
0.0635522
0.444148
0.0651075
0.434321
0.0668736
0.424218
0.0693749
0.413727
0.0725082
0.402724
0.0761373
0.390902
0.0804738
0.377915
0.0857837
0.363262
0.0927183
0.34627
0.102481
0.325698
0.118753
0.29986
0.144599
0.262437
0.212124
0.211042
0.262023
-0.197655
-0.137315
-0.171974
-0.146109
-0.140041
-0.178222
-0.107822
-0.186109
-0.0744787
-0.195445
-0.0399531
-0.203758
-0.00630585
-0.20145
0.0242957
-0.188089
0.0518718
-0.172325
0.0767889
-0.155914
0.0987915
-0.137534
0.118267
-0.120817
0.135807
-0.106693
0.151653
-0.0940732
0.166109
-0.0837646
0.179431
-0.0751698
0.191772
-0.0682107
0.20331
-0.0626169
0.214169
-0.0583542
0.224473
-0.0549287
0.234309
-0.0523392
0.243705
-0.0500008
0.25261
-0.0473434
0.260845
-0.0426151
0.268087
-0.0363411
0.274322
-0.030698
0.279633
-0.0252668
0.284016
-0.020131
0.287519
-0.0152322
0.290173
-0.0105472
0.292018
-0.00605923
0.293081
-0.00175801
0.293378
0.00248161
0.292931
0.00677111
0.291604
0.0115982
0.289128
0.0183891
0.284854
0.0283601
0.276482
0.059664
0.259532
0.110859
-0.219807
0.245688
-0.158765
0.271639
-0.162223
0.30091
-0.172021
0.326851
-0.154485
0.352054
-0.148866
0.376512
-0.139484
0.398679
-0.123871
0.418926
-0.110903
0.437489
-0.0966127
0.453934
-0.0824721
0.468487
-0.0696315
0.481299
-0.0568624
0.492233
-0.0450698
0.501352
-0.0336332
0.508726
-0.0222352
0.514157
-0.0113643
0.517833
-3.38922e-05
0.519662
0.0109036
0.519668
0.0225902
0.51779
0.0338738
0.514077
0.0459013
0.508597
0.0565064
0.501688
0.0660027
0.493539
0.0718718
0.48467
0.0726574
0.47532
0.0729019
0.465503
0.0749247
0.455259
0.0771171
0.444679
0.0799556
0.433724
0.0834627
0.422388
0.0874736
0.410591
0.09227
0.39814
0.0982353
0.384595
0.106263
0.369301
0.117774
0.350866
0.137188
0.327213
0.168253
0.291792
0.247544
0.241548
0.312268
-0.19412
-0.163002
-0.167326
-0.172903
-0.133953
-0.211595
-0.100435
-0.219627
-0.0659107
-0.229969
-0.0301598
-0.239509
0.00442191
-0.236032
0.0356338
-0.219301
0.0635138
-0.200205
0.0885321
-0.180932
0.110384
-0.159385
0.129625
-0.140058
0.146932
-0.124
0.162591
-0.109733
0.176942
-0.0981155
0.190274
-0.0885015
0.202738
-0.0806749
0.214474
-0.0743525
0.225606
-0.0694865
0.236223
-0.0655459
0.24639
-0.0625063
0.256123
-0.0597333
0.265398
-0.0566187
0.273978
-0.0511949
0.28163
-0.0439927
0.288275
-0.037343
0.293932
-0.0309242
0.298651
-0.0248497
0.302434
-0.0190152
0.305342
-0.0134559
0.30738
-0.00809673
0.308605
-0.0029835
0.309032
0.00205504
0.308617
0.00718602
0.307318
0.0128973
0.304779
0.0209283
0.300351
0.0327878
0.292063
0.0679521
0.2757
0.127222
-0.218302
0.245523
-0.185986
0.272928
-0.189628
0.303897
-0.20299
0.331044
-0.181633
0.357558
-0.17538
0.383293
-0.165219
0.406503
-0.147082
0.428015
-0.132415
0.447421
-0.116019
0.464853
-0.0999036
0.480519
-0.0852976
0.494246
-0.0705895
0.506116
-0.0569398
0.516249
-0.043766
0.524574
-0.03056
0.531046
-0.017837
0.535694
-0.00468203
0.53847
0.00812812
0.539263
0.0217976
0.538097
0.035039
0.535076
0.0489227
0.530207
0.0613756
0.523743
0.0724668
0.516045
0.0795692
0.507439
0.0812638
0.498179
0.0821615
0.488326
0.0847782
0.477886
0.0875567
0.466912
0.0909298
0.455473
0.0949011
0.443527
0.0994204
0.431121
0.104676
0.418151
0.111206
0.404477
0.119937
0.389609
0.132642
0.372506
0.15429
0.351255
0.189505
0.319305
0.279494
0.271725
0.359848
-0.191388
-0.189916
-0.163443
-0.200848
-0.12835
-0.246687
-0.0933129
-0.254665
-0.0573716
-0.26591
-0.0202652
-0.276615
0.0155045
-0.271802
0.0475486
-0.251345
0.0759384
-0.228595
0.101199
-0.206193
0.123078
-0.181264
0.142173
-0.159153
0.159281
-0.141108
0.174742
-0.125194
0.18895
-0.112323
0.20224
-0.101791
0.214729
-0.0931646
0.22659
-0.0862129
0.237914
-0.0808108
0.248787
-0.0764186
0.259235
-0.0729541
0.269296
-0.069795
0.278912
-0.0662338
0.287873
-0.0601567
0.295912
-0.0520317
0.302943
-0.0443733
0.308974
-0.036956
0.314036
-0.029911
0.31812
-0.0231001
0.321272
-0.0166075
0.323538
-0.0103623
0.324924
-0.00437007
0.325465
0.00151391
0.325128
0.00752344
0.323811
0.0142141
0.321212
0.0235275
0.316648
0.037352
0.308376
0.0762235
0.292603
0.142995
-0.21776
0.246343
-0.21457
0.275201
-0.218486
0.30787
-0.235659
0.336418
-0.210181
0.364424
-0.203385
0.391533
-0.192328
0.41599
-0.171538
0.438396
-0.154821
0.458957
-0.136581
0.477254
-0.1182
0.493657
-0.101701
0.508241
-0.085174
0.521022
-0.0697199
0.531996
-0.0547409
0.54117
-0.0397336
0.548568
-0.0252345
0.554044
-0.0101585
0.557582
0.00459056
0.559157
0.0202218
0.558739
0.0354576
0.556417
0.0512443
0.552241
0.0655515
0.546389
0.0783195
0.539183
0.0867745
0.530954
0.0894932
0.521904
0.0912116
0.512086
0.0945959
0.501577
0.0980661
0.490439
0.102068
0.478665
0.106675
0.46627
0.111815
0.453266
0.11768
0.439605
0.124867
0.425175
0.134367
0.409744
0.148073
0.392606
0.171428
0.372626
0.209484
0.344321
0.307798
0.30037
0.403799
-0.189341
-0.218335
-0.160039
-0.230151
-0.123174
-0.283552
-0.0865939
-0.291245
-0.0490034
-0.303501
-0.0103211
-0.315297
0.0269146
-0.309038
0.0599712
-0.284402
0.0890627
-0.257687
0.114765
-0.231896
0.136797
-0.203296
0.155869
-0.178225
0.172846
-0.158085
0.188133
-0.14048
0.202176
-0.126367
0.215344
-0.114959
0.227811
-0.105632
0.239723
-0.0981244
0.251172
-0.0922602
0.262243
-0.0874896
0.272963
-0.0836741
0.283298
-0.0801298
0.293226
-0.0761625
0.302554
-0.0694839
0.310997
-0.0604755
0.318399
-0.0517747
0.324807
-0.043364
0.330192
-0.0352964
0.334601
-0.0275086
0.33803
-0.020037
0.340511
-0.0128431
0.342084
-0.0059431
0.342739
0.000859129
0.342475
0.0077873
0.341188
0.0155009
0.338547
0.026169
0.33383
0.0420692
0.3256
0.0844532
0.310417
0.158178
-0.217722
0.247931
-0.244779
0.278343
-0.248897
0.312916
-0.270232
0.342921
-0.240186
0.372208
-0.232673
0.400807
-0.220927
0.426448
-0.197178
0.450016
-0.178389
0.471585
-0.15815
0.490787
-0.137402
0.508078
-0.118992
0.523581
-0.100677
0.5371
-0.0832389
0.548828
-0.0664685
0.558908
-0.0498145
0.567044
-0.0333704
0.573341
-0.0164552
0.577652
0.000279788
0.580057
0.0178163
0.580447
0.0350679
0.578746
0.0529449
0.575228
0.0690696
0.569959
0.0835892
0.563257
0.0934762
0.555377
0.097373
0.546488
0.100101
0.536767
0.104317
0.526261
0.108572
0.514963
0.113365
0.502982
0.118656
0.490268
0.124529
0.476796
0.131152
0.462534
0.139129
0.447371
0.14953
0.431103
0.164341
0.413131
0.189401
0.392983
0.229633
0.367158
0.333623
0.326825
0.444133
-0.187946
-0.248111
-0.157175
-0.260921
-0.118346
-0.322381
-0.0798982
-0.329692
-0.0406439
-0.342755
-0.000116461
-0.355825
0.0386375
-0.347792
0.0729229
-0.318687
0.102889
-0.287653
0.129214
-0.258221
0.151537
-0.22562
0.170664
-0.197351
0.187588
-0.17501
0.202739
-0.155631
0.216619
-0.140247
0.229652
-0.127992
0.242042
-0.118022
0.253936
-0.110018
0.265475
-0.1038
0.276689
-0.0987029
0.287582
-0.0945671
0.298187
-0.090735
0.308425
-0.0864009
0.318094
-0.0791523
0.326899
-0.0692811
0.3347
-0.0595752
0.341459
-0.0501234
0.347209
-0.0410459
0.351924
-0.0322241
0.355631
-0.0237438
0.358364
-0.015576
0.360109
-0.0076882
0.360912
5.60163e-05
0.360736
0.00796384
0.359462
0.0167747
0.356766
0.0288648
0.351962
0.0468727
0.343799
0.0926167
0.329184
0.172793
-0.218392
0.250165
-0.276552
0.282151
-0.280883
0.318652
-0.306733
0.350354
-0.271888
0.381268
-0.263587
0.411343
-0.251002
0.438125
-0.22396
0.46294
-0.203205
0.485561
-0.180771
0.505727
-0.157567
0.523829
-0.137094
0.539983
-0.116831
0.554334
-0.09759
0.566944
-0.0790788
0.577638
-0.0605081
0.586583
-0.0423156
0.593629
-0.023501
0.598754
-0.00484558
0.601843
0.014728
0.602922
0.0339886
0.601959
0.0539077
0.599029
0.0719998
0.594346
0.0882721
0.588157
0.0996648
0.580676
0.104854
0.572084
0.108692
0.56247
0.113931
0.551919
0.119124
0.540557
0.124727
0.528341
0.130872
0.515332
0.137537
0.501501
0.144983
0.486762
0.153868
0.47098
0.165312
0.453916
0.181406
0.43502
0.208297
0.413854
0.250798
0.389037
0.358439
0.351391
0.481779
-0.186928
-0.279575
-0.154656
-0.293194
-0.113748
-0.363289
-0.0733688
-0.370071
-0.032137
-0.383987
0.0102418
-0.398204
0.0507515
-0.388301
0.0864273
-0.354363
0.117457
-0.318683
0.144473
-0.285236
0.167242
-0.248389
0.186554
-0.216663
0.203513
-0.191969
0.21856
-0.170677
0.232295
-0.153983
0.245186
-0.140883
0.257462
-0.130297
0.269321
-0.121877
0.280854
-0.115334
0.292153
-0.110002
0.30323
-0.105644
0.31405
-0.101555
0.324548
-0.0968996
0.334552
-0.089156
0.343721
-0.0784496
0.351888
-0.0677423
0.359031
-0.0572669
0.365123
-0.0471379
0.370176
-0.0372769
0.374169
-0.0277368
0.377129
-0.0185356
0.379096
-0.0096554
0.380036
-0.000884402
0.379956
0.0080445
0.378706
0.0180249
0.375994
0.0315762
0.37109
0.0517772
0.363009
0.100698
0.349024
0.186778
-0.219426
0.253009
-0.310135
0.286758
-0.314632
0.325297
-0.345273
0.358592
-0.305182
0.391119
-0.296114
0.422782
-0.282665
0.451088
-0.252267
0.47704
-0.229156
0.500741
-0.204473
0.521822
-0.178647
0.540844
-0.156117
0.557888
-0.133875
0.572872
-0.112574
0.586124
-0.0923311
0.597623
-0.0720063
0.607281
-0.0519743
0.615011
-0.0312307
0.620794
-0.0106283
0.624587
0.010935
0.626376
0.0321999
0.626105
0.0541784
0.623851
0.0742541
0.619758
0.0923651
0.61407
0.105353
0.606975
0.111949
0.598651
0.117016
0.589177
0.123405
0.578682
0.129619
0.567207
0.136203
0.554824
0.143255
0.541534
0.150827
0.527324
0.159193
0.512159
0.169033
0.495831
0.181641
0.478097
0.19914
0.4584
0.227994
0.436058
0.27314
0.4111
0.383398
0.375113
0.517766
-0.18633
-0.312671
-0.15232
-0.327204
-0.109284
-0.406326
-0.0668066
-0.412548
-0.0235312
-0.427262
0.0208916
-0.442626
0.063346
-0.430756
0.100517
-0.391534
0.132712
-0.350878
0.160626
-0.313149
0.18396
-0.271724
0.203563
-0.236266
0.220588
-0.208994
0.235614
-0.185703
0.249236
-0.167606
0.261988
-0.153634
0.274128
-0.142438
0.285893
-0.133642
0.297418
-0.126859
0.30875
-0.121334
0.319926
-0.11682
0.330917
-0.112546
0.341686
-0.107668
0.351995
-0.0994655
0.361511
-0.0879652
0.370043
-0.0762743
0.377541
-0.0647649
0.383998
-0.053595
0.389356
-0.0426353
0.393656
-0.0320365
0.396877
-0.021757
0.399041
-0.011819
0.400156
-0.00199971
0.400159
0.00804162
0.398958
0.0192257
0.396221
0.0343133
0.391245
0.0567534
0.383314
0.108629
0.36998
0.200111
-0.221029
0.256307
-0.345413
0.291919
-0.350244
0.332616
-0.38597
0.367771
-0.340337
0.402052
-0.330395
0.435351
-0.315965
0.465078
-0.281993
0.492372
-0.25645
0.517135
-0.229235
0.53921
-0.200723
0.559076
-0.175982
0.576869
-0.151669
0.592698
-0.128402
0.606677
-0.10631
0.61881
-0.0841395
0.629084
-0.0622485
0.63751
-0.0396563
0.644007
-0.0171259
0.648479
0.00646339
0.650854
0.0298243
0.65123
0.053803
0.64957
0.0759143
0.64605
0.0958845
0.640917
0.110486
0.634318
0.118549
0.626287
0.125047
0.617008
0.132684
0.606551
0.140076
0.595011
0.147743
0.582468
0.155798
0.568927
0.164369
0.554363
0.173757
0.538728
0.184667
0.521864
0.198505
0.503508
0.217495
0.483117
0.248385
0.459809
0.296447
0.434196
0.409011
0.399121
0.552842
-0.185997
-0.347702
-0.150341
-0.362861
-0.104929
-0.451738
-0.0602668
-0.45721
-0.014731
-0.472798
0.0319688
-0.489326
0.0763756
-0.475163
0.115256
-0.430414
0.14875
-0.384372
0.177666
-0.342065
0.201658
-0.295716
0.221643
-0.256251
0.238881
-0.226231
0.253931
-0.200753
0.267481
-0.181156
0.280111
-0.166264
0.292115
-0.154441
0.303761
-0.145287
0.315209
-0.138307
0.326548
-0.132674
0.337787
-0.128059
0.348932
-0.123691
0.359901
-0.118638
0.370504
-0.110068
0.380342
-0.0978037
0.389223
-0.0851547
0.397077
-0.0726194
0.403861
-0.0603788
0.409564
-0.0483378
0.414164
-0.0366367
0.417656
-0.0252496
0.420053
-0.0142158
0.42133
-0.00327606
0.421454
0.00791672
0.420293
0.0203875
0.417571
0.0370352
0.412552
0.0617721
0.404734
0.116447
0.392104
0.212741
-0.222911
0.260135
-0.382637
0.297714
-0.387822
0.34071
-0.428967
0.377754
-0.377381
0.413811
-0.366452
0.448866
-0.35102
0.480141
-0.313269
0.508743
-0.285052
0.534744
-0.255236
0.557818
-0.223796
0.578661
-0.196826
0.597249
-0.170256
0.6138
-0.144954
0.628469
-0.120979
0.641158
-0.0968284
0.652138
-0.0732279
0.661205
-0.0487236
0.668319
-0.0242398
0.673455
0.00132736
0.676518
0.0267618
0.677491
0.0528295
0.676457
0.0769487
0.673523
0.098818
0.668904
0.115105
0.662727
0.124726
0.655021
0.132754
0.645969
0.141735
0.635622
0.150423
0.624053
0.159311
0.611363
0.168488
0.59756
0.178172
0.582656
0.18866
0.566558
0.200766
0.549178
0.215885
0.530201
0.236472
0.509149
0.269437
0.484996
0.320601
0.458692
0.435315
0.424183
0.587352
-0.186112
-0.384501
-0.14839
-0.400584
-0.100606
-0.499522
-0.0535582
-0.504257
-0.00571305
-0.520643
0.0433226
-0.538362
0.0900066
-0.521846
0.130671
-0.471079
0.165646
-0.419347
0.195666
-0.372085
0.22044
-0.320491
0.240891
-0.276701
0.258387
-0.243728
0.273523
-0.215889
0.287027
-0.19466
0.299564
-0.178801
0.311447
-0.166324
0.322953
-0.156793
0.33431
-0.149664
0.345615
-0.143978
0.356886
-0.139329
0.368122
-0.134927
0.379287
-0.129803
0.390141
-0.120922
0.400279
-0.107941
0.409488
-0.0943638
0.417686
-0.0808173
0.424826
-0.0675184
0.430859
-0.0543712
0.435765
-0.0415425
0.439525
-0.0290098
0.442141
-0.0168316
0.443605
-0.00474049
0.443853
0.00766913
0.442756
0.0214844
0.440044
0.0397469
0.435017
0.0667997
0.4274
0.124064
0.41546
0.22468
-0.22515
0.264488
-0.421976
0.304085
-0.427419
0.349494
-0.474375
0.388485
-0.416372
0.42647
-0.404436
0.463483
-0.388034
0.496274
-0.346059
0.526321
-0.315099
0.553685
-0.2826
0.577862
-0.247974
0.599592
-0.218556
0.619036
-0.189701
0.636219
-0.162137
0.651578
-0.136338
0.665041
-0.110291
0.6766
-0.0847873
0.686288
-0.0584112
0.693992
-0.0319443
0.699626
-0.00430601
0.703276
0.0231114
0.704882
0.0512239
0.704381
0.0774489
0.702016
0.101183
0.69793
0.119192
0.692229
0.130426
0.68493
0.140052
0.676083
0.150582
0.665862
0.160644
0.654336
0.170837
0.641532
0.181292
0.627514
0.19219
0.612262
0.203913
0.595763
0.217264
0.577839
0.233809
0.558215
0.256097
0.536495
0.291157
0.511652
0.345443
0.484673
0.462294
0.450685
0.62134
-0.186348
-0.423302
-0.146762
-0.440169
-0.0963037
-0.54998
-0.0467711
-0.55379
0.00357313
-0.570987
0.055189
-0.589978
0.104165
-0.570822
0.146827
-0.513741
0.183321
-0.455842
0.214613
-0.403376
0.240239
-0.346118
0.261289
-0.297751
0.279134
-0.261572
0.294422
-0.231178
0.307958
-0.208196
0.320409
-0.191251
0.332165
-0.17808
0.343561
-0.168189
0.354802
-0.160905
0.366028
-0.155205
0.377289
-0.15059
0.388608
-0.146245
0.399923
-0.141118
0.411
-0.132
0.421431
-0.118373
0.430947
-0.103879
0.439473
-0.089343
0.446934
-0.0749801
0.453296
-0.0607329
0.458498
-0.046744
0.462543
-0.0330555
0.465414
-0.0197018
0.467052
-0.00637919
0.467449
0.00727191
0.466436
0.0224983
0.463752
0.0424301
0.458746
0.0718063
0.451301
0.131509
0.440107
0.235874
-0.227806
0.269304
-0.463474
0.311026
-0.46914
0.358942
-0.522291
0.399993
-0.457423
0.440098
-0.444542
0.479058
-0.426993
0.51355
-0.380551
0.54515
-0.346699
0.573801
-0.311251
0.59907
-0.273243
0.621793
-0.241278
0.642116
-0.210023
0.660185
-0.180207
0.676177
-0.152329
0.690235
-0.12435
0.702389
-0.0969411
0.71264
-0.068662
0.720915
-0.0402191
0.727219
-0.0106102
0.731402
0.0189283
0.733515
0.0491111
0.733616
0.0773477
0.731761
0.103039
0.728183
0.122769
0.722927
0.135683
0.716003
0.146977
0.70746
0.159125
0.697399
0.170705
0.685898
0.182338
0.673016
0.194175
0.658815
0.20639
0.643275
0.219453
0.626334
0.234205
0.607887
0.252256
0.587657
0.276326
0.565283
0.313531
0.539749
0.370977
0.512192
0.489851
0.478737
0.654795
-0.186833
-0.464276
-0.145095
-0.481907
-0.0919367
-0.603139
-0.0397664
-0.60596
0.0132266
-0.62398
0.0675376
-0.644289
0.119025
-0.622309
0.163767
-0.558483
0.201976
-0.494051
0.234599
-0.436
0.261224
-0.372742
0.282917
-0.319445
0.301162
-0.279817
0.316684
-0.2467
0.330273
-0.221785
0.342705
-0.203684
0.354351
-0.189727
0.365617
-0.179455
0.376737
-0.172024
0.387879
-0.166347
0.399101
-0.161813
0.410443
-0.157587
0.421883
-0.152557
0.433179
-0.143296
0.443855
-0.129049
0.453651
-0.113676
0.462485
-0.0981771
0.470269
-0.0827636
0.476952
-0.0674161
0.482472
-0.0522643
0.486798
-0.0373813
0.489893
-0.022797
0.491756
-0.008242
0.492292
0.00673627
0.491377
0.0234133
0.488747
0.0450601
0.483779
0.0767739
0.476569
0.138719
0.466153
0.24629
-0.230706
0.274417
-0.507185
0.318471
-0.513194
0.369069
-0.57289
0.412348
-0.500703
0.454611
-0.486804
0.495591
-0.467973
0.531936
-0.416897
0.565142
-0.379905
0.595162
-0.341271
0.621659
-0.29974
0.645519
-0.265138
0.666692
-0.231196
0.685525
-0.19904
0.702251
-0.169055
0.716911
-0.139011
0.729674
-0.109704
0.740472
-0.07946
0.749323
-0.0490704
0.756106
-0.0173929
0.760864
0.0141704
0.763493
0.0464819
0.764076
0.0767652
0.762766
0.104349
0.759676
0.125859
0.754911
0.140448
0.748359
0.153528
0.740105
0.16738
0.730233
0.180577
0.718792
0.193779
0.705884
0.207083
0.691518
0.220756
0.675705
0.235267
0.658382
0.251528
0.639432
0.271206
0.61862
0.297138
0.595545
0.336606
0.569385
0.397137
0.541313
0.517924
0.508375
0.687732
-0.18751
-0.507471
-0.143564
-0.525853
-0.0875336
-0.659169
-0.0325185
-0.660975
0.0232517
-0.679751
0.0803779
-0.701415
0.134592
-0.676523
0.181526
-0.605417
0.221584
-0.534109
0.255653
-0.470069
0.283332
-0.400421
0.305762
-0.341875
0.324528
-0.298583
0.340319
-0.26249
0.354034
-0.2355
0.366476
-0.216125
0.37806
-0.201311
0.389208
-0.190603
0.400203
-0.183019
0.411229
-0.177373
0.422397
-0.172981
0.433744
-0.168934
0.445275
-0.164089
0.456735
-0.154755
0.46763
-0.139944
0.477702
-0.123748
0.486822
-0.107297
0.494923
-0.0908651
0.501906
-0.0743989
0.507731
-0.0580892
0.512338
-0.041988
0.515703
-0.0261623
0.517763
-0.0103019
0.518452
0.0060476
0.517657
0.0242076
0.515092
0.0476259
0.510226
0.0816398
0.503243
0.145702
0.493584
0.255949
-0.233975
0.280088
-0.553298
0.326583
-0.559689
0.37985
-0.626156
0.425602
-0.546455
0.470011
-0.531214
0.513261
-0.511223
0.55144
-0.455076
0.586352
-0.414816
0.617907
-0.372827
0.645707
-0.327541
0.670533
-0.289964
0.692742
-0.253405
0.712332
-0.218629
0.729774
-0.186497
0.745174
-0.154411
0.758476
-0.123006
0.769861
-0.0908449
0.779222
-0.0584317
0.786571
-0.0247417
0.79179
0.00895171
0.794903
0.0433689
0.796023
0.0756454
0.79514
0.105231
0.792526
0.128474
0.788183
0.144791
0.782021
0.15969
0.774091
0.17531
0.764436
0.190231
0.75314
0.205075
0.740207
0.220016
0.72571
0.235253
0.70964
0.251337
0.691951
0.269216
0.672542
0.290615
0.651116
0.318564
0.627428
0.360294
0.600635
0.423929
0.572035
0.546524
0.539646
0.720121
-0.188439
-0.553008
-0.142107
-0.572185
-0.0829864
-0.71829
-0.0250609
-0.718901
0.0337158
-0.738527
0.0938626
-0.761562
0.150824
-0.733484
0.20021
-0.654803
0.242184
-0.576083
0.277858
-0.505743
0.306707
-0.42927
0.329972
-0.36514
0.349293
-0.317905
0.365431
-0.278628
0.379321
-0.249391
0.391795
-0.228599
0.403354
-0.21287
0.41439
-0.201639
0.425258
-0.193888
0.436171
-0.188286
0.447259
-0.184069
0.458586
-0.180261
0.470186
-0.175688
0.481791
-0.16636
0.492891
-0.151044
0.503189
-0.134046
0.51257
-0.116678
0.520946
-0.099241
0.528241
-0.0816935
0.534352
-0.0642002
0.539252
-0.0468885
0.542856
-0.0297656
0.545149
-0.0125955
0.546031
0.00516605
0.545336
0.0249024
0.542899
0.0500625
0.538129
0.0864103
0.531449
0.152381
0.522565
0.264833
-0.237509
0.28615
-0.601939
0.335106
-0.608645
0.391446
-0.682497
0.439487
-0.594495
0.486422
-0.578149
0.531921
-0.556721
0.572205
-0.49536
0.608828
-0.451438
0.641954
-0.405953
0.671072
-0.356659
0.697175
-0.316066
0.720298
-0.276529
0.740829
-0.23916
0.759019
-0.204688
0.775044
-0.170436
0.788969
-0.136931
0.800872
-0.102748
0.81072
-0.0682794
0.818509
-0.0325304
0.824215
0.0032453
0.827836
0.0397479
0.829338
0.074144
0.828917
0.105652
0.826769
0.130622
0.822854
0.148705
0.817121
0.165424
0.809511
0.18292
0.800076
0.199665
0.788886
0.216266
0.775998
0.232903
0.761408
0.249844
0.745119
0.267626
0.727097
0.287238
0.707233
0.31048
0.685284
0.340514
0.660972
0.384606
0.633585
0.451316
0.604504
0.575604
0.57262
0.752004
-0.189506
-0.601011
-0.140668
-0.621022
-0.0783252
-0.780633
-0.0173302
-0.779896
0.0445986
-0.800456
0.107946
-0.824909
0.167932
-0.79347
0.219805
-0.706676
0.263868
-0.620146
0.30121
-0.543085
0.331338
-0.459397
0.355522
-0.389324
0.375476
-0.337858
0.392035
-0.295187
0.406156
-0.263512
0.418728
-0.241171
0.430265
-0.224407
0.441232
-0.212606
0.451984
-0.20464
0.462798
-0.1991
0.473779
-0.19505
0.485083
-0.191565
0.496714
-0.18732
0.508435
-0.178081
0.519711
-0.16232
0.530203
-0.144538
0.539843
-0.126318
0.548484
-0.107883
0.556039
-0.0892482
0.562463
-0.0706243
0.56763
-0.0520557
0.571501
-0.0336359
0.573998
-0.0150926
0.575063
0.00410121
0.57454
0.0254247
0.572208
0.0523951
0.567612
0.0910063
0.561211
0.158782
0.553118
0.272926
-0.241372
0.292624
-0.653191
0.344249
-0.66027
0.403632
-0.74188
0.454396
-0.64526
0.503756
-0.627508
0.551779
-0.604745
0.594058
-0.537639
0.632625
-0.490005
0.667434
-0.440762
0.698027
-0.387252
0.725288
-0.343327
0.749558
-0.300799
0.770956
-0.260558
0.789934
-0.223666
0.806594
-0.187095
0.821157
-0.151494
0.833567
-0.115159
0.843903
-0.0786157
0.852206
-0.0408334
0.858324
-0.00287257
0.862338
0.035734
0.864279
0.0722028
0.86427
0.105661
0.862533
0.132358
0.859047
0.152192
0.853673
0.170797
0.846385
0.190208
0.837242
0.208809
0.826219