/*--------------------------------*- C++ -*----------------------------------*\
| =========                 |                                                 |
| \\      /  F ield         | OpenFOAM: The Open Source CFD Toolbox           |
|  \\    /   O peration     | Version:  3.0.0                                 |
|   \\  /    A nd           | Web:      www.OpenFOAM.org                      |
|    \\/     M anipulation  |                                                 |
\*---------------------------------------------------------------------------*/
FoamFile
{
    version     2.0;
    format      ascii;
    class       volVectorField;
    location    "250";
    object      U;
}
// * * * * * * * * * * * * * * * * * * * * * * * * * * * * * * * * * * * * * //

dimensions      [0 1 -1 0 0 0 0];

internalField   nonuniform List<vector> 
10720
(
(-0.191684 31.6845 4.74403e-18)
(1.83824 33.9328 -4.43661e-18)
(4.3157 36.0668 0)
(7.11031 37.6354 -3.09923e-16)
(10.1503 38.7519 3.41365e-16)
(13.3624 39.3824 2.48165e-16)
(16.5815 39.4253 3.79634e-16)
(19.713 38.9317 0)
(22.678 37.9761 0)
(25.3994 36.5981 0)
(27.8546 34.9089 1.25372e-16)
(30.001 32.9319 0)
(31.836 30.7172 2.01702e-15)
(33.3771 28.3319 0)
(34.6196 25.8115 0)
(35.5792 23.2137 0)
(36.2459 20.5649 -3.29708e-15)
(36.6253 17.9198 -4.94324e-15)
(36.6987 15.3015 4.34596e-15)
(36.4767 12.7666 0)
(35.9396 10.3458 3.4153e-15)
(35.1233 8.10614 -6.55125e-15)
(34.0743 6.09287 3.17057e-15)
(32.9029 4.36228 -9.35096e-17)
(31.8108 2.95607 0)
(30.8829 1.81743 1.09196e-15)
(30.019 0.855929 1.64417e-17)
(29.1178 0.0293942 -4.16526e-16)
(28.142 -0.684544 -1.36813e-15)
(27.0882 -1.29975 -4.34987e-15)
(25.9595 -1.8219 1.57596e-15)
(24.7586 -2.25345 2.0521e-15)
(23.4817 -2.59462 8.38095e-16)
(22.1184 -2.84529 -1.78638e-15)
(20.6166 -2.9999 3.58505e-15)
(18.9378 -3.05571 4.03589e-17)
(16.7583 -2.95525 -9.46623e-17)
(14.2385 -2.69586 -6.13112e-14)
(8.59763 -2.10446 9.24278e-14)
(-1.84867 29.243 -5.48843e-18)
(-3.25318 26.4491 -2.29774e-17)
(-4.33602 23.2667 7.79103e-17)
(-4.94905 19.5071 -2.17883e-16)
(-4.92822 15.587 -6.35288e-16)
(-4.21174 11.6224 1.02294e-15)
(-2.81569 7.86342 4.67046e-15)
(-0.898215 4.61133 2.63808e-15)
(1.23107 2.04294 0)
(3.38119 -0.103447 0)
(5.65482 -1.86395 4.47592e-15)
(7.86758 -3.11711 1.62443e-15)
(9.86501 -3.90822 -2.65584e-15)
(11.6209 -4.36188 2.22845e-15)
(13.1643 -4.59193 3.8113e-15)
(14.5296 -4.67037 2.53098e-15)
(15.7445 -4.64945 3.3871e-15)
(16.8392 -4.5625 2.36841e-15)
(17.8447 -4.43311 0)
(18.7842 -4.26753 0)
(19.6764 -4.06951 -4.047e-15)
(20.5336 -3.83067 -2.22854e-16)
(21.3587 -3.53723 3.53479e-15)
(22.1239 -3.15991 -3.01072e-15)
(22.7655 -2.69376 2.26403e-17)
(23.2653 -2.17518 0)
(23.6474 -1.63006 1.19285e-15)
(23.9275 -1.07448 0)
(24.1108 -0.519684 0)
(24.2019 0.0231684 1.03514e-15)
(24.1923 0.544185 0)
(24.0726 1.0364 -3.95122e-15)
(23.8578 1.49447 -7.62448e-15)
(23.5652 1.91354 -3.79708e-14)
(23.1942 2.28988 1.52412e-14)
(22.7398 2.62411 -5.93503e-17)
(22.0836 2.90917 0)
(21.1711 3.10871 3.31107e-14)
(18.4963 3.27842 3.80994e-14)
(7.29559 27.612 -1.67496e-17)
(9.43271 29.3298 1.13921e-17)
(12.0003 30.8461 0)
(14.9196 32.0552 0)
(18.0208 32.9047 -9.37063e-17)
(21.3085 33.3353 -2.37999e-16)
(24.6571 33.3069 0)
(27.9235 32.8517 0)
(31.0507 31.9867 5.01838e-16)
(33.9512 30.7736 0)
(36.5629 29.2702 1.96619e-15)
(38.8915 27.5981 0)
(40.9257 25.7923 7.03586e-16)
(42.6607 23.869 -6.94128e-16)
(44.0685 21.8587 1.37686e-15)
(45.138 19.7841 -2.74912e-15)
(45.8744 17.658 2.99668e-15)
(46.2716 15.5085 2.66758e-15)
(46.3344 13.3477 2.59054e-15)
(46.0518 11.2116 1.55161e-16)
(45.4299 9.12965 -2.67151e-15)
(44.4672 7.16085 2.47682e-15)
(43.1957 5.34932 -1.37248e-16)
(41.658 3.75529 0)
(39.9716 2.4298 0)
(38.2874 1.31688 0)
(36.6601 0.336519 8.30534e-17)
(35.0763 -0.523667 -1.65103e-17)
(33.5322 -1.26835 9.89072e-16)
(32.0189 -1.90582 3.68284e-17)
(30.5174 -2.44008 -2.90681e-17)
(29.0077 -2.87445 -5.30634e-17)
(27.4691 -3.21161 5.33103e-16)
(25.8845 -3.45391 6.14708e-16)
(24.2086 -3.60044 2.57351e-17)
(22.42 -3.65119 8.58458e-15)
(20.236 -3.56042 0)
(17.8969 -3.33367 1.72156e-14)
(12.2907 -2.52304 4.84375e-14)
(5.45193 25.7585 2.29253e-17)
(3.8148 23.6738 -7.46888e-17)
(2.31046 21.2098 -7.97361e-16)
(1.09156 18.3756 9.25091e-16)
(0.340565 15.2614 0)
(0.152669 11.993 -1.74277e-15)
(0.579351 8.75333 -1.19236e-15)
(1.58291 5.79801 -9.65234e-15)
(3.00953 3.27947 4.03897e-15)
(4.69228 1.13799 -3.59525e-15)
(6.53802 -0.558216 4.37208e-15)
(8.417 -1.75504 -1.2372e-15)
(10.2101 -2.5407 0)
(11.8641 -3.03115 -8.98584e-16)
(13.3689 -3.31957 4.65287e-17)
(14.7339 -3.46307 -2.15684e-15)
(15.9706 -3.50934 0)
(17.0985 -3.4883 0)
(18.1401 -3.42188 -2.64182e-16)
(19.1175 -3.31141 2.52565e-16)
(20.0461 -3.15758 -3.36464e-15)
(20.9381 -2.9463 -4.06236e-16)
(21.7962 -2.65955 1.89797e-16)
(22.5984 -2.26259 2.68782e-15)
(23.2929 -1.76777 -2.50932e-15)
(23.8555 -1.23959 -2.20859e-15)
(24.301 -0.70626 0)
(24.6417 -0.179105 0)
(24.8818 0.335318 0)
(25.0214 0.828582 8.35991e-18)
(25.0786 1.29289 0)
(25.071 1.72288 0)
(24.9917 2.11768 1.30272e-14)
(24.8322 2.47656 1.26802e-14)
(24.5813 2.80129 -1.24693e-14)
(24.2466 3.09747 1.24062e-14)
(23.7284 3.36386 -2.47113e-14)
(23.2222 3.59771 -2.50772e-14)
(21.2454 3.66087 -2.64436e-14)
(8.19918 25.3886 -4.61433e-18)
(9.75535 26.9002 -4.83332e-17)
(11.6199 28.3462 3.54892e-17)
(13.7367 29.6526 7.04622e-18)
(16.0404 30.6972 -8.58642e-17)
(18.5311 31.4545 3.49056e-16)
(21.1281 31.8884 -2.58836e-16)
(23.7505 31.9651 -3.27468e-16)
(26.3415 31.6866 2.45454e-19)
(28.843 31.0701 -4.87981e-16)
(31.2037 30.1374 4.21603e-16)
(33.3944 28.9164 -1.23188e-15)
(35.3926 27.445 -5.67444e-16)
(37.1825 25.7617 0)
(38.7759 23.8937 -1.42702e-15)
(40.1778 21.8719 2.84234e-15)
(41.3785 19.7257 0)
(42.3533 17.5005 -5.26027e-15)
(43.0906 15.2258 -2.62479e-15)
(43.5599 12.953 2.96792e-16)
(43.7473 10.7189 -2.94491e-16)
(43.63 8.59019 -1.27281e-16)
(43.2094 6.61534 -1.76579e-15)
(42.4948 4.85533 8.55877e-16)
(41.5436 3.35546 0)
(40.4399 2.05967 6.77827e-16)
(39.2106 0.898434 -7.61982e-17)
(37.8553 -0.129184 0)
(36.3963 -1.021 8.36482e-16)
(34.8637 -1.78248 1.36813e-15)
(33.2783 -2.41767 -1.952e-15)
(31.6522 -2.93156 -1.20293e-15)
(29.9852 -3.32985 -4.53358e-17)
(28.2696 -3.61742 6.20589e-16)
(26.4652 -3.7958 2.15434e-15)
(24.5503 -3.86338 -7.34132e-15)
(22.2632 -3.78281 0)
(19.8452 -3.5156 1.38606e-14)
(14.6671 -2.79408 -7.2025e-14)
(6.90054 23.7756 -2.88664e-17)
(5.7374 21.989 -8.58046e-17)
(4.71891 19.8615 3.33849e-16)
(3.85083 17.454 0)
(3.29274 14.8452 5.64384e-16)
(3.09895 12.0941 0)
(3.31418 9.31779 3.63747e-15)
(3.93541 6.70217 2.41307e-15)
(4.90816 4.37382 2.75033e-15)
(6.16517 2.34939 0)
(7.62066 0.685761 -4.28132e-15)
(9.15669 -0.596725 -9.43878e-16)
(10.6803 -1.54722 4.29179e-15)
(12.1361 -2.231 0)
(13.4999 -2.70409 -2.12702e-15)
(14.7672 -3.01218 -6.55887e-16)
(15.9398 -3.19568 2.91462e-15)
(17.0278 -3.28443 1.59585e-15)
(18.0457 -3.30021 4.78981e-16)
(19.0098 -3.25143 -2.41906e-16)
(19.9323 -3.14282 3.06853e-15)
(20.8219 -2.96803 0)
(21.6793 -2.71524 0)
(22.4863 -2.36398 2.1677e-17)
(23.2009 -1.9271 0)
(23.8 -1.45139 4.40891e-15)
(24.2932 -0.956203 -6.53483e-17)
(24.6915 -0.449776 -4.85479e-16)
(24.9983 0.0597965 0)
(25.2154 0.562232 -8.86717e-16)
(25.3468 1.04854 1.73672e-15)
(25.3983 1.51299 0)
(25.3731 1.95048 -6.53929e-15)
(25.2727 2.35577 0)
(25.0866 2.72685 0)
(24.8157 3.06445 3.88314e-17)
(24.3513 3.36861 3.50319e-17)
(23.8192 3.60062 2.51008e-14)
(22.0554 3.66892 5.12822e-14)
(10.8898 23.2468 -2.54932e-17)
(12.3336 24.5375 -3.53835e-17)
(14.0392 25.7728 4.70516e-17)
(15.9769 26.8779 4.29745e-17)
(18.0888 27.7616 0)
(20.3804 28.4039 0)
(22.7889 28.7639 -3.59641e-16)
(25.2474 28.8108 5.20972e-16)
(27.7062 28.5402 0)
(30.1076 27.9598 -6.93835e-16)
(32.3991 27.0879 -9.85472e-16)
(34.5411 25.9535 -8.9711e-16)
(36.4998 24.5941 1.14181e-15)
(38.253 23.0448 1.04351e-15)
(39.7826 21.3396 0)
(41.0619 19.5199 1.65205e-15)
(42.0728 17.6221 5.78897e-16)
(42.8163 15.673 4.65269e-15)
(43.2949 13.6983 2.77465e-16)
(43.5166 11.728 -2.75633e-16)
(43.4909 9.79399 2.25606e-15)
(43.233 7.94173 -3.65891e-16)
(42.7692 6.21198 1.94419e-15)
(42.1325 4.64937 7.57088e-16)
(41.3741 3.28567 -4.27322e-17)
(40.5478 2.08265 -6.11414e-16)
(39.6539 0.984788 4.0683e-18)
(38.6576 -0.0120613 -4.08109e-18)
(37.5403 -0.903681 -7.96834e-16)
(36.298 -1.68993 -1.66086e-17)
(34.9324 -2.36669 9.35213e-16)
(33.4511 -2.92982 -1.08302e-15)
(31.8618 -3.3772 -3.88672e-16)
(30.171 -3.70796 5.10059e-17)
(28.354 -3.92038 -1.94722e-15)
(26.3986 -4.00801 0)
(24.0679 -3.93837 -9.32302e-15)
(21.5639 -3.62566 -1.20318e-14)
(16.6502 -2.95467 2.97831e-14)
(9.65195 21.8818 -4.23757e-17)
(8.51866 20.3837 1.34497e-16)
(7.48696 18.601 5.11932e-16)
(6.58197 16.5654 0)
(5.94119 14.3471 -5.11144e-16)
(5.60677 11.9852 0)
(5.61635 9.57122 -3.07172e-15)
(5.97378 7.26155 -1.03396e-16)
(6.63785 5.14888 2.06016e-15)
(7.56628 3.2579 1.86038e-15)
(8.69549 1.64847 4.43405e-17)
(9.93836 0.348312 3.16996e-15)
(11.2246 -0.663395 -2.16394e-15)
(12.5012 -1.42596 6.83453e-16)
(13.7356 -1.97996 2.46644e-15)
(14.912 -2.36538 2.83591e-15)
(16.0235 -2.61736 -2.63863e-15)
(17.0707 -2.76491 2.39779e-18)
(18.0609 -2.82998 0)
(19.0041 -2.8243 3.27787e-15)
(19.9091 -2.75316 1.83015e-16)
(20.7818 -2.61306 -2.93524e-15)
(21.6218 -2.39483 0)
(22.4132 -2.08318 2.02262e-17)
(23.121 -1.68542 0)
(23.7225 -1.23895 -2.00379e-15)
(24.2228 -0.766315 0)
(24.6315 -0.279537 4.54906e-16)
(24.9524 0.211081 -2.01417e-17)
(25.1881 0.69483 1.31921e-17)
(25.3425 1.16282 -1.5648e-15)
(25.4212 1.60761 -4.99828e-17)
(25.4277 2.02411 0)
(25.3647 2.40943 6.03302e-15)
(25.2236 2.76371 9.43572e-17)
(25.0052 3.0873 -1.20086e-14)
(24.6074 3.38222 4.85048e-14)
(24.1248 3.58309 9.19916e-17)
(22.5403 3.64291 0)
(12.397 21.6137 -3.74669e-17)
(13.6197 22.7597 -2.89499e-17)
(15.0739 23.881 9.35601e-17)
(16.7185 24.9145 -2.31639e-16)
(18.5042 25.7756 3.83739e-17)
(20.4532 26.4569 -1.18462e-17)
(22.5133 26.92 1.38777e-16)
(24.6325 27.1308 0)
(26.7788 27.0799 6.9201e-16)
(28.9036 26.7631 3.98156e-16)
(30.9646 26.184 0)
(32.9277 25.3553 8.65364e-16)
(34.76 24.2968 -4.597e-16)
(36.4359 23.0291 1.23057e-15)
(37.9342 21.574 0)
(39.2363 19.9538 -2.19847e-15)
(40.3368 18.1829 2.00577e-15)
(41.2187 16.2948 -1.74634e-16)
(41.8666 14.3261 0)
(42.2663 12.3229 2.1395e-15)
(42.4108 10.3313 -2.16876e-15)
(42.3023 8.40905 -1.05918e-16)
(41.962 6.60812 -1.57298e-15)
(41.4281 4.97873 -1.41801e-15)
(40.7613 3.55491 0)
(40.0281 2.30747 0)
(39.252 1.18287 -1.28244e-16)
(38.4185 0.166928 -1.2745e-17)
(37.5143 -0.742414 7.34668e-16)
(36.5287 -1.54972 -1.55084e-17)
(35.4446 -2.25484 1.54653e-17)
(34.2433 -2.85448 1.01112e-15)
(32.9063 -3.34439 0)
(31.421 -3.71947 -1.27019e-15)
(29.7563 -3.97318 9.59789e-18)
(27.9015 -4.09208 0)
(25.6421 -4.04484 -2.76669e-17)
(23.1511 -3.70683 0)
(18.4501 -3.05409 -2.58314e-14)
(11.3446 20.4084 5.71574e-17)
(10.3806 19.0991 -2.94924e-16)
(9.48202 17.5412 3.17016e-16)
(8.6641 15.7666 4.35753e-16)
(8.04945 13.8407 -1.76906e-15)
(7.66966 11.781 -2.17301e-15)
(7.56217 9.65844 2.63045e-15)
(7.74195 7.60314 -3.19333e-15)
(8.18686 5.68886 -1.59844e-15)
(8.87159 3.94398 -1.4537e-15)
(9.74701 2.42217 2.78776e-15)
(10.7495 1.1501 -2.69444e-15)
(11.8258 0.118186 -1.23725e-15)
(12.93 -0.697316 1.19848e-15)
(14.0285 -1.32184 -2.75444e-15)
(15.1014 -1.78544 5.13596e-16)
(16.1366 -2.1149 0)
(17.1286 -2.33387 -2.20309e-15)
(18.0787 -2.46118 8.18751e-16)
(18.9918 -2.50891 -3.40096e-15)
(19.8729 -2.48278 0)
(20.7251 -2.3816 2.54431e-15)
(21.5463 -2.19915 2.20719e-15)
(22.3223 -1.92562 -2.01632e-15)
(23.0229 -1.56705 0)
(23.6258 -1.15452 -1.89336e-15)
(24.1319 -0.7114 0)
(24.5487 -0.249882 0)
(24.8793 0.220095 0)
(25.1259 0.688055 7.81215e-16)
(25.2923 1.14467 0)
(25.3836 1.58249 0)
(25.4034 1.99661 -5.83142e-15)
(25.3549 2.38266 -5.70968e-15)
(25.2308 2.73906 0)
(25.0334 3.06363 -1.13889e-14)
(24.6686 3.35763 6.33863e-17)
(24.2274 3.54189 0)
(22.8267 3.58971 -2.28305e-14)
(13.9026 20.1789 5.44075e-17)
(15.0123 21.1948 -4.01682e-17)
(16.3271 22.1954 0)
(17.8089 23.1213 6.25555e-18)
(19.4104 23.8989 1.47579e-16)
(21.1635 24.5258 1.12121e-17)
(23.0226 24.9652 4.87481e-17)
(24.9454 25.1864 -2.6024e-16)
(26.9093 25.1772 -1.06513e-16)
(28.8736 24.9289 6.49903e-16)
(30.8011 24.4398 -2.4674e-16)
(32.6614 23.7154 5.90964e-16)
(34.4207 22.7687 2.94634e-16)
(36.0505 21.6159 1.54247e-16)
(37.5259 20.2767 0)
(38.8242 18.7752 -4.57482e-16)
(39.9193 17.1463 -1.02993e-15)
(40.7905 15.4244 -3.68218e-15)
(41.4246 13.6402 1.05964e-15)
(41.8152 11.8247 -1.38321e-15)
(41.9597 10.013 -2.12091e-16)
(41.8637 8.24757 0)
(41.5453 6.5723 1.414e-15)
(41.0379 5.03045 8.77371e-17)
(40.3939 3.6548 -3.59056e-17)
(39.6724 2.43142 -4.81143e-16)
(38.9026 1.3212 1.05646e-16)
(38.0838 0.312672 2.01141e-16)
(37.2158 -0.593811 -6.88947e-16)
(36.3011 -1.40181 -2.86028e-17)
(35.3351 -2.11317 7.90276e-16)
(34.3044 -2.72686 8.59668e-16)
(33.1849 -3.24024 0)
(31.9468 -3.64787 -6.83793e-17)
(30.5349 -3.94042 1.91373e-15)
(28.9147 -4.09754 0)
(26.8665 -4.085 1.65636e-14)
(24.5373 -3.7448 0)
(20.1032 -3.11806 2.33348e-14)
(12.9384 19.1153 -5.54505e-17)
(12.0517 17.9674 1.32256e-16)
(11.2115 16.5993 0)
(10.4337 15.0373 0)
(9.82707 13.3432 7.88009e-16)
(9.41329 11.5247 3.76405e-15)
(9.22682 9.63968 0)
(9.28288 7.79767 -2.56438e-15)
(9.57053 6.0613 -2.51638e-15)
(10.0731 4.45898 2.48458e-15)
(10.7506 3.034 -6.08712e-17)
(11.5565 1.81177 1.13123e-15)
(12.4515 0.788964 2.58225e-17)
(13.3983 -0.0478763 3.13461e-15)
(14.3663 -0.713191 2.94015e-15)
(15.335 -1.22798 -2.81825e-15)
(16.2898 -1.61207 4.27942e-16)
(17.2212 -1.88428 -8.14882e-16)
(18.1258 -2.06044 3.87034e-16)
(19.004 -2.15187 2.46136e-15)
(19.8572 -2.16463 3.31936e-16)
(20.6856 -2.09929 -2.90743e-16)
(21.4858 -1.95163 -1.90785e-15)
(22.2442 -1.7154 0)
(22.9347 -1.39572 1.15912e-16)
(23.5357 -1.01788 3.44668e-15)
(24.0447 -0.604279 -2.57407e-17)
(24.4668 -0.167546 2.54856e-17)
(24.8044 0.281897 0)
(25.0591 0.732953 -7.32697e-16)
(25.2344 1.17566 0)
(25.3346 1.60204 0)
(25.3634 2.00614 5.39056e-15)
(25.3236 2.38312 5.48078e-15)
(25.2084 2.7311 0)
(25.0199 3.04641 1.06045e-14)
(24.6704 3.32995 -4.28921e-14)
(24.2459 3.49127 1.60728e-16)
(22.9899 3.5159 2.09184e-14)
(15.1046 18.9623 6.70887e-18)
(16.1026 19.8751 -3.91664e-17)
(17.2854 20.7822 9.5336e-17)
(18.6133 21.6284 -9.31736e-17)
(20.0401 22.3477 -8.71373e-17)
(21.6039 22.9439 0)
(23.2632 23.3842 -3.32775e-18)
(24.9823 23.6403 1.94324e-17)
(26.7476 23.7009 -1.89211e-16)
(28.5242 23.5555 -3.82301e-16)
(30.2823 23.1982 0)
(31.997 22.6292 -1.03941e-15)
(33.6374 21.8544 -9.59596e-16)
(35.1762 20.8831 -2.35893e-15)
(36.5889 19.729 0)
(37.85 18.4104 -1.47402e-15)
(38.9383 16.9465 -1.5511e-15)
(39.837 15.3568 1.71077e-15)
(40.5284 13.6705 -1.67871e-15)
(40.998 11.9245 1.50477e-15)
(41.2363 10.1599 1.83181e-16)
(41.2414 8.42525 -1.5502e-15)
(41.0244 6.76855 0)
(40.6114 5.23415 -1.25118e-15)
(40.0461 3.85371 7.27775e-17)
(39.3799 2.61961 5.05126e-16)
(38.6438 1.50013 0)
(37.8439 0.483391 -1.80068e-17)
(36.9852 -0.430475 2.79773e-17)
(36.0772 -1.24462 9.28633e-16)
(35.1263 -1.96141 -7.05712e-16)
(34.1336 -2.58119 -8.30168e-16)
(33.0916 -3.10354 2.06413e-16)
(31.9848 -3.52588 -5.98786e-17)
(30.7645 -3.84114 -1.84897e-15)
(29.3914 -4.02811 -6.03881e-15)
(27.6336 -4.05138 -8.12522e-15)
(25.6122 -3.72571 1.48529e-16)
(21.5706 -3.14407 -7.62616e-17)
(14.2321 18.0092 2.52613e-17)
(13.4268 16.9872 2.5901e-16)
(12.6513 15.7678 3.06292e-16)
(11.9201 14.3747 -6.0391e-16)
(11.3322 12.8667 -2.21058e-15)
(10.9031 11.2444 7.67755e-16)
(10.6656 9.55522 1.96193e-15)
(10.636 7.8932 5.41546e-15)
(10.8094 6.31437 2.15314e-15)
(11.1741 4.84482 -2.04891e-15)
(11.6974 3.51886 -4.83329e-17)
(12.3446 2.35952 -1.01241e-15)
(13.0862 1.36571 0)
(13.893 0.529857 -3.05967e-17)
(14.7389 -0.155541 -1.79402e-15)
(15.6053 -0.704701 8.32896e-16)
(16.477 -1.13142 -8.15004e-16)
(17.3426 -1.44923 0)
(18.1958 -1.67029 1.40172e-15)
(19.0333 -1.80409 -2.61236e-15)
(19.8536 -1.85591 0)
(20.6546 -1.827 2.24277e-15)
(21.4311 -1.71479 0)
(22.1704 -1.51558 -1.17289e-16)
(22.8489 -1.23401 1.15848e-16)
(23.446 -0.89088 -1.63328e-15)
(23.9564 -0.507091 -2.67252e-17)
(24.3828 -0.0958046 -2.42814e-17)
(24.7267 0.33212 1.12029e-17)
(24.9892 0.765344 -7.15162e-16)
(25.173 1.19354 -1.36891e-15)
(25.2819 1.60827 2.60134e-15)
(25.3192 2.00325 8.21575e-17)
(25.2874 2.37296 2.55022e-17)
(25.1796 2.71467 0)
(24.9979 3.02264 1.58459e-16)
(24.6595 3.29665 1.96682e-14)
(24.2448 3.43687 -9.37408e-18)
(23.0984 3.43529 1.94834e-14)
(16.1654 17.8917 1.06455e-17)
(17.0802 18.7156 7.07178e-17)
(18.1631 19.5383 0)
(19.3748 20.3079 -2.83758e-17)
(20.6694 20.9652 -1.3817e-16)
(22.0882 21.5176 0)
(23.5938 21.9349 4.35516e-17)
(25.1547 22.192 2.06963e-16)
(26.7632 22.2783 -4.29611e-16)
(28.3906 22.1827 1.24063e-16)
(30.0118 21.8972 2.83788e-16)
(31.6067 21.4187 1.20083e-15)
(33.148 20.7483 8.95278e-16)
(34.6104 19.8905 1.19249e-15)
(35.9693 18.8544 3.17936e-16)
(37.1992 17.6534 1.09672e-15)
(38.2769 16.3053 1.50221e-15)
(39.1785 14.8366 1.37308e-15)
(39.8837 13.2772 -1.00852e-15)
(40.3782 11.6578 -3.13679e-15)
(40.6534 10.0133 0)
(40.7082 8.38382 8.72007e-17)
(40.5519 6.81195 1.14733e-15)
(40.2069 5.33783 1.1888e-15)
(39.7092 3.99165 -6.56713e-17)
(39.1011 2.77357 -4.38344e-16)
(38.411 1.6618 2.86833e-18)
(37.6471 0.647271 -1.95372e-16)
(36.8143 -0.268406 1.94906e-17)
(35.9216 -1.08631 -1.72612e-15)
(34.977 -1.8077 -8.12116e-18)
(33.9863 -2.43223 -1.5564e-17)
(32.9512 -2.95915 -2.03897e-16)
(31.8711 -3.38655 -5.99337e-17)
(30.7194 -3.70957 1.85843e-15)
(29.4842 -3.90925 1.17291e-14)
(27.9615 -3.95551 -7.86719e-15)
(26.2968 -3.6473 -9.17789e-15)
(22.7793 -3.12442 2.03286e-14)
(15.3607 17.0333 -1.05624e-16)
(14.6166 16.1169 -3.61566e-16)
(13.891 15.0217 -2.52516e-16)
(13.1982 13.7687 -5.90869e-16)
(12.6288 12.4142 1.2955e-15)
(12.1933 10.9548 -4.32626e-17)
(11.9218 9.4293 -5.12518e-15)
(11.8319 7.92065 -1.86257e-15)
(11.9218 6.48093 6.73664e-18)
(12.1813 5.1321 0)
(12.5843 3.90203 -1.7758e-15)
(13.1033 2.81104 1.71949e-15)
(13.7164 1.8583 -1.69114e-15)
(14.4008 1.03914 -8.58836e-16)
(15.1354 0.350318 7.83265e-16)
(15.9042 -0.217619 7.74621e-16)
(16.6933 -0.673343 2.93089e-15)
(17.4909 -1.0258 -7.07369e-16)
(18.2888 -1.28362 -1.30614e-15)
(19.0817 -1.45413 0)
(19.8655 -1.54151 -2.27008e-15)
(20.6359 -1.54709 -1.84757e-15)
(21.3866 -1.46918 -1.25121e-17)
(22.105 -1.30587 -2.34368e-16)
(22.7695 -1.06149 -1.04562e-16)
(23.3603 -0.752872 1.72326e-15)
(23.87 -0.39934 -4.68065e-17)
(24.2991 -0.0142794 4.11478e-16)
(24.6482 0.391204 9.81385e-17)
(24.9176 0.805665 6.58551e-16)
(25.1092 1.21845 -9.69947e-18)
(25.2264 1.62065 -5.20734e-15)
(25.2719 2.00541 -4.88681e-15)
(25.2479 2.36654 -4.87961e-15)
(25.1477 2.70048 -1.50405e-16)
(24.9728 2.99975 7.35248e-17)
(24.6455 3.26275 -1.89214e-14)
(24.2416 3.38282 -1.84291e-14)
(23.188 3.35571 -1.79025e-14)
(17.0806 16.9457 -3.82126e-17)
(17.9234 17.6939 -3.07318e-17)
(18.9201 18.4442 -1.88841e-16)
(20.0315 19.148 6.68009e-16)
(21.2124 19.7509 -2.69775e-16)
(22.5054 20.2638 1.70577e-16)
(23.876 20.6595 -1.41558e-16)
(25.2959 20.915 0)
(26.7621 21.0223 1.19254e-16)
(28.2495 20.9701 6.9579e-18)
(29.738 20.7498 -2.08249e-16)
(31.2119 20.3567 -1.06951e-15)
(32.6476 19.789 -5.00018e-16)
(34.0222 19.0476 0)
(35.3131 18.1374 0)
(36.4955 17.0679 0)
(37.5455 15.8537 0)
(38.4412 14.5122 -1.33763e-15)
(39.1622 13.0662 1.32441e-15)
(39.6913 11.5448 1.29292e-15)
(40.0167 9.9829 -1.00068e-15)
(40.1334 8.42129 8.94411e-16)
(40.0469 6.9025 -8.98448e-16)
(39.775 5.46642 -6.39023e-17)
(39.3477 4.1424 -2.68015e-17)
(38.8013 2.9345 4.44002e-16)
(38.1629 1.82755 8.74414e-17)
(37.4435 0.814293 0)
(36.6484 -0.103291 0)
(35.786 -0.924944 3.86437e-17)
(34.8633 -1.65116 0)
(33.8853 -2.28083 6.07385e-16)
(32.8545 -2.81248 -1.13004e-16)
(31.7743 -3.24347 7.15437e-16)
(30.6286 -3.56895 -3.53575e-15)
(29.4285 -3.76994 -5.65858e-15)
(28.0142 -3.82292 7.56721e-15)
(26.6152 -3.52001 1.795e-14)
(23.672 -3.05325 -1.96005e-14)
(16.3354 16.1672 0)
(15.6448 15.339 1.07833e-16)
(14.964 14.3478 4.72187e-16)
(14.3068 13.2123 -2.05453e-15)
(13.7572 11.9865 1.73092e-15)
(13.3218 10.6644 -1.35592e-15)
(13.0285 9.27741 -1.0781e-18)
(12.8957 7.9006 1.47893e-15)
(12.9238 6.5837 1.53191e-15)
(13.1028 5.34392 0)
(13.4113 4.20427 7.62382e-16)
(13.8272 3.18283 -2.32389e-15)
(14.3333 2.27803 3.79973e-15)
(14.9121 1.48639 7.28634e-16)
(15.5469 0.806583 -1.47196e-15)
(16.2249 0.232585 -1.41859e-15)
(16.9339 -0.240675 -1.35663e-15)
(17.6629 -0.618455 0)
(18.4034 -0.906124 0)
(19.1486 -1.10852 0)
(19.8925 -1.22846 2.12989e-15)
(20.6295 -1.26678 0)
(21.3521 -1.2222 -1.62485e-15)
(22.0477 -1.09386 -2.22105e-16)
(22.6964 -0.885587 -1.63506e-15)
(23.2788 -0.61119 -1.53431e-15)
(23.7859 -0.288127 0)
(24.2162 0.0702393 -3.47016e-16)
(24.5693 0.452695 -1.03825e-16)
(24.8448 0.847716 2.05127e-17)
(25.0437 1.2444 2.51411e-15)
(25.1689 1.63341 -1.6671e-17)
(25.2224 2.00739 4.76397e-15)
(25.2063 2.35955 -4.64595e-15)
(25.1137 2.68544 0)
(24.9459 2.97583 -1.43592e-16)
(24.6303 3.22757 8.97876e-17)
(24.2391 3.32923 1.75223e-14)
(23.2715 3.27844 -1.25895e-16)
(17.8863 16.0984 3.97597e-17)
(18.6688 16.7807 0)
(19.5932 17.4667 3.84127e-16)
(20.6206 18.111 -3.42617e-16)
(21.7067 18.6635 1.20005e-16)
(22.8945 19.1369 -1.60531e-16)
(24.1514 19.5065 8.47284e-17)
(25.452 19.7524 4.40493e-17)
(26.796 19.8675 0)
(28.1618 19.8414 -1.47409e-16)
(29.5331 19.6658 -1.72907e-16)
(30.898 19.3348 1.69828e-16)
(32.2359 18.8448 8.53903e-16)
(33.5275 18.1939 3.98137e-16)
(34.752 17.3838 -1.20092e-15)
(35.8857 16.4206 -8.99658e-16)
(36.9056 15.3148 7.20308e-16)
(37.7893 14.0818 5.53456e-16)
(38.5147 12.7439 -2.73343e-16)
(39.0631 11.3275 2.73228e-16)
(39.4215 9.86393 7.10433e-16)
(39.5838 8.38922 1.28244e-16)
(39.5528 6.94212 -1.15463e-16)
(39.3428 5.55995 -7.43325e-16)
(38.9782 4.27093 0)
(38.4891 3.08256 -3.57922e-16)
(37.9006 1.98652 -1.62246e-16)
(37.2253 0.978667 -1.35666e-16)
(36.47 0.06204 -4.47124e-16)
(35.6427 -0.76158 1.44227e-15)
(34.75 -1.4916 4.50427e-16)
(33.7964 -2.12619 -3.73513e-17)
(32.7829 -2.66291 3.87725e-17)
(31.7119 -3.09801 0)
(30.568 -3.42583 1.70962e-15)
(29.3684 -3.62544 0)
(27.9782 -3.67754 0)
(26.6936 -3.36609 -8.71286e-15)
(24.2547 -2.936 1.31026e-16)
(17.1912 15.3889 -1.29456e-16)
(16.5461 14.6364 3.93489e-16)
(15.9041 13.7342 7.75306e-18)
(15.279 12.6992 4.65132e-16)
(14.749 11.5831 -1.6071e-15)
(14.3178 10.3781 1.22103e-15)
(14.011 9.10985 4.8489e-17)
(13.8479 7.8478 -1.26368e-15)
(13.8298 6.63931 -1.25779e-15)
(13.9468 5.49745 -1.30787e-15)
(14.1809 4.44183 -2.65398e-15)
(14.5136 3.48849 0)
(14.931 2.63473 -1.37786e-15)
(15.4196 1.8772 -2.74416e-17)
(15.9661 1.21562 0)
(16.5609 0.64567 -1.27885e-15)
(17.1939 0.164902 -6.22254e-16)
(17.8555 -0.229307 -6.03178e-16)
(18.5377 -0.539653 2.24606e-15)
(19.2331 -0.768582 2.12251e-15)
(19.9348 -0.917219 -2.44645e-16)
(20.636 -0.985731 1.87981e-15)
(21.3284 -0.972828 4.33571e-16)
(21.9996 -0.877963 -2.10507e-16)
(22.6305 -0.704541 1.45233e-15)
(23.2024 -0.463847 9.42976e-17)
(23.7049 -0.171324 0)
(24.135 0.159974 0)
(24.4909 0.51879 -1.97933e-17)
(24.7715 0.893645 5.81545e-17)
(24.9772 1.27345 -2.4608e-15)
(25.1099 1.64852 -1.61776e-17)
(25.1713 2.01098 4.78754e-15)
(25.163 2.35346 4.46223e-15)
(25.0782 2.67063 1.39603e-16)
(24.9179 2.95161 2.81465e-18)
(24.6147 3.19165 3.41795e-14)
(24.2375 3.27626 -1.66519e-14)
(23.3522 3.20422 1.18275e-16)
(18.5979 15.3338 1.76595e-17)
(19.3279 15.9583 0)
(20.1896 16.5874 -1.88273e-16)
(21.1442 17.1786 0)
(22.1483 17.6854 2.20611e-16)
(23.245 18.1221 -2.14374e-16)
(24.4031 18.4661 -1.30494e-16)
(25.5993 18.6997 -4.16383e-17)
(26.8351 18.8173 0)
(28.0918 18.8096 -5.27126e-18)
(29.3561 18.669 2.06002e-16)
(30.6193 18.3891 -4.2809e-16)
(31.8637 17.9653 -2.73994e-16)
(33.0728 17.3943 -2.74552e-16)
(34.2282 16.6754 7.65207e-16)
(35.3083 15.8117 8.61656e-16)
(36.2911 14.8108 -9.48409e-16)
(37.1546 13.6848 -9.13565e-16)
(37.8776 12.4509 0)
(38.4403 11.1323 2.42052e-16)
(38.8283 9.75748 -4.67918e-16)
(39.0331 8.36046 1.16854e-16)
(39.0546 6.97822 5.09921e-18)
(38.9033 5.64651 1.74053e-15)
(38.5986 4.39238 -9.14839e-17)
(38.1654 3.22539 6.34644e-17)
(37.6263 2.14229 1.4651e-16)
(36.9949 1.14179 1.4352e-16)
(36.2791 0.227883 3.87766e-16)
(35.4872 -0.596243 -6.51738e-16)
(34.6263 -1.32894 -4.18621e-16)
(33.701 -1.96767 -9.68158e-16)
(32.712 -2.50921 9.15526e-17)
(31.6606 -2.94873 5.03488e-18)
(30.5304 -3.27964 -1.73129e-15)
(29.3364 -3.47839 1.27873e-16)
(27.9536 -3.52915 -9.17891e-17)
(26.6776 -3.20447 1.40102e-16)
(24.6001 -2.78499 -1.7806e-14)
(17.9468 14.6846 7.4897e-17)
(17.3415 13.9973 -1.92594e-16)
(16.7343 13.1721 3.7354e-16)
(16.1386 12.224 0)
(15.6278 11.2028 9.68853e-16)
(15.2034 10.0988 0)
(14.8893 8.93368 0)
(14.7049 7.77239 0)
(14.6521 6.65985 2.30296e-15)
(14.721 5.60585 -1.15911e-15)
(14.8963 4.6276 1.2505e-15)
(15.1617 3.73946 0)
(15.5058 2.93752 0)
(15.9177 2.21796 -1.23526e-15)
(16.387 1.58086 0)
(16.9065 1.02282 1.18886e-15)
(17.4686 0.542586 1.50876e-17)
(18.0654 0.139624 0)
(18.6897 -0.186605 -1.58853e-15)
(19.3342 -0.436644 -2.49834e-15)
(19.992 -0.61011 -1.87064e-15)
(20.6554 -0.706119 -1.76109e-15)
(21.3158 -0.72292 3.30234e-15)
(21.9609 -0.659947 0)
(22.5722 -0.520018 1.38994e-15)
(23.1316 -0.31218 1.49848e-15)
(23.6277 -0.0500003 6.72187e-16)
(24.0559 0.254031 0)
(24.4134 0.588761 -7.75358e-17)
(24.6982 0.942813 -6.0092e-16)
(24.91 1.30505 2.33587e-15)
(25.0498 1.66549 -1.56572e-17)
(25.1189 2.01577 -4.39361e-15)
(25.1183 2.34797 4.13451e-15)
(25.0415 2.65587 -1.28731e-18)
(24.8891 2.92708 1.29883e-16)
(24.599 3.15507 -3.27505e-14)
(24.2369 3.22424 1.56209e-14)
(23.4304 3.13362 2.93915e-14)
(19.2312 14.6384 1.3643e-17)
(19.9153 15.2118 -5.9075e-17)
(20.722 15.7902 0)
(21.6132 16.3333 -3.11491e-16)
(22.5464 16.7985 0)
(23.5638 17.2004 0)
(24.6359 17.5188 1.70438e-17)
(25.7408 17.738 -6.96545e-17)
(26.8816 17.8532 -6.8351e-17)
(28.0414 17.8567 1.35746e-16)
(29.2096 17.7413 1.42256e-16)
(30.3797 17.5011 2.45639e-16)
(31.537 17.1309 0)
(32.6676 16.626 7.08018e-16)
(33.7555 15.9844 -2.66512e-16)
(34.7811 15.2069 0)
(35.724 14.2984 7.05931e-16)
(36.5631 13.268 8.76754e-16)
(37.2776 12.1301 0)
(37.8473 10.9056 8.09141e-16)
(38.2563 9.6198 -7.93164e-16)
(38.4953 8.30331 0)
(38.5616 6.99004 -9.23531e-17)
(38.4625 5.71349 -4.23493e-18)
(38.213 4.49941 4.27208e-17)
(37.8331 3.35879 5.96623e-16)
(37.3424 2.29251 -4.05905e-18)
(36.7546 1.30234 -1.29168e-17)
(36.0783 0.393543 -7.70188e-18)
(35.3219 -0.429361 2.06561e-17)
(34.4929 -1.16342 3.7467e-16)
(33.5963 -1.80527 7.96646e-16)
(32.6334 -2.35093 -3.14378e-17)
(31.6056 -2.79458 8.25014e-16)
(30.4969 -3.12886 1.54379e-15)
(29.3194 -3.32768 5.01607e-15)
(27.9572 -3.37808 6.63064e-15)
(26.6593 -3.04488 -2.37223e-16)
(24.8062 -2.61615 1.68117e-14)
(18.6187 14.0423 -1.5226e-16)
(18.0487 13.4123 -5.15911e-16)
(17.4728 12.6545 9.91501e-16)
(16.9041 11.7825 0)
(16.4121 10.8441 1.70874e-15)
(15.9961 9.82832 0)
(15.6792 8.75354 -9.57888e-16)
(15.4802 7.68148 3.83879e-15)
(15.4011 6.65412 -2.95167e-15)
(15.4328 5.67925 0)
(15.5612 4.77194 2.14865e-15)
(15.7721 3.94511 2.15281e-15)
(16.0556 3.194 0)
(16.4025 2.51437 -2.19378e-15)
(16.8046 1.90594 5.45586e-16)
(17.257 1.36541 -5.45502e-16)
(17.7539 0.892284 5.40378e-16)
(18.2892 0.487219 1.01668e-15)
(18.8569 0.15117 -1.4893e-17)
(19.4507 -0.114779 1.37747e-15)
(20.0634 -0.30884 4.3885e-16)
(20.6876 -0.429103 -4.23084e-16)
(21.3146 -0.473274 -1.56002e-15)
(21.932 -0.440322 1.4772e-15)
(22.5222 -0.332258 -1.22982e-15)
(23.067 -0.156303 -1.50776e-15)
(23.5549 0.0758778 -6.38821e-16)
(23.9797 0.352554 -9.45429e-18)
(24.3374 0.66281 8.34146e-17)
(24.6255 0.995512 5.74207e-16)
(24.8425 1.33953 8.23055e-18)
(24.989 1.68465 -1.51003e-17)
(25.0655 2.02206 4.41168e-15)
(25.0726 2.34336 -4.24899e-15)
(25.0039 2.6414 1.30126e-16)
(24.8598 2.90241 -8.21407e-15)
(24.5836 3.11817 1.57693e-14)
(24.2374 3.17333 0)
(23.5063 3.06643 -2.81703e-14)
(19.7974 14.0022 3.08355e-17)
(20.4408 14.5301 0)
(21.1987 15.0628 0)
(22.034 15.5625 5.65448e-16)
(22.9046 15.9897 -1.91857e-17)
(23.8523 16.3594 0)
(24.8485 16.6531 0)
(25.8727 16.8569 3.66127e-16)
(26.9289 16.9672 -4.28152e-17)
(28.0022 16.9771 -5.01388e-17)
(29.0834 16.8806 -2.8806e-16)
(30.1684 16.6719 -1.58275e-16)
(31.2444 16.3459 2.60052e-16)
(32.3002 15.8975 -7.55973e-17)
(33.3221 15.3234 0)
(34.2925 14.6229 0)
(35.1929 13.7984 -1.85415e-15)
(36.0033 12.8569 -3.60477e-16)
(36.7038 11.8097 3.59702e-16)
(37.2748 10.6741 -7.84772e-16)
(37.6994 9.47279 1.46241e-15)
(37.9666 8.23359 6.74367e-16)
(38.0723 6.98776 -6.44035e-16)
(38.0203 5.76674 -7.34063e-16)
(37.822 4.5949 1.11156e-16)
(37.4928 3.48375 -5.68971e-16)
(37.0496 2.43727 -6.10452e-17)
(36.5053 1.45998 1.15625e-17)
(35.8688 0.558465 -1.15613e-17)
(35.1484 -0.261408 2.67342e-17)
(34.3516 -0.995427 -4.08195e-17)
(33.484 -1.63933 -3.74735e-16)
(32.5476 -2.18826 -3.1247e-17)
(31.5441 -2.63549 5.0231e-17)
(30.4592 -2.97287 0)
(29.3036 -3.17234 -4.69248e-15)
(27.9746 -3.22244 -6.16671e-15)
(26.6682 -2.88826 0)
(24.9525 -2.4412 0)
(19.2194 13.4534 0)
(18.6809 12.8739 4.77907e-16)
(18.1336 12.1757 -1.52446e-15)
(17.5902 11.3708 -6.94053e-16)
(17.1162 10.5055 -1.58636e-15)
(16.7099 9.56743 0)
(16.3931 8.57262 0)
(16.1845 7.58004 -1.72329e-15)
(16.0858 6.62885 1.78638e-15)
(16.0883 5.72524 0)
(16.1794 4.88269 -9.48688e-16)
(16.346 4.11312 -1.00668e-15)
(16.5792 3.41116 9.94011e-16)
(16.8712 2.77178 1.02651e-15)
(17.2154 2.19424 -1.99191e-15)
(17.6083 1.67522 0)
(18.0459 1.2143 -4.80109e-16)
(18.5237 0.812733 1.15166e-17)
(19.0371 0.472347 2.26255e-15)
(19.5809 0.195399 -4.39995e-16)
(20.1484 -0.0150992 4.28101e-16)
(20.7325 -0.156304 -3.8273e-16)
(21.3248 -0.225235 5.56905e-16)
(21.9132 -0.220238 -2.97491e-15)
(22.4806 -0.142331 -1.17382e-15)
(23.0092 0.00297647 1.19559e-15)
(23.487 0.205744 -7.83508e-17)
(23.9067 0.455183 0)
(24.2634 0.740773 -7.15744e-17)
(24.5536 1.05168 5.22512e-16)
(24.7751 1.37688 -1.04734e-15)
(24.9277 1.70603 2.13234e-15)
(25.0113 2.02992 -8.50097e-15)
(25.0262 2.33968 8.40894e-15)
(24.9657 2.6273 -1.24803e-16)
(24.8302 2.87776 7.7754e-15)