/*--------------------------------*- C++ -*----------------------------------*\
| =========                 |                                                 |
| \\      /  F ield         | OpenFOAM: The Open Source CFD Toolbox           |
|  \\    /   O peration     | Version:  3.0.0                                 |
|   \\  /    A nd           | Web:      www.OpenFOAM.org                      |
|    \\/     M anipulation  |                                                 |
\*---------------------------------------------------------------------------*/
FoamFile
{
    version     2.0;
    format      ascii;
    class       surfaceScalarField;
    location    "7.25";
    object      phi;
}
// * * * * * * * * * * * * * * * * * * * * * * * * * * * * * * * * * * * * * //

dimensions      [0 3 -1 0 0 0 0];

internalField   nonuniform List<scalar> 
11520
(
-0.000402171
-0.000713596
-6.67457e-05
-0.000350933
-0.000746194
0.000122886
-0.000266154
-0.000757796
0.000312451
-0.000154367
-0.000733641
0.000482654
-3.31065e-05
-0.000669839
0.000602291
6.8543e-05
-0.000565691
0.000640266
0.000119739
-0.000422991
0.00058168
0.000104847
-0.000249369
0.00044155
3.27992e-05
-6.58358e-05
0.00026066
-6.92858e-05
9.00936e-05
8.25197e-05
-0.000173318
0.000174985
-6.77305e-05
-0.000261585
0.000160384
-0.000183629
-0.000329423
4.83932e-05
-0.00026378
-0.00037818
-0.000127252
-0.000300837
-0.000408792
-0.000317575
-0.000286132
-0.00046506
-0.000224459
-0.00039032
-0.000705026
-0.000118743
-0.000353914
-0.000740572
6.45284e-05
-0.000282287
-0.000748919
0.000250383
-0.000181035
-0.000717976
0.000425437
-6.31487e-05
-0.000645784
0.000562102
4.77682e-05
-0.000534266
0.000629718
0.000123393
-0.000387442
0.000607061
0.000143554
-0.000213122
0.000495323
0.000105109
-3.06643e-05
0.000321388
2.21344e-05
0.000122577
0.00012597
-8.18614e-05
0.000200194
-5.45261e-05
-0.000183413
0.000172195
-0.000198656
-0.000268617
4.52748e-05
-0.000295828
-0.000333462
-0.000139927
-0.000339133
-0.000377033
-0.000330586
-0.000324971
-0.000474608
-0.000262819
-0.000400611
-0.000641159
-0.000174948
-0.000371864
-0.000684761
2.95345e-06
-0.000302969
-0.00069612
0.000188085
-0.000200099
-0.000665611
0.000368751
-7.55368e-05
-0.000593001
0.000518764
4.94798e-05
-0.000481704
0.000608513
0.000148648
-0.000336799
0.000614977
0.000200421
-0.000165423
0.000532251
0.000195116
1.61761e-05
0.000376434
0.000136402
0.000173131
0.000180895
3.94924e-05
0.000256769
-1.56198e-05
-7.38383e-05
0.000230825
-0.000181822
-0.000184285
0.000100488
-0.000298858
-0.000279537
-8.93676e-05
-0.000357136
-0.000351053
-0.000282041
-0.000354252
-0.000427276
-0.000298595
-0.000399969
-0.000530554
-0.000227888
-0.000377612
-0.000588181
-6.77414e-05
-0.000310679
-0.000608345
0.000105701
-0.000206492
-0.000584859
0.000281634
-7.73969e-05
-0.000518811
0.000436216
5.74097e-05
-0.000414108
0.000542343
0.00017449
-0.000275923
0.000577509
0.000252969
-0.000110433
0.00053137
0.000279384
6.93785e-05
0.000410023
0.000248563
0.000233536
0.000235512
0.000165531
0.000333312
4.15441e-05
4.64865e-05
0.000324123
-0.000135986
-8.61277e-05
0.000203058
-0.000270057
-0.000211532
1.50705e-05
-0.000346319
-0.000312379
-0.00018001
-0.00036131
-0.000331723
-0.000320731
-0.000377806
-0.000386372
-0.000272402
-0.000362262
-0.000461511
-0.000144842
-0.000298662
-0.00049467
2.4502e-06
-0.000195918
-0.000483561
0.000160313
-6.66991e-05
-0.000429932
0.000308175
7.15998e-05
-0.000337457
0.000422895
0.000198759
-0.000210631
0.000484128
0.000296002
-5.44627e-05
0.000479197
0.000348463
0.000121125
0.000405744
0.000345063
0.000292039
0.000272946
0.000281181
0.000412855
0.000103124
0.000164954
0.000431717
-7.02154e-05
1.84726e-05
0.000332268
-0.000213757
-0.000130376
0.000153939
-0.000306894
-0.000256175
-4.09506e-05
-0.000343473
-0.000201653
-0.000325838
-0.00033224
-0.000227856
-0.00030428
-0.000323037
-0.00032095
-0.000222062
-0.000263538
-0.000369663
-0.000114207
-0.000163995
-0.00037444
1.234e-05
-3.76819e-05
-0.000337295
0.000142015
9.93596e-05
-0.000260902
0.000256111
0.000229697
-0.000148686
0.000337527
0.000336904
-4.54548e-06
0.000373018
0.000406495
0.000163952
0.000354111
0.000424702
0.000338523
0.000278198
0.000380482
0.00047973
0.000152858
0.000273468
0.000531985
2.28753e-06
0.000122661
0.000464591
-0.000139964
-4.09325e-05
0.000305028
-0.00024539
-0.000184568
0.000114443
-0.000303778
-5.46775e-05
-0.000314617
-0.000266558
-7.77649e-05
-0.000319768
-0.000262024
-0.000187326
-0.000289792
-0.000205851
-0.000252475
-0.000229849
-0.000109558
-0.000274549
-0.000143683
1.32402e-05
-0.000255133
-4.21068e-05
0.000147054
-0.000195952
6.23068e-05
0.000276388
-9.91439e-05
0.000155404
0.000386564
3.22688e-05
0.000224779
0.000463936
0.000192264
0.000258521
0.000494322
0.00036724
0.000245222
0.000464001
0.000524816
0.000177987
0.000367789
0.000610136
6.57323e-05
0.000219455
0.000579883
-6.17067e-05
5.02269e-05
0.000446127
-0.000171785
-0.000103243
0.0002647
-0.000248902
8.91456e-05
-0.00028972
-0.000189967
4.073e-05
-0.000315905
-0.000187156
-8.35273e-05
-0.000335193
-0.000132157
-0.000164322
-0.000322933
-3.741e-05
-0.000202578
-0.000279626
8.29511e-05
-0.000199314
-0.00021039
0.000213797
-0.000155349
-0.000123676
0.000340526
-7.16973e-05
-2.936e-05
0.000449171
4.89796e-05
6.22786e-05
0.000526619
0.000201689
0.000138236
0.000559012
0.000376045
0.000182236
0.000533017
0.000545758
0.000175591
0.000443131
0.000659081
0.000110804
0.000299792
0.000664571
8.63601e-06
0.000132186
0.000559379
-9.8294e-05
-2.2763e-05
0.000389549
-0.00018761
0.000209032
-0.000254477
-0.000118663
0.000107945
-0.000292924
-0.000113693
-2.99889e-05
-0.000346225
-5.74365e-05
-0.000124247
-0.000370204
3.75221e-05
-0.00017518
-0.000362915
0.000156747
-0.000183736
-0.000324983
0.000285307
-0.000150305
-0.000260247
0.000408634
-7.53085e-05
-0.000174762
0.000512946
3.90265e-05
-7.62378e-05
0.000584844
0.000188183
2.46908e-05
0.00061063
0.000363873
0.000110595
0.000579144
0.000543558
0.000154418
0.000488384
0.000678422
0.000134236
0.000349661
0.000713317
5.93152e-05
0.000188549
0.000633017
-3.72721e-05
3.96286e-05
0.000472942
-0.000130636
0.000286116
-0.000213561
-7.24605e-05
0.000111475
-0.00025534
-6.18639e-05
-3.84394e-05
-0.000318055
-3.48346e-06
-0.000142114
-0.00035751
9.12238e-05
-0.000200376
-0.000371028
0.000208626
-0.00021464
-0.000356622
0.000333934
-0.000185603
-0.00031436
0.000452272
-0.000113601
-0.00024644
0.000549336
-5.13157e-07
-0.000156348
0.000611046
0.000149936
-5.05631e-05
0.000623845
0.000330555
5.48476e-05
0.000580051
0.000519685
0.000128134
0.000483422
0.000669589
0.000137713
0.000348622
0.00072453
8.47407e-05
0.000198548
0.000660627
-5.78241e-08
6.32795e-05
0.000504109
-8.92324e-05
0.000306994
-0.000173183
-6.39916e-05
4.94257e-05
-0.000209172
-4.59881e-05
-0.000106221
-0.000256559
1.27028e-05
-0.000212527
-0.000288765
0.000103675
-0.000271532
-0.000304678
0.000215569
-0.000285304
-0.00030189
0.000334058
-0.000254849
-0.000278286
0.000443537
-0.000180624
-0.0002325
0.000528568
-6.42345e-05
-0.000163206
0.000574235
9.158e-05
-7.18155e-05
0.000568506
0.000279799
2.82064e-05
0.00050901
0.000477057
0.000104089
0.000406464
0.000634971
0.000121976
0.000278733
0.000697814
8.0114e-05
0.000147084
0.000637907
6.77781e-06
3.50265e-05
0.000476568
-7.03771e-05
0.000266418
-0.000139662
-8.93127e-05
-6.74736e-05
-0.000159324
-6.42932e-05
-0.00021646
-0.000175145
-8.41447e-06
-0.000316169
-0.00018351
7.46942e-05
-0.000369096
-0.000186608
0.000176339
-0.000377302
-0.0001831
0.000282817
-0.000341206
-0.000171384
0.00037731
-0.000261056
-0.000147967
0.000442628
-0.000137939
-0.000107361
0.000464197
2.56252e-05
-4.6307e-05
0.000434275
0.000221261
2.52814e-05
0.000358373
0.000421581
7.85704e-05
0.000254012
0.000576308
8.53852e-05
0.000141901
0.000631221
4.58815e-05
3.99523e-05
0.000560764
-1.5144e-05
-3.76621e-05
0.000387882
-7.32604e-05
0.00016888
-0.00011692
-0.000132994
-0.000217075
-0.000111355
-0.000102929
-0.000345162
-8.92252e-05
-5.10787e-05
-0.00042923
-6.60854e-05
2.28719e-05
-0.000470546
-4.63918e-05
0.000111842
-0.000469238
-3.25573e-05
0.000202524
-0.000424894
-2.55018e-05
0.000276263
-0.000336463
-2.21197e-05
0.000314509
-0.000204601
-1.47408e-05
0.000304809
-3.29353e-05
4.06811e-06
0.000247219
0.000166184
2.9987e-05
0.000156927
0.000359445
4.43423e-05
5.80203e-05
0.00049491
2.96099e-05
-2.83725e-05
0.000523827
-1.11035e-05
-9.12089e-05
0.000430388
-5.80521e-05
-0.000128994
0.000245658
-9.26966e-05
2.94715e-05
-0.000107046
-0.000181943
-0.000372833
-7.2734e-05
-0.00014849
-0.000470918
-1.23119e-05
-9.89346e-05
-0.000534265
4.44612e-05
-3.11508e-05
-0.000559958
9.14499e-05
4.81663e-05
-0.000546482
0.000121953
0.00012416
-0.000491482
0.000130545
0.000176359
-0.000393
0.000117257
0.000186019
-0.000251791
8.98177e-05
0.000145048
-7.41105e-05
5.95313e-05
6.26204e-05
0.000121134
3.15295e-05
-3.67504e-05
0.000294451
6.8624e-07
-0.000124585
0.000394468
-3.86467e-05
-0.000182604
0.000383525
-8.1516e-05
-0.000209328
0.000262377
-0.000114192
-0.000213877
7.1777e-05
-0.000125006
-0.000128155
-0.000111433
-0.000232782
-0.000514165
-4.89854e-05
-0.000195268
-0.00058254
4.7205e-05
-0.000142406
-0.000624839
0.000137445
-7.33379e-05
-0.00063401
0.000213997
4.03914e-06
-0.000605875
0.000265047
7.25022e-05
-0.000537161
0.000279633
0.00010984
-0.000426167
0.000253402
9.8315e-05
-0.000275208
0.000193212
3.49472e-05
-9.49334e-05
0.000114572
-6.37383e-05
8.88056e-05
3.26407e-05
-0.000167454
0.000231825
-4.37674e-05
-0.0002465
0.000286933
-0.000109231
-0.000286966
0.000232194
-0.000156678
-0.000294475
8.66432e-05
-0.000177522
-0.000283342
-0.000102185
-0.000166802
-0.000278796
-0.000129428
-0.000272263
-3.89423e-05
-0.00022868
8.46635e-05
-0.000168167
0.000201258
-9.19416e-05
0.000302047
-9.29229e-06
0.000372576
6.075e-05
0.000397536
9.41979e-05
0.000367929
7.37424e-05
0.000287689
1.81062e-08
0.00017353
-0.000106164
4.70521e-05
-0.000212714
-7.18098e-05
-0.000292548
-0.000166637
-0.000335033
-0.000224809
-0.000345879
-0.000239196
-0.000336239
-0.00021081
-0.000152928
-0.000647479
-0.000641371
-3.1756e-06
-0.000623951
-0.000626317
0.000128298
-0.000554641
-0.000611263
0.000258564
-0.000443443
-0.00057704
0.000371561
-0.000304769
-0.000520185
0.000448369
-0.000166828
-0.000439517
0.000473466
-6.54558e-05
-0.000335123
0.000441002
-2.82264e-05
-0.0002107
0.000359066
-5.884e-05
-7.95853e-05
0.000247985
-0.000136216
3.01946e-05
0.000130563
-0.000231227
8.34871e-05
2.20261e-05
-0.000323912
5.73775e-05
-7.02719e-05
-0.000407496
-4.29694e-05
-0.000139815
-0.000482674
-0.000184409
-0.000176893
-0.000549508
-0.000326399
-0.000171974
-0.000416675
-0.000130123
-0.000624263
-0.000603451
-0.000113503
-0.000612044
-0.000594604
2.05966e-05
-0.000552871
-0.000576799
0.000156745
-0.000451886
-0.000537136
0.000284547
-0.000320964
-0.000474043
0.000385038
-0.000183045
-0.000387475
0.000439757
-6.89366e-05
-0.000278683
0.000436514
-6.34369e-06
-0.000152313
0.000374344
-7.41834e-06
-2.2664e-05
0.000265542
-6.4295e-05
8.09658e-05
0.000132075
-0.000155391
0.000122066
-2.00947e-06
-0.000257096
7.97494e-05
-0.000119322
-0.000355536
-3.46815e-05
-0.000205676
-0.000444157
-0.000183257
-0.000251665
-0.000520983
-0.000322241
-0.000252303
-0.000406622
-0.000212751
-0.000606634
-0.000516567
-0.00021155
-0.000599988
-0.000518701
-7.95949e-05
-0.000543674
-0.000503636
5.8608e-05
-0.000443129
-0.000464371
0.000195442
-0.000309573
-0.000400972
0.000312137
-0.000163361
-0.00031426
0.000389087
-3.20931e-05
-0.000206162
0.000411189
5.70955e-05
-8.13034e-05
0.000372053
8.63435e-05
4.72497e-05
0.000277272
5.27157e-05
0.00015141
0.000144079
-3.16919e-05
0.000192874
-2.02019e-06
-0.000144967
0.000147469
-0.000136267
-0.00026669
2.71263e-05
-0.000238943
-0.000381974
-0.000125885
-0.000299225
-0.00048088
-0.000265072
-0.000312514
-0.000349426
-0.000280319
-0.000563248
-0.000393678
-0.000292895
-0.000561313
-0.000410673
-0.000177705
-0.000507241
-0.000402109
-4.98986e-05
-0.000406793
-0.000367431
8.4246e-05
-0.000270823
-0.000308474
0.000207749
-0.000117487
-0.000226548
0.000301294
2.87578e-05
-0.000123716
0.000348817
0.000142062
-3.84954e-06
0.000340612
0.00020106
0.000122735
0.00027554
0.000193232
0.00023185
0.0001629
0.00011981
0.000284601
2.32388e-05
-2.06801e-06
0.000249272
-0.000115911
-0.000146778
0.00013247
-0.00023069
-0.000290052
-2.19569e-05
-0.000306973
-0.000413512
-0.000163872
-0.00033905
-0.000254483
-0.000323821
-0.000488222
-0.000250263
-0.000350778
-0.000491736
-0.000283353
-0.000268649
-0.000441013
-0.000284033
-0.000166348
-0.00034285
-0.000257685
-4.75969e-05
-0.00020754
-0.000207321
7.17128e-05
-5.12308e-05
-0.00013467
0.000174708
0.000104879
-4.15059e-05
0.000245808
0.000237232
6.9523e-05
0.000273473
0.000322962
0.000191633
0.000251115
0.00034238
0.000306685
0.000178693
0.000285345
0.000378287
6.64736e-05
0.000161339
0.000365558
-6.24963e-05
-1.4688e-06
0.000263178
-0.000181657
-0.000169642
0.000112327
-0.000273005
-0.000316176
-3.2748e-05
-0.000328062
-0.000133722
-0.000339592
-0.000385116
-0.000104558
-0.00037877
-0.000394208
-0.000152819
-0.000343503
-0.000347759
-0.000165196
-0.000279492
-0.000253499
-0.000150326
-0.00018928
-0.000121665
-0.00011212
-8.50191e-05
3.35049e-05
-5.24513e-05
1.87225e-05
0.000193943
2.76395e-05
0.000107944
0.000338809
0.000126764
0.00017091
0.000445677
0.000241408
0.000197468
0.000490679
0.000360428
0.000179453
0.000453776
0.000454024
0.000114024
0.000334857
0.000474393
1.23714e-05
0.000160695
0.000398127
-0.000100751
-2.77358e-05
0.000258371
-0.000203002
-0.000193823
0.000111426
-0.000281864
-1.27594e-06
-0.000326986
-0.000263102
2.46243e-05
-0.000372583
-0.000276877
-3.74723e-05
-0.000391364
-0.00023427
-6.36611e-05
-0.000373991
-0.000144074
-6.28697e-05
-0.000321334
-1.70149e-05
-3.94514e-05
-0.000241835
0.000134374
5.20381e-06
-0.000146737
0.000294502
7.06878e-05
-4.77729e-05
0.000445308
0.000156779
4.3959e-05
0.000565944
0.000262331
0.000116961
0.000631182
0.000382626
0.000157786
0.0006142
0.000497231
0.000151761
0.000504924
0.000556218
9.31834e-05
0.00032669
0.000516651
-1.99617e-06
0.000125028
0.000396305
-0.000108057
-5.64809e-05
0.000251086
-0.000207053
0.000126775
-0.000287518
-0.000137582
0.000119542
-0.00033117
-0.000153633
4.38093e-05
-0.000400424
-0.000112828
2.51772e-06
-0.000429917
-2.5381e-05
-1.1837e-05
-0.000418106
9.75242e-05
-3.64043e-06
-0.000369106
0.000243943
2.58921e-05
-0.000290783
0.000400222
7.73726e-05
-0.000192324
0.000550851
0.000151689
-8.32608e-05
0.000677023
0.000249065
2.53307e-05
0.000753777
0.000369604
0.000118504
0.000750989
0.000502492
0.000173118
0.000651888
0.000600175
0.000165948
0.000475376
0.000602963
9.88353e-05
0.000267637
0.000508307
-2.55674e-06
7.7802e-05
0.000367706
-0.000114396
0.000232011
-0.000223981
-3.15554e-05
0.00016524
-0.000259876
-4.60097e-05
7.48617e-05
-0.000362823
-3.99653e-06
1.90817e-05
-0.000428781
8.30093e-05
-8.62125e-06
-0.000453136
0.000203028
-1.32792e-05
-0.000435362
0.000344167
3.89122e-06
-0.000379385
0.000494028
4.42454e-05
-0.000291496
0.000638917
0.000109543
-0.000178981
0.000761916
0.000201417
-5.06604e-05
0.00083898
0.000323836
7.92993e-05
0.000839874
0.000472904
0.000183111
0.000746821
0.000604355
0.000223108
0.000575519
0.000647194
0.000186385
0.000370469
0.000579575
9.65102e-05
0.000181548
0.000443966
-1.79752e-05
0.000295817
-0.000143008
2.82276e-05
0.000151503
-0.000171181
1.98211e-05
4.70198e-05
-0.000281807
6.49505e-05
-1.91836e-05
-0.000364374
0.000152955
-5.5223e-05
-0.000412431
0.000271169
-6.71504e-05
-0.000420965
0.000407135
-5.69894e-05
-0.000389445
0.00054859
-2.32967e-05
-0.000320353
0.000682697
3.6609e-05
-0.00021752
0.000793433
0.000126525
-8.64075e-05
0.000857617
0.000253981
6.05185e-05
0.000848645
0.000417889
0.000192121
0.000754279
0.000574489
0.000261946
0.000590831
0.000647366
0.000248017
0.000398257
0.00060054
0.000171551
0.000222099
0.000466395
6.4497e-05
0.000302991
-5.69081e-05
2.42969e-05
7.59002e-05
-8.05943e-05
2.4482e-05
-3.58262e-05
-0.000173898
7.25211e-05
-0.000105005
-0.000250983
0.000160681
-0.000142301
-0.000305759
0.000276748
-0.000154274
-0.000330833
0.000407343
-0.000144431
-0.000321439
0.000538755
-0.000111804
-0.000275405
0.000657022
-5.29122e-05
-0.000191952
0.000745367
3.92039e-05
-7.28389e-05
0.000782512
0.000174821
7.02204e-05
0.000750462
0.000350688
0.00020334
0.000648614
0.000519793
0.000278521
0.000497058
0.000605255
0.00027378
0.000329071
0.000565751
0.000209554
0.000179795
0.000427058
0.000118236
0.000247963
1.78893e-05
-3.85625e-05
-5.14843e-05
-1.28848e-06
-3.06643e-05
-0.000156538
-6.23313e-05
1.8444e-05
-0.000220045
-0.000117579
0.000103451
-0.000250995
-0.000162921
0.000215292
-0.00025702
-0.000192196
0.000339173
-0.000241532
-0.000198165
0.000458164
-0.000204238
-0.000174524
0.000554543
-0.000140806
-0.000115845
0.000610167
-4.19056e-05
-2.08215e-05
0.000608779
0.000103073
9.84174e-05
0.000546557
0.000283453
0.000208028
0.000437724
0.000447287
0.000266725
0.000306346
0.000522669
0.000259846
0.000176206
0.000473546
0.000207202
6.6734e-05
0.000325996
0.000137274
0.000138558
6.71303e-05
-0.000138197
-0.000207522
5.61991e-05
-0.000125243
-0.000290992
3.22751e-05
-7.8829e-05
-0.000340469
7.92481e-06
1.32758e-06
-0.000360614
-1.69294e-05
0.000106873
-0.000356529
-3.85928e-05
0.000221923
-0.000331283
-5.0801e-05
0.000325282
-0.000284384
-4.5332e-05
0.000394556
-0.000211025
-1.37961e-05
0.000411315
-0.000101545
4.69486e-05
0.000369193
4.94279e-05
0.000125754
0.000281275
0.000221235
0.000194479
0.000174455
0.000359035
0.000224681
7.25862e-05
0.000402858
0.000210576
-1.28741e-05
0.00033149
0.000169465
-7.9171e-05
0.000176493
0.000123103
-4.50951e-06
8.35308e-05
-0.000250797
-0.00036337
8.46047e-05
-0.000235502
-0.000416288
9.76885e-05
-0.000191302
-0.000447597
0.000107389
-0.000115873
-0.000454429
0.000109836
-1.64913e-05
-0.000438435
0.000104478
8.91669e-05
-0.000400893
9.44964e-05
0.000175932
-0.00034085
8.69578e-05
0.000218135
-0.000254066
9.06561e-05
0.000200319
-0.000134309
0.000110112
0.00012791
1.47566e-05
0.00013861
2.78182e-05
0.000162845
0.000159167
-6.74348e-05
0.000258017
0.000157625
-0.000138994
0.000258228
0.000134674
-0.000187247
0.000161744
0.000103806
-0.000220839
5.69987e-06
7.9379e-05
-0.000154099
6.66238e-05
-0.000360024
-0.000495739
8.31958e-05
-0.00034233
-0.000518628
0.000131852
-0.000297089
-0.000531472
0.000176079
-0.000221971
-0.000524476
0.000208926
-0.000124858
-0.000495633
0.000225131
-2.51176e-05
-0.000444243
0.000223243
4.9604e-05
-0.000369099
0.00020693
7.30588e-05
-0.00026813
0.000183821
3.46174e-05
-0.000141565
0.000160269
-5.14688e-05
-3.36344e-06
0.000136847
-0.000152309
0.000110673
0.000109245
-0.000236071
0.000156784
7.57628e-05
-0.000289796
0.000113288
4.19877e-05
-0.000320075
-3.70538e-06
1.82059e-05
-0.000340464
-0.000153091
1.2379e-05
-0.00028652
2.27405e-05
-0.000433284
6.28483e-05
-0.000412112
0.000142242
-0.000362984
0.000216499
-0.000285687
0.00027721
-0.000188601
0.00031529
-9.14557e-05
0.000324523
-2.24221e-05
0.000304224
-6.57527e-06
0.000259667
-5.10549e-05
0.000199319
-0.000138826
0.000130598
-0.000237441
5.92461e-05
-0.00031935
-5.99362e-06
-0.000374036
-5.42468e-05
-0.00040651
-7.47839e-05
-0.000427029
-6.43075e-05
-3.26127e-05
-0.000779602
-0.000471349
5.48002e-05
-0.000770669
-0.000405895
0.00011775
-0.000714406
-0.000349821
0.00018558
-0.000614125
-0.000293552
0.000239054
-0.00048167
-0.00023972
0.000269651
-0.000341512
-0.000190672
0.000275273
-0.000225921
-0.000145852
0.000258838
-0.00016291
-0.000101508
0.000225865
-0.000162574
-5.58458e-05
0.000182195
-0.000212782
-1.82747e-05
0.000131514
-0.000290234
-1.02305e-05
7.61226e-05
-0.000376176
-4.89998e-05
1.9944e-05
-0.000462532
-0.000131176
-2.88843e-05
-0.000546996
-0.000230051
-5.90441e-05
-0.000629104
-0.000313256
-6.00781e-05
-0.000342614
-3.19338e-05
-0.000763018
-0.000418771
-9.56794e-05
-0.000768256
-0.000362698
-1.73634e-05
-0.000724089
-0.000305242
6.79995e-05
-0.000634764
-0.000244527
0.000146197
-0.00051002
-0.000184467
0.00020504
-0.000370401
-0.00012767
0.000237136
-0.000244448
-7.47986e-05
0.000239507
-0.000159798
-2.49593e-05
0.000213146
-0.000132261
2.017e-05
0.000161989
-0.000160129
4.91261e-05
9.25424e-05
-0.000227866
4.17563e-05
1.37408e-05
-0.000317544
-1.50114e-05
-6.36327e-05
-0.00041504
-0.000111728
-0.00012763
-0.00051223
-0.000216554
-0.00016797
-0.000605086
-0.000296088
-0.000176616
-0.000318074
-0.000149761
-0.000726997
-0.000329291
-0.00022471
-0.000739743
-0.000286246
-0.000143301
-0.000701797
-0.000231891
-5.26891e-05
-0.00061703
-0.000171398
3.75465e-05
-0.00049394
-0.00010997
0.000114551
-0.000350056
-5.04e-05
0.000167932
-0.000210624
6.21288e-06
0.000190745
-0.000102258
5.87953e-05
0.000179932
-4.57759e-05
0.000104709
0.000136252
-4.96984e-05
0.000131915
6.52123e-05
-0.000108236
0.00012042
-2.21465e-05
-0.000205488
5.69719e-05
-0.000110998
-0.000322367
-4.6761e-05
-0.000187031
-0.000442096
-0.000156327
-0.000239724
-0.000553176
-0.000236105
-0.000261416
-0.000257869
-0.000243024
-0.000654623
-0.000217013
-0.000324213
-0.000673255
-0.000188466
-0.000256854
-0.00063976
-0.000139789
-0.000175495
-0.000557992
-8.30191e-05
-8.59011e-05
-0.000435451
-2.42601e-05
-5.02148e-07
-0.000287171
3.35993e-05
6.9015e-05
-0.000135015
8.92023e-05
0.000113672
-4.61576e-06
0.000141885
0.000127123
8.01248e-05
0.000188896
0.000106612
0.000101423
0.000219868
5.36489e-05
5.40683e-05
0.000214721
-2.37075e-05
-5.02694e-05
0.000156421
-0.000111022
-0.000187959
5.32753e-05
-0.000193037
-0.000332732
-5.94955e-05
-0.000259031
-0.00046484
-0.000142874
-0.000300173
-0.000170772
-0.000302094
-0.000545901
-9.63936e-05
-0.00038663
-0.000570031
-8.17341e-05
-0.000351251
-0.000540839
-4.13312e-05
-0.000293998
-0.000462124
8.45252e-06
-0.000217784
-0.000340987
6.03767e-05
-0.00013406
-0.000190185
0.000111797
-5.42921e-05
-2.85731e-05
0.000161967
1.14313e-05
0.000120418
0.000211072
5.52942e-05
0.00023136
0.000258157
7.0912e-05
0.000279347
0.000296338
5.42373e-05
0.000247653
0.000306978
5.91063e-06
0.000140035
0.000266185
-6.46425e-05
-1.63699e-05
0.000173009
-0.000144985
-0.000186162
6.07793e-05
-0.000223488
-0.000340198
-2.79506e-05
-0.00028895
-6.64617e-05
-0.000322965
-0.000407527
1.9025e-05
-0.000405726
-0.000436963
2.13635e-05
-0.000417165
-0.00041172
5.06456e-05
-0.000396712
-0.000336359
8.93921e-05
-0.00034558
-0.000217698
0.000130034
-0.000273338
-6.67236e-05
0.000170251
-0.000190706
0.000100392
0.000210387
-0.000107593
0.00026289
0.000252282
-3.27974e-05
0.000396082
0.000297433
2.50002e-05
0.000470901
0.000343542
5.74287e-05
0.000459631
0.000376804
5.54685e-05
0.000355165
0.00036673
1.62926e-05
0.000183885
0.000295819
-5.22812e-05
-9.27305e-06
0.000190441
-0.000139506
-0.000185142
9.67586e-05
-0.000230705
4.51258e-05
-0.000304651
-0.00025057
0.00011732
-0.000378129
-0.000284472
0.000108142
-0.000444241
-0.000262291
0.000123193
-0.00046872
-0.000189815
0.000146941
-0.000451359
-7.42565e-05
0.000171986
-0.000399345
7.45788e-05
0.000196775
-0.000322096
0.000242894
0.000223211
-0.000228912
0.000412647
0.000254923
-0.000128434
0.000561336
0.000295737
-3.00316e-05
0.000659745
0.000348523
5.43968e-05
0.000671732
0.000407415
0.000109163
0.000576909
0.000438797
0.000115939
0.000397182
0.000404092
6.94582e-05
0.000184879
0.000314537
-1.98501e-05
-1.03873e-05
0.000218266
-0.000133294
0.000153302
-0.00024826
-9.23723e-05
0.000187199
-0.00030465
-0.000128302
0.000165789
-0.000422141
-0.000107037
0.000164528
-0.000492518
-3.61691e-05
0.000170951
-0.000512983
7.6152e-05
0.000178056
-0.000487498
0.000220654
0.000185145
-0.000423655
0.00038536
0.000195866
-0.000329686
0.000554939
0.000215739
-0.000213655
0.000709951
0.000250465
-8.44091e-05
0.000823489
0.000307702
4.57859e-05
0.00085568
0.000391276
0.000157066
0.000774906
0.000469292
0.000216229
0.000594732
0.000481705
0.000201397
0.000370681
0.000417213
0.000118818
0.000160932
0.000322277
-8.65805e-06
0.00024324
-0.000157014
4.0617e-05
0.000218152
-0.000193754
7.01311e-06
0.000182417
-0.000345847
3.07004e-05
0.000165723
-0.000453663
0.000102011
0.000156404
-0.000509901
0.000211406
0.000147138
-0.000513839
0.000349599
0.000137671
-0.000470104
0.000506011
0.00013314
-0.000385182
0.000667711
0.00014085
-0.000265792
0.000818224
0.00016861
-0.000119318
0.000933313
0.000228814
4.30985e-05
0.000974263
0.000333829
0.000199608
0.000905437
0.00045547
0.000305757
0.000732544
0.000517013
0.00032397
0.00050882
0.00048244
0.000255007
0.000296356
0.000390842
0.000125923
0.000297526
-3.863e-05
0.000115487
0.000199871
-6.35339e-05
8.94045e-05
0.000150111
-0.000223418
0.000118897
0.000123014
-0.000351157
0.00019292
0.000104341
-0.00043439
0.000300504
8.50842e-05
-0.000466496
0.000431725
6.43081e-05
-0.000447303
0.00057664
4.78569e-05
-0.000379984
0.000723927
4.47308e-05
-0.000268688
0.000858754
6.59478e-05
-0.000118573
0.000958256
0.000129399
6.04313e-05
0.00098903
0.00025248
0.000242696
0.000921767
0.00040701
0.000377669
0.000760699
0.000506888
0.00041921
0.000551661
0.000497632
0.000365396
0.000352478
0.000407893
0.000246629
0.000298751
8.9492e-05
0.000108287
0.000126621
6.34507e-05
9.33511e-05
7.00224e-05
-7.88737e-05
0.000129668
4.09398e-05
-0.000205226
0.000207394
2.20529e-05
-0.000301197
0.000314707
2.109e-06
-0.000355171
0.000440169
-2.16997e-05
-0.000360893
0.00057281
-4.39498e-05
-0.000316239
0.000700892
-5.39865e-05
-0.000221317
0.000809064
-3.62429e-05
-7.882e-05
0.000875453
3.28178e-05
0.000100412
0.000875932
0.000169524
0.000285817
0.00079726
0.000339742
0.00042446
0.000650162
0.000455209
0.000472558
0.000470437
0.000456026
0.000430885
0.000302006
0.000363398
0.000331162
0.000238733
0.000200831
2.06902e-05
5.24734e-06
0.000166704
1.65478e-05
-4.42758e-05
5.61093e-05
5.73672e-05
-6.59191e-05
-5.15396e-05
0.000137294
-7.67946e-05
-0.000144
0.000244847
-8.90046e-05
-0.000208635
0.000366242
-0.000107287
-0.000233973
0.000487114
-0.000127516
-0.00021183
0.000592258
-0.000137659
-0.000137318
0.000664219
-0.000117357
-1.1667e-05
0.000684603
-4.06467e-05
0.000151498
0.000644007
0.000101057
0.000317091
0.000549895
0.000264435
0.000436145
0.000421799
0.000367055
0.000476096
0.000283581
0.00035824
0.000443205
0.000158622
0.000259214
0.000366418
0.000126607
0.000270569
-0.000121156
-0.000141929
0.000230519
-0.000118914
-0.000169408
0.000155165
-7.73066e-05
-0.000176656
7.70537e-05
2.20531e-06
-0.000174585
1.34928e-06
0.000108834
-0.000174021
-6.02058e-05
0.000226526
-0.000180562
-9.52178e-05
0.000335577
-0.000191316
-9.05825e-05
0.000415412
-0.000193605
-3.76857e-05
0.000447202
-0.000164931
6.2732e-05
0.000421022
-8.25998e-05
0.000193887
0.00034575
4.95588e-05
0.000321249
0.000246021
0.00018244
0.000406404
0.000144308
0.000248565
0.000430779
5.06324e-05
0.000216928
0.000404453
-3.01603e-05
0.000112837
0.000350272
-1.27808e-05
0.000286771
-0.000283995
-0.00028409
0.000246258
-0.000279647
-0.000281819
0.000205752
-0.000239476
-0.000271712
0.000162274
-0.000162437
-0.000255457
0.000113668
-5.77384e-05
-0.000240499
6.62578e-05
5.58522e-05
-0.00023199
3.23335e-05
0.000153547
-0.000227994
2.59411e-05
0.000210167
-0.000216585
5.70156e-05
0.00020868
-0.000177831
0.000124499
0.000150558
-9.76583e-05
0.00021179
5.96204e-05
8.75638e-06
0.000290907
-3.22843e-05
9.46949e-05
0.000337275
-0.000107037
0.000113982
0.00034401
-0.000165748
5.74897e-05
0.000321955
-0.000216452
-4.50049e-05
0.000287925
-0.000149806
0.000251699
-0.000439174
-0.00039545
0.000216604
-0.000434598
-0.000364867
0.000210325
-0.000395419
-0.000337717
0.000202906
-0.000319853
-0.000307953
0.000185856
-0.000216598
-0.000279184
0.000160562
-0.000105978
-0.000255117
0.00013575
-1.62061e-05
-0.000234409
0.000123573
2.62496e-05
-0.00020806
0.00013284
7.79226e-06
-0.0001622
0.000163095
-6.12533e-05
-9.32981e-05
0.000201532
-0.000151142
-2.26842e-05
0.000230574
-0.000231586
1.21395e-05
0.000238762
-0.000290276
-1.28265e-05
0.000227485
-0.000333738
-8.81909e-05
0.000207349
-0.000373209
-0.00018336
0.000190205
-0.000261234
0.000178085
-0.000545999
0.000158078
-0.000544054
0.00018294
-0.000506807
0.000208078
-0.000433405
0.000221632
-0.000331971
0.000220654
-0.000222955
0.000209098
-0.00013542
0.000194706
-9.61409e-05
0.000184026
-0.00011556
0.000177839
-0.000180804
0.000170075
-0.000263812
0.000153156
-0.000339202
0.000126262
-0.000397154
9.74802e-05
-0.000441704
7.82406e-05
-0.000482228
7.6324e-05
8.75401e-05
-0.000763732
-0.000254736
9.86561e-05
-0.000763399
-0.000152561
0.00010196
-0.000721678
-6.06106e-05
0.000115687
-0.000642138
1.2197e-05
0.000117819
-0.000535744
5.73112e-05
0.000107547
-0.000422751
6.89728e-05
9.28783e-05
-0.00032762
5.02574e-05
8.23385e-05
-0.000269553
1.29717e-05
7.98864e-05
-0.000256128
-2.73738e-05
8.35543e-05
-0.000281085
-6.44562e-05
8.67377e-05
-0.000331075
-0.000103476
8.24199e-05
-0.000394282
-0.000153757
6.85353e-05
-0.000464495
-0.000213197
4.95793e-05
-0.000538836
-0.000263549
3.44124e-05
-0.000615458
-0.000283567
3.33272e-05
-0.00025531
5.27374e-05
-0.000768142
-0.000203507
-6.86709e-05
-0.000786729
-0.000110361
-4.09761e-05
-0.000760589
-1.7394e-05
-1.35659e-06
-0.000692773
6.02466e-05
3.03311e-05
-0.000591186
0.000112249
4.85153e-05
-0.000473599
0.000133709
5.48128e-05
-0.00036315
0.000126042
5.32746e-05
-0.000281089
9.73448e-05
4.6712e-05
-0.000239644
5.80199e-05
3.51498e-05
-0.000240467
1.27732e-05
1.61361e-05
-0.000276948
-4.21318e-05
-1.11233e-05
-0.000339395
-0.000110717
-4.42254e-05
-0.000418599
-0.00018466
-7.69619e-05
-0.000506477
-0.000241842
-0.000101799
-0.000597254
-0.000259916
-0.00010949
-0.000224351
-8.80691e-05
-0.000729001
-0.00012901
-0.000211757
-0.000759022
-4.68796e-05
-0.000176761
-0.00074315
4.32697e-05
-0.000129225
-0.000682799
0.000120967
-8.35248e-05
-0.000584195
0.000175333
-4.71374e-05
-0.000462079
0.000201709
-2.21843e-05
-0.000337369
0.000200759
-8.68154e-06
-0.000231812
0.000178322
-6.6028e-06
-0.000162797
0.000141909
-1.6653e-05
-0.000140336
9.49931e-05
-3.94683e-05
-0.00016581
3.45681e-05
-7.33725e-05
-0.000232182
-4.16917e-05
-0.000113651
-0.000326399
-0.000123226
-0.000154248
-0.000433276
-0.000185649
-0.000189041
-0.000540417
-0.000204931
-0.000209259
-0.000168821
-0.00019742
-0.00064867
-4.42626e-05