/*--------------------------------*- C++ -*----------------------------------*\
| =========                 |                                                 |
| \\      /  F ield         | OpenFOAM: The Open Source CFD Toolbox           |
|  \\    /   O peration     | Version:  3.0.0                                 |
|   \\  /    A nd           | Web:      www.OpenFOAM.org                      |
|    \\/     M anipulation  |                                                 |
\*---------------------------------------------------------------------------*/
FoamFile
{
    version     2.0;
    format      ascii;
    class       volVectorField;
    location    "7.25";
    object      U;
}
// * * * * * * * * * * * * * * * * * * * * * * * * * * * * * * * * * * * * * //

dimensions      [0 1 -1 0 0 0 0];

internalField   nonuniform List<vector> 
4096
(
(-0.113093 -0.193006 -0.023316)
(-0.0969309 -0.202312 0.0309725)
(-0.0806761 -0.207291 0.083763)
(-0.0546431 -0.202621 0.129777)
(-0.0232798 -0.186424 0.161243)
(0.00682742 -0.158075 0.170247)
(0.02759 -0.118453 0.15288)
(0.0325676 -0.0708287 0.113042)
(0.0205705 -0.0218011 0.0616444)
(-0.00349103 0.0191221 0.0107552)
(-0.0314992 0.0421329 -0.0320164)
(-0.0567874 0.0406624 -0.0645458)
(-0.0766712 0.0143177 -0.0863519)
(-0.0917346 -0.0300284 -0.0954579)
(-0.103756 -0.0805813 -0.0892615)
(-0.10294 -0.122042 -0.0684086)
(-0.10695 -0.18037 -0.0287976)
(-0.0961169 -0.188283 0.02288)
(-0.0833739 -0.190216 0.0737366)
(-0.0604614 -0.182934 0.119903)
(-0.0310775 -0.165767 0.154703)
(-0.000371886 -0.138823 0.170603)
(0.0247264 -0.102651 0.162389)
(0.0376774 -0.0589553 0.13045)
(0.0351809 -0.0127438 0.0816682)
(0.0185073 0.0262707 0.0268499)
(-0.00701602 0.0463198 -0.0238404)
(-0.0344454 0.0399372 -0.063998)
(-0.058705 0.00865963 -0.0903694)
(-0.0783718 -0.0375313 -0.100716)
(-0.0940917 -0.0854331 -0.0938113)
(-0.0958777 -0.121414 -0.0723075)
(-0.108176 -0.174985 -0.0379147)
(-0.100252 -0.184685 0.0124211)
(-0.0886772 -0.186807 0.0633048)
(-0.0659135 -0.178523 0.110917)
(-0.0355462 -0.159585 0.148805)
(-0.0022578 -0.13073 0.169828)
(0.027651 -0.0931601 0.168634)
(0.0478242 -0.0487983 0.144142)
(0.0541156 -0.00225766 0.100512)
(0.0455249 0.0371367 0.0461648)
(0.0244357 0.0570449 -0.00859233)
(-0.00378867 0.0492129 -0.054842)
(-0.0332843 0.0155498 -0.08681)
(-0.060583 -0.0327519 -0.101269)
(-0.0840976 -0.0816891 -0.0972946)
(-0.092848 -0.118261 -0.0776274)
(-0.106421 -0.152352 -0.0478484)
(-0.101429 -0.165016 -0.00163514)
(-0.0907038 -0.16878 0.0467624)
(-0.0680021 -0.161544 0.0936109)
(-0.0369471 -0.143428 0.132813)
(-0.00191366 -0.115403 0.157841)
(0.0314883 -0.0788271 0.163611)
(0.0574226 -0.0354353 0.148172)
(0.0714823 0.0109727 0.11336)
(0.0711641 0.052022 0.0646426)
(0.0561034 0.0750185 0.0106086)
(0.0290605 0.0697113 -0.0389435)
(-0.00446618 0.0367711 -0.0759211)
(-0.0390968 -0.0120463 -0.0954857)
(-0.0705724 -0.0617016 -0.0963246)
(-0.086912 -0.0994825 -0.0807509)
(-0.0988615 -0.118543 -0.0575834)
(-0.09713 -0.135403 -0.0190905)
(-0.0874168 -0.142057 0.0233068)
(-0.0652972 -0.137416 0.0662591)
(-0.0344698 -0.12186 0.104311)
(0.000930021 -0.0963741 0.131767)
(0.0359837 -0.0622137 0.144034)
(0.0655839 -0.0208109 0.138655)
(0.0854889 0.0249077 0.115571)
(0.0924354 0.0679704 0.077222)
(0.0840487 0.0961029 0.0292318)
(0.0602469 0.0968009 -0.0195268)
(0.0250428 0.0678534 -0.0594575)
(-0.0149535 0.0204104 -0.08383)
(-0.0529234 -0.0296609 -0.0904188)
(-0.0762439 -0.0695794 -0.0808373)
(-0.0852601 -0.0786371 -0.0664579)
(-0.0867122 -0.100175 -0.0390131)
(-0.0780179 -0.110554 -0.00608953)
(-0.0568088 -0.109612 0.0296797)
(-0.0268195 -0.0978603 0.0638803)
(0.00796472 -0.0761167 0.0918289)
(0.0431825 -0.0453932 0.109538)
(0.074414 -0.0068158 0.114259)
(0.0977781 0.0374295 0.104452)
(0.109832 0.0819125 0.0798829)
(0.107226 0.115631 0.0427557)
(0.0877157 0.124551 -0.000553502)
(0.0531675 0.102649 -0.0403374)
(0.0103006 0.0588412 -0.0681554)
(-0.032048 0.0091977 -0.0805397)
(-0.0609824 -0.0331219 -0.0782357)
(-0.0667638 -0.0378919 -0.0736284)
(-0.0708178 -0.0638815 -0.0592656)
(-0.0628534 -0.0783874 -0.0382845)
(-0.0424632 -0.0817526 -0.0123011)
(-0.0133955 -0.0744673 0.0156162)
(0.02046 -0.0571086 0.0419612)
(0.0550814 -0.0303756 0.0634194)
(0.0865318 0.00486259 0.0771392)
(0.111237 0.0469482 0.0805298)
(0.125806 0.091841 0.0712042)
(0.126698 0.130336 0.0481022)
(0.110835 0.148073 0.0142552)
(0.0782534 0.135346 -0.0219581)
(0.0347699 0.0973923 -0.0510908)
(-0.00965183 0.0494724 -0.0684295)
(-0.0422287 0.00518492 -0.0737543)
(-0.0460718 -0.00224036 -0.0780512)
(-0.0516024 -0.0321565 -0.0764121)
(-0.0437825 -0.0507854 -0.06767)
(-0.023729 -0.0585069 -0.0524155)
(0.00478475 -0.0556737 -0.0322774)
(0.0378978 -0.0426012 -0.00952037)
(0.0717661 -0.0196922 0.0133207)
(0.102687 0.0123525 0.0335857)
(0.127211 0.0521829 0.0481971)
(0.141962 0.0968079 0.0532811)
(0.143532 0.138825 0.0449386)
(0.12918 0.164528 0.0226816)
(0.098359 0.161504 -0.00732996)
(0.0557863 0.130834 -0.0355236)
(0.0114272 0.085757 -0.0561928)
(-0.0224581 0.040124 -0.0682907)
(-0.027637 0.0226703 -0.0790006)
(-0.0330488 -0.0108219 -0.0865245)
(-0.0246717 -0.0332701 -0.0872793)
(-0.00444215 -0.0448337 -0.0811798)
(0.0239062 -0.0457463 -0.0686903)
(0.0565346 -0.0361378 -0.0509353)
(0.089649 -0.0161739 -0.029537)
(0.119603 0.0135571 -0.00650826)
(0.142923 0.0518369 0.015345)
(0.156072 0.0963475 0.0314876)
(0.155808 0.141032 0.0357916)
(0.140437 0.173113 0.0245588)
(0.110244 0.17873 0.0015807)
(0.0693317 0.155307 -0.0241357)
(0.0267809 0.113299 -0.0461736)
(-0.00600079 0.06649 -0.0628231)
(-0.0167016 0.0324635 -0.0764152)
(-0.0202238 -0.00454189 -0.0868531)
(-0.0108728 -0.0301863 -0.0916381)
(0.00951835 -0.0445357 -0.0906793)
(0.0375342 -0.0478655 -0.0838606)
(0.069465 -0.0402915 -0.0714419)
(0.101512 -0.0218853 -0.0540792)
(0.129945 0.00684614 -0.0326926)
(0.151119 0.0448148 -0.00905552)
(0.161266 0.0901141 0.0125304)
(0.157434 0.137293 0.0245361)
(0.139333 0.174144 0.0209553)
(0.108841 0.186336 0.00366386)
(0.0701268 0.168602 -0.0191226)
(0.0310654 0.128643 -0.0405612)
(0.00169788 0.0798651 -0.0582693)
(-0.0164203 0.0248346 -0.0704198)
(-0.0165185 -0.0149917 -0.0770945)
(-0.00637042 -0.0425143 -0.0798098)
(0.0133906 -0.0580656 -0.0790464)
(0.0401249 -0.062116 -0.0747339)
(0.0704367 -0.0549076 -0.0667805)
(0.100497 -0.036551 -0.0550312)
(0.126325 -0.00748712 -0.0391274)
(0.143957 0.0314265 -0.0193725)
(0.149548 0.07852 0.0008179)
(0.140975 0.128212 0.0137726)
(0.119663 0.168289 0.0126826)
(0.0891529 0.184402 -0.00153211)
(0.0540011 0.169603 -0.0214913)
(0.0207714 0.129565 -0.0402971)
(-0.00269386 0.077482 -0.0550237)
(-0.0253286 0.000662774 -0.0610634)
(-0.0212546 -0.039411 -0.0593923)
(-0.0108994 -0.0665341 -0.0557186)
(0.0072343 -0.0813917 -0.0512595)
(0.0315206 -0.0845891 -0.0464061)
(0.0589625 -0.0763762 -0.0413376)
(0.0856295 -0.0568783 -0.0355576)
(0.107096 -0.0264289 -0.0276682)
(0.119052 0.0143515 -0.016508)
(0.118142 0.0636702 -0.00405737)
(0.103935 0.115205 0.00334376)
(0.0798652 0.156313 -7.9997e-05)
(0.050963 0.172711 -0.0134482)
(0.0220909 0.157073 -0.0302936)
(-0.00221333 0.114576 -0.0443456)
(-0.0171757 0.0590399 -0.0527628)
(-0.0387563 -0.0352634 -0.0492686)
(-0.0309322 -0.0716371 -0.037527)
(-0.0208446 -0.0957231 -0.0256768)
(-0.00462406 -0.108167 -0.0153844)
(0.0168065 -0.109325 -0.00792529)
(0.0406569 -0.0992459 -0.00419123)
(0.0627271 -0.0778475 -0.00399858)
(0.0781013 -0.04531 -0.00546277)
(0.0823585 -0.002253 -0.00611761)
(0.0733877 0.0487833 -0.00585653)
(0.0532437 0.10014 -0.00822891)
(0.0276436 0.138537 -0.0167099)
(0.00281293 0.150416 -0.0300764)
(-0.0170568 0.130003 -0.0430653)
(-0.0304907 0.083972 -0.0507496)
(-0.035748 0.0273163 -0.0512162)
(-0.0529052 -0.0766514 -0.0372938)
(-0.0424266 -0.106058 -0.0157416)
(-0.0325227 -0.125148 0.00443425)
(-0.0173775 -0.133853 0.0212747)
(0.00208146 -0.132038 0.0324956)
(0.0228586 -0.119346 0.0361414)
(0.0403511 -0.0953825 0.0315376)
(0.04923 -0.0602749 0.0204886)
(0.045455 -0.0151634 0.00660699)
(0.0286947 0.0359705 -0.00730477)
(0.00365727 0.0837887 -0.0210846)
(-0.0218655 0.114832 -0.035441)
(-0.0412379 0.117682 -0.0488484)
(-0.0520604 0.0901155 -0.05752)
(-0.0561455 0.041406 -0.0582919)
(-0.0533042 -0.0127836 -0.0507546)
(-0.06706 -0.119119 -0.0275986)
(-0.0546552 -0.140638 0.00278381)
(-0.044025 -0.154233 0.0308724)
(-0.028179 -0.158546 0.0543516)
(-0.00864252 -0.152771 0.0700371)
(0.0110594 -0.13617 0.074613)
(0.025724 -0.108363 0.0663381)
(0.0298131 -0.0699645 0.0467137)
(0.0200513 -0.0233763 0.0203363)
(-0.00214691 0.0255742 -0.00743693)
(-0.0301395 0.0663119 -0.0328073)
(-0.0550286 0.0863367 -0.0535114)
(-0.0705648 0.0778358 -0.067385)
(-0.076188 0.0430881 -0.072071)
(-0.0758101 -0.00650035 -0.0664207)
(-0.0686175 -0.0557605 -0.0519456)
(-0.0788164 -0.137498 -0.0214469)
(-0.0639716 -0.148976 0.0151708)
(-0.0516007 -0.156509 0.048753)
(-0.0337855 -0.157511 0.0770627)
(-0.0125755 -0.150496 0.0966102)
(0.00806237 -0.134052 0.103432)
(0.0224522 -0.107097 0.0947876)
(0.0248566 -0.0697534 0.0711353)
(0.0124861 -0.0248257 0.0367191)
(-0.012173 0.020128 -0.00201635)
(-0.0415991 0.0524657 -0.0382672)
(-0.0669111 0.0600131 -0.0663868)
(-0.082651 0.0396932 -0.0824481)
(-0.088917 -5.91072e-05 -0.0847179)
(-0.0894758 -0.0456995 -0.0740027)
(-0.0815484 -0.0845539 -0.054026)
(-0.175958 -0.177824 -0.0082867)
(-0.162394 -0.173038 0.0339087)
(-0.153531 -0.170275 0.0763275)
(-0.130004 -0.162286 0.114202)
(-0.0965312 -0.147658 0.14083)
(-0.0592129 -0.125907 0.149864)
(-0.0265459 -0.097245 0.138309)
(-0.0075746 -0.0632018 0.108952)
(-0.00717876 -0.0277306 0.0699517)
(-0.0228016 0.00206647 0.0305136)
(-0.0466302 0.0177101 -0.0037219)
(-0.0714039 0.0134067 -0.0309982)
(-0.0938969 -0.010473 -0.0505036)
(-0.114603 -0.0468532 -0.0602628)
(-0.13575 -0.0854242 -0.0581022)
(-0.140182 -0.112523 -0.0451021)
(-0.166693 -0.158437 -0.0294366)
(-0.158327 -0.15492 0.0117447)
(-0.151898 -0.150401 0.0540295)
(-0.130961 -0.140872 0.094197)
(-0.0999697 -0.125739 0.126089)
(-0.0639029 -0.104799 0.143025)
(-0.0297846 -0.0781025 0.140309)
(-0.00573104 -0.0465758 0.117648)
(0.00236329 -0.0137187 0.0801826)
(-0.00619135 0.0130149 0.0365761)
(-0.0267615 0.0243356 -0.00492161)
(-0.0525308 0.0148103 -0.0389751)
(-0.0785158 -0.0130587 -0.0628212)
(-0.103191 -0.049959 -0.0745619)
(-0.127265 -0.0850052 -0.0732883)
(-0.133452 -0.106233 -0.060739)
(-0.160498 -0.145521 -0.0497189)
(-0.155135 -0.144336 -0.00985999)
(-0.149419 -0.139874 0.0322904)
(-0.128878 -0.129512 0.0741618)
(-0.0976964 -0.113067 0.109857)
(-0.0603767 -0.0906475 0.13271)
(-0.0231336 -0.0626791 0.137382)
(0.00661089 -0.0303863 0.121867)
(0.0225394 0.00262558 0.0888566)
(0.0216214 0.0288678 0.0453041)
(0.00525867 0.0387239 8.54723e-05)
(-0.0213608 0.0267092 -0.0391399)
(-0.0523088 -0.00386569 -0.0676733)
(-0.0838625 -0.0425317 -0.0831527)
(-0.11432 -0.0778813 -0.0849481)
(-0.126459 -0.0989623 -0.0742585)
(-0.147309 -0.118193 -0.067563)
(-0.145324 -0.120452 -0.0323513)
(-0.140005 -0.117251 0.00663336)
(-0.119732 -0.107569 0.0473478)
(-0.0883455 -0.0916524 0.0844095)
(-0.0499456 -0.0697835 0.111598)
(-0.0100219 -0.0424981 0.123532)
(0.0247358 -0.0109243 0.117149)
(0.0479524 0.0218705 0.0928018)
(0.054913 0.049026 0.0547241)
(0.0438715 0.0605136 0.0105268)
(0.0175032 0.0493875 -0.0310701)
(-0.0180361 0.0184273 -0.0634519)
(-0.0566858 -0.0211458 -0.0832655)
(-0.0939421 -0.0570143 -0.0896794)
(-0.11319 -0.0791194 -0.0830525)
(-0.125598 -0.0829105 -0.0813569)
(-0.127553 -0.0892694 -0.054689)
(-0.122748 -0.0881022 -0.0225669)
(-0.103152 -0.0800982 0.0134981)
(-0.0722444 -0.0658816 0.0489372)
(-0.0337037 -0.0458655 0.078366)
(0.00768637 -0.0205559 0.0968291)
(0.0460623 0.0092017 0.100749)
(0.0753492 0.0412153 0.0885647)
(0.0898756 0.0699555 0.0613614)
(0.0852106 0.0855333 0.0237482)
(0.060875 0.0786415 -0.0162812)
(0.0222467 0.0498633 -0.0506374)
(-0.0225106 0.0104093 -0.0745641)
(-0.0659114 -0.0263277 -0.086579)
(-0.0924996 -0.0507049 -0.0861988)
(-0.0966377 -0.0448854 -0.0895433)
(-0.102564 -0.0553146 -0.0747239)
(-0.0983657 -0.0568124 -0.0527695)
(-0.079769 -0.0513151 -0.0246453)
(-0.0499101 -0.0397586 0.00614757)
(-0.0121142 -0.0226169 0.0352948)
(0.0294975 -0.000269467 0.058594)
(0.0698854 0.0267702 0.0724456)
(0.103513 0.0572219 0.0740443)
(0.124452 0.0873354 0.0616777)
(0.126463 0.108394 0.0359978)
(0.105849 0.10879 0.00214261)
(0.0660792 0.0851283 -0.0314715)
(0.0167398 0.0473791 -0.0584525)
(-0.0317549 0.00983075 -0.0762143)
(-0.0651968 -0.0175277 -0.083615)
(-0.0631943 -0.00872184 -0.0909419)
(-0.0724706 -0.022837 -0.0896608)
(-0.068788 -0.0275811 -0.0798942)
(-0.0511485 -0.0253589 -0.0620224)
(-0.02251 -0.017277 -0.0383319)
(0.0140537 -0.00377397 -0.0119792)
(0.0549697 0.014947 0.0137246)
(0.0959146 0.0386812 0.0355362)
(0.13198 0.0668886 0.0501401)
(0.157461 0.0976243 0.0539307)
(0.165273 0.124356 0.0437827)
(0.149108 0.134227 0.0204192)
(0.109944 0.118736 -0.00929549)
(0.0577975 0.0848316 -0.0375059)
(0.00559075 0.0471538 -0.0601766)
(-0.0333291 0.0167281 -0.0757493)
(-0.0296429 0.0209231 -0.0850265)
(-0.0409424 0.00338791 -0.0963379)
(-0.0373767 -0.00510379 -0.0985985)
(-0.0202553 -0.00672959 -0.0915597)
(0.0074399 -0.00262463 -0.0762743)
(0.0427248 0.00687927 -0.054745)
(0.0823639 0.0218052 -0.0293778)
(0.122635 0.0422367 -0.00283429)
(0.159262 0.0680894 0.0217339)
(0.18695 0.0988612 0.0399482)
(0.198423 0.130635 0.0458536)
(0.185958 0.150749 0.0353411)
(0.148424 0.145784 0.0121931)
(0.0953665 0.11786 -0.0150606)
(0.0412495 0.0810433 -0.0408963)
(-0.000892165 0.0477442 -0.0633568)
(-0.00218054 0.0398455 -0.0726368)
(-0.0136439 0.0187141 -0.0923915)
(-0.00951688 0.00625975 -0.103761)
(0.00775723 0.000737507 -0.105918)
(0.0349992 0.000981844 -0.0987843)
(0.0691607 0.00672638 -0.0832481)
(0.107181 0.0182522 -0.06081)
(0.145764 0.0359093 -0.0333425)
(0.181154 0.0599104 -0.00331153)
(0.208435 0.090796 0.0250492)
(0.220467 0.126912 0.0440566)
(0.209484 0.156621 0.0455203)
(0.173592 0.162804 0.0297809)
(0.121467 0.142125 0.00514489)
(0.0677623 0.106818 -0.0215297)
(0.0254032 0.0706697 -0.0478985)
(0.0122294 0.0446603 -0.0561324)
(0.00258868 0.0195609 -0.0779079)
(0.00791004 0.00360592 -0.0931693)
(0.0257685 -0.00497884 -0.100875)
(0.0528979 -0.00756786 -0.1001)
(0.086128 -0.00453295 -0.0906839)
(0.122343 0.00454127 -0.0731277)
(0.158399 0.0202377 -0.048292)
(0.190813 0.0431912 -0.0176086)
(0.2148 0.0748809 0.0152426)
(0.22363 0.114998 0.0416026)
(0.210989 0.152572 0.0508192)
(0.176082 0.168371 0.0408591)
(0.126817 0.154466 0.0194204)
(0.0765159 0.12036 -0.00576332)
(0.037248 0.0807457 -0.0317619)
(0.00929861 0.0332055 -0.038398)
(0.0031709 0.00478651 -0.0559488)
(0.00977106 -0.0131875 -0.0694479)
(0.0279262 -0.0231273 -0.078154)
(0.0547907 -0.0267134 -0.0808429)
(0.087084 -0.0246677 -0.0765733)
(0.121365 -0.016654 -0.0648077)
(0.15416 -0.00186778 -0.0452185)
(0.181724 0.0210207 -0.018131)
(0.199178 0.054458 0.0132303)
(0.200923 0.0982824 0.0398732)
(0.183723 0.141091 0.0508315)
(0.149431 0.162892 0.0435988)
(0.105455 0.153081 0.0252719)
(0.062334 0.11868 0.00365122)
(0.029541 0.0746786 -0.0178077)
(-0.00937401 0.00601017 -0.0217464)
(-0.0110709 -0.0228671 -0.0311411)
(-0.00383293 -0.0405484 -0.0387481)
(0.0137454 -0.0497577 -0.044463)
(0.039715 -0.052453 -0.0474037)
(0.0707093 -0.0496058 -0.0464378)
(0.102718 -0.0410843 -0.0402739)
(0.131324 -0.025863 -0.0274947)
(0.15192 -0.00175672 -0.00750331)
(0.159755 0.0342165 0.0168283)
(0.151686 0.0806353 0.0372142)
(0.12888 0.12474 0.0446046)
(0.0963747 0.147002 0.0376136)
(0.0608111 0.136794 0.0225089)
(0.0285702 0.100283 0.00608704)
(0.00521502 0.0525183 -0.00829013)
(-0.0374883 -0.0322171 -0.00811673)
(-0.0350275 -0.0572916 -0.00787635)
(-0.0279802 -0.0722315 -0.00745002)
(-0.0116097 -0.0790654 -0.00749969)
(0.0128522 -0.0795355 -0.00795178)
(0.0420674 -0.0745681 -0.00818204)
(0.0712253 -0.0641084 -0.00677304)
(0.0946101 -0.0469239 -0.00170208)
(0.106617 -0.020304 0.00832463)
(0.103431 0.018102 0.0213149)
(0.0857124 0.0643538 0.0311954)
(0.0592137 0.10436 0.0322273)
(0.0311375 0.120753 0.0244299)
(0.00624338 0.105782 0.0127803)
(-0.0139115 0.0666839 0.00236799)
(-0.0268476 0.0184476 -0.00441671)
(-0.0684528 -0.0745881 0.000746211)
(-0.0627567 -0.0924388 0.0106903)
(-0.0562908 -0.102902 0.0198926)
(-0.0409197 -0.1064 0.0270118)
(-0.0177993 -0.103842 0.0309607)
(0.00958669 -0.0958298 0.0313476)
(0.0356874 -0.0822003 0.0289896)
(0.0536176 -0.0616964 0.0259373)
(0.0573503 -0.0320375 0.0241783)
(0.0449418 0.00713681 0.0235474)
(0.0209229 0.0490551 0.0213693)
(-0.00582255 0.0796229 0.015343)
(-0.0278804 0.085519 0.00637861)
(-0.0431975 0.0637563 -0.00202675)
(-0.0541029 0.0233971 -0.00665506)
(-0.0585217 -0.0211544 -0.00653378)
(-0.0981415 -0.115743 0.004091)
(-0.0898251 -0.12523 0.0233229)
(-0.0834739 -0.130712 0.0414419)
(-0.0679964 -0.1304 0.0564095)
(-0.0450867 -0.124207 0.065908)
(-0.0185812 -0.112213 0.0681534)
(0.00539015 -0.094197 0.0629164)
(0.0193304 -0.0694114 0.0519947)
(0.0175613 -0.0371474 0.038263)
(0.000113733 0.000199112 0.0239325)
(-0.02607 0.0340087 0.00982064)
(-0.0512235 0.0519845 -0.00344522)
(-0.0689816 0.0459761 -0.014237)
(-0.0793126 0.0179038 -0.0202385)
(-0.0864995 -0.0219995 -0.0198762)
(-0.0860927 -0.0603989 -0.0138778)
(-0.11926 -0.132659 0.00324507)
(-0.107849 -0.13376 0.0300309)
(-0.100809 -0.135112 0.0555155)
(-0.084532 -0.132622 0.0773501)
(-0.0612991 -0.125262 0.0923051)
(-0.0350942 -0.112329 0.0973469)
(-0.0121318 -0.0931051 0.0910442)
(8.94396e-05 -0.0670715 0.074577)
(-0.00363099 -0.0349959 0.0513915)
(-0.0222681 -0.00175744 0.0255222)
(-0.0483721 0.022479 0.000490751)
(-0.0728442 0.027469 -0.0204934)
(-0.0903344 0.0107443 -0.0344292)
(-0.101132 -0.0205886 -0.0392588)
(-0.109169 -0.0558223 -0.0347193)
(-0.106805 -0.084352 -0.0235516)
(-0.210703 -0.132801 0.00716809)
(-0.197004 -0.113736 0.0318934)
(-0.192814 -0.0998884 0.0570969)
(-0.172564 -0.0862261 0.0782551)
(-0.141433 -0.0729996 0.0919713)
(-0.10487 -0.0606709 0.0961692)
(-0.0702737 -0.0490142 0.090631)
(-0.0460276 -0.0370195 0.0769852)
(-0.0378175 -0.0241088 0.0581068)
(-0.0453949 -0.012582 0.0369085)
(-0.0632091 -0.00800381 0.0155839)
(-0.0849019 -0.0154376 -0.00409057)
(-0.107049 -0.0349687 -0.0199108)
(-0.129591 -0.0603985 -0.029022)
(-0.154747 -0.0834226 -0.0289075)
(-0.159854 -0.0941528 -0.0202495)
(-0.202795 -0.113858 -0.0271645)
(-0.195077 -0.0981441 -8.01729e-05)
(-0.193956 -0.0835765 0.0282576)
(-0.176658 -0.0686101 0.054682)
(-0.148052 -0.0541032 0.0752662)
(-0.112699 -0.0406647 0.0867537)
(-0.0769501 -0.0282944 0.0872868)
(-0.0484982 -0.0164213 0.0768478)
(-0.0335792 -0.00510982 0.0572466)
(-0.03422 0.00288602 0.0317216)
(-0.0476461 0.0022886 0.00423799)
(-0.0687273 -0.0106037 -0.0211784)
(-0.0931444 -0.0337318 -0.0410992)
(-0.119121 -0.0594971 -0.0527624)
(-0.147215 -0.0795667 -0.0544903)
(-0.154506 -0.0853401 -0.0463817)
(-0.191095 -0.0972649 -0.0572125)
(-0.187535 -0.0843927 -0.0300077)
(-0.187662 -0.0699083 -0.000785411)
(-0.171729 -0.0541967 0.0283785)
(-0.144032 -0.0384248 0.0534542)
(-0.108493 -0.0232943 0.070618)
(-0.0705983 -0.00909606 0.0770757)
(-0.0373127 0.00416951 0.0715852)
(-0.0151981 0.0157299 0.0547563)
(-0.00837615 0.0225073 0.0291576)
(-0.0171275 0.0194098 -0.000807612)
(-0.0381154 0.00331663 -0.0298261)
(-0.0664376 -0.0226914 -0.0533815)
(-0.0982388 -0.0501266 -0.0684917)
(-0.131548 -0.0702165 -0.0735639)
(-0.144438 -0.0753436 -0.0675065)
(-0.169695 -0.0708636 -0.0812261)
(-0.170651 -0.0616218 -0.0579576)
(-0.171378 -0.0482908 -0.0313133)
(-0.156374 -0.0330883 -0.00253979)
(-0.129248 -0.0174682 0.024521)
(-0.0933612 -0.0021623 0.0459366)
(-0.0534172 0.0124459 0.0584701)
(-0.0156734 0.0261603 0.0600276)
(0.0132375 0.0380808 0.0499516)
(0.0276085 0.045243 0.0293422)
(0.024113 0.0424788 0.00161141)
(0.00362011 0.026147 -0.0278236)
(-0.0287889 -0.000839603 -0.0536753)
(-0.0669653 -0.0294248 -0.072535)
(-0.106036 -0.0501272 -0.0824979)
(-0.126054 -0.0561984 -0.0812034)
(-0.138698 -0.0401117 -0.0972908)
(-0.144504 -0.0345883 -0.0823818)
(-0.145613 -0.0230218 -0.0620808)
(-0.131508 -0.00915512 -0.0370672)
(-0.10508 0.00527852 -0.0107318)
(-0.0692002 0.0195538 0.0132069)
(-0.0278849 0.0333678 0.0314616)
(0.0133742 0.0466116 0.0414595)
(0.0482229 0.0587476 0.0414545)
(0.0700067 0.0674517 0.0306918)
(0.0727162 0.0676073 0.010328)
(0.0540247 0.0540793 -0.0156445)
(0.0182682 0.0282472 -0.0418271)
(-0.0261126 -0.000848554 -0.0642101)
(-0.070992 -0.022802 -0.0802112)
(-0.0989649 -0.0311401 -0.0864484)
(-0.100227 -0.00922242 -0.103637)
(-0.110681 -0.00705088 -0.100799)
(-0.112107 0.00210237 -0.0901561)
(-0.0988767 0.0137349 -0.0720249)
(-0.0733112 0.0259082 -0.0491597)
(-0.0378753 0.0379556 -0.0248296)
(0.00399575 0.0497941 -0.00210398)
(0.0475492 0.0616557 0.0163188)
(0.0869934 0.0736012 0.0279917)
(0.115514 0.0843987 0.03053)
(0.125188 0.0896461 0.022202)
(0.110034 0.0822627 0.00393619)
(0.0723441 0.0603298 -0.0200292)
(0.0224242 0.0319365 -0.0449413)
(-0.028125 0.00848332 -0.067262)
(-0.064164 -0.00300738 -0.0829217)
(-0.0575475 0.0187227 -0.0992075)
(-0.0717887 0.0179156 -0.110378)
(-0.0734554 0.0238537 -0.111507)
(-0.0609146 0.032167 -0.102582)
(-0.0362062 0.0408883 -0.0855705)
(-0.00156954 0.0494951 -0.0631408)
(0.0400172 0.0582497 -0.0380166)
(0.0844705 0.0678402 -0.0127563)
(0.126688 0.0789789 0.00995379)
(0.160384 0.091759 0.0268151)
(0.176926 0.103458 0.0335205)
(0.166847 0.105531 0.0267674)
(0.129065 0.0910206 0.00800145)
(0.0748708 0.0653362 -0.0176918)
(0.0192508 0.0407442 -0.0454258)
(-0.0238876 0.0257843 -0.0708664)
(-0.0155696 0.0408824 -0.0840154)
(-0.0319514 0.0371226 -0.108256)
(-0.0335146 0.0390601 -0.121284)
(-0.0212133 0.0430751 -0.122509)
(0.00282138 0.0473247 -0.112919)
(0.0363839 0.0515229 -0.0944956)
(0.0767999 0.0563786 -0.0694981)
(0.120574 0.0630668 -0.0402045)
(0.163356 0.0728265 -0.00913516)
(0.199715 0.0870346 0.0202816)
(0.22135 0.1054 0.0421698)
(0.216649 0.119246 0.0489206)
(0.180698 0.11578 0.0378126)
(0.124303 0.0954118 0.013538)
(0.0652133 0.0706128 -0.0175656)
(0.0173527 0.0521637 -0.0510128)
(0.018655 0.0545687 -0.0599737)
(0.00231962 0.0473981 -0.0928748)
(0.0015986 0.0450233 -0.11532)
(0.0143655 0.0444652 -0.125801)
(0.038068 0.0439689 -0.124086)
(0.0703588 0.043471 -0.111236)
(0.10876 0.0441377 -0.0889066)
(0.150285 0.0476261 -0.0589204)
(0.191285 0.0556239 -0.0233236)
(0.227079 0.0706535 0.0148178)
(0.250124 0.094967 0.0488823)
(0.248727 0.12096 0.0678626)
(0.215635 0.130673 0.0649018)
(0.159903 0.117894 0.0437938)
(0.100213 0.0939223 0.0121409)
(0.0513675 0.0720063 -0.0252292)
(0.0367708 0.0570306 -0.0311982)
(0.0226518 0.0459314 -0.0658999)
(0.0236928 0.0399043 -0.0928951)
(0.0376217 0.0357853 -0.109842)
(0.0614562 0.0315643 -0.11517)
(0.0925654 0.027178 -0.108703)
(0.128491 0.0241099 -0.0911537)
(0.166575 0.0244601 -0.0635784)
(0.203637 0.030543 -0.0273164)
(0.235283 0.0461735 0.0149346)
(0.254637 0.0755166 0.0558241)
(0.251998 0.111813 0.0823221)
(0.221013 0.133733 0.0852602)
(0.168958 0.128918 0.0677814)
(0.112873 0.106036 0.0384244)
(0.0674005 0.0803366 0.00257405)
(0.032912 0.0455736 -0.00272327)
(0.0226369 0.0312337 -0.032792)
(0.0258708 0.0233606 -0.058748)
(0.0411447 0.0179014 -0.0780756)
(0.0654682 0.0122191 -0.0883064)
(0.0958277 0.00586826 -0.0879134)
(0.129435 0.000361714 -0.0762854)
(0.163492 -0.00177337 -0.053348)
(0.194736 0.00279891 -0.0196574)
(0.218581 0.0194693 0.0220024)
(0.228995 0.0530828 0.0633037)
(0.220037 0.0960679 0.0907683)
(0.189489 0.125592 0.0956799)
(0.143899 0.125961 0.0813548)
(0.0962161 0.1031 0.0564844)
(0.0580741 0.0729523 0.0268299)
(0.00786137 0.0196044 0.0210627)
(0.00222254 0.00493935 -0.000736089)
(0.00704856 -0.00222002 -0.0213718)
(0.0230631 -0.00651739 -0.0389017)
(0.0477769 -0.0111078 -0.0509262)
(0.0777825 -0.0170196 -0.0549715)
(0.109524 -0.0230149 -0.0490837)
(0.139322 -0.0261615 -0.0319089)
(0.163096 -0.0217635 -0.00342167)
(0.176037 -0.00312889 0.0330385)
(0.174077 0.0333962 0.0685146)
(0.156513 0.0778302 0.0910766)
(0.126437 0.10767 0.0946497)
(0.0899611 0.107887 0.0830358)
(0.0543685 0.0834404 0.0638913)
(0.026346 0.0495863 0.0425203)
(-0.0313095 -0.0167696 0.036853)
(-0.0324085 -0.027514 0.0243106)
(-0.0272725 -0.0316122 0.0114573)
(-0.0114553 -0.0329641 -0.00113283)
(0.0131506 -0.0346708 -0.0116949)
(0.0428034 -0.0381555 -0.017661)
(0.0728735 -0.0425506 -0.0162531)
(0.0982119 -0.0446064 -0.00522724)
(0.113565 -0.0385397 0.0156985)
(0.11464 -0.0176744 0.042807)
(0.100909 0.0186494 0.0678681)
(0.0771383 0.0580378 0.0822154)
(0.0500625 0.0807226 0.0829027)
(0.0241411 0.0759241 0.0737239)
(0.000871316 0.0495159 0.060524)
(-0.016497 0.0153491 0.0471606)
(-0.0755894 -0.056199 0.0427068)
(-0.0728869 -0.059728 0.0393472)
(-0.0684774 -0.0593843 0.0352752)
(-0.053322 -0.0570054 0.0296473)
(-0.029202 -0.0549832 0.0231415)
(-0.000102678 -0.0547806 0.0177271)
(0.0283338 -0.0558061 0.0161767)
(0.0494675 -0.054776 0.0209593)
(0.0572938 -0.0459281 0.0324506)
(0.0491031 -0.0243461 0.0474298)
(0.0282889 0.00719367 0.0599636)
(0.00320224 0.0358241 0.0651776)
(-0.0187916 0.0467941 0.0625155)
(-0.0358976 0.0351305 0.0552535)
(-0.0506446 0.00811446 0.0474131)
(-0.0593269 -0.022128 0.0409083)
(-0.117546 -0.0920372 0.0389875)
(-0.111696 -0.0872664 0.0445534)
(-0.10826 -0.0821239 0.049498)
(-0.0935092 -0.0758757 0.0517989)
(-0.0696771 -0.0699068 0.050925)
(-0.0409635 -0.0653716 0.0477802)
(-0.0136541 -0.0618702 0.0444385)
(0.00469897 -0.0566566 0.043067)
(0.00811546 -0.0452962 0.0443248)
(-0.0042795 -0.0256412 0.0463912)
(-0.026671 -0.00272886 0.0463157)
(-0.0499269 0.0124261 0.0425415)
(-0.0679001 0.0110011 0.0361811)
(-0.0807026 -0.00670985 0.0300336)
(-0.0925523 -0.0326561 0.026669)
(-0.0959327 -0.0564504 0.0261545)
(-0.147094 -0.106944 0.0290715)
(-0.138801 -0.0956352 0.0426275)
(-0.136567 -0.0876137 0.0557152)
(-0.122406 -0.0794915 0.0656357)
(-0.0990482 -0.0716341 0.0707641)
(-0.0706947 -0.0646122 0.0707218)
(-0.0438122 -0.0579904 0.0664575)
(-0.0261854 -0.0498372 0.059626)
(-0.0234669 -0.0376754 0.0514184)
(-0.0356261 -0.0220501 0.0417999)
(-0.0565376 -0.00904838 0.0303346)
(-0.0780349 -0.00675317 0.0180255)
(-0.0951325 -0.0181706 0.00757931)
(-0.108132 -0.0386442 0.00189139)
(-0.12097 -0.060413 0.00248196)
(-0.121716 -0.0758666 0.00762406)
(-0.205399 -0.0732601 0.0203726)
(-0.193801 -0.0449477 0.0278921)
(-0.192411 -0.0220306 0.0374332)
(-0.176678 -0.00456159 0.0437604)
(-0.151679 0.00544086 0.0458354)
(-0.122302 0.00698915 0.0446847)
(-0.0944027 0.00114265 0.0420067)
(-0.0739007 -0.00880423 0.038989)
(-0.0645694 -0.0187582 0.035676)
(-0.0665937 -0.0266716 0.0310185)
(-0.077 -0.0341993 0.0239553)
(-0.0919909 -0.0445002 0.014777)
(-0.109189 -0.0579491 0.00548557)
(-0.128462 -0.0703019 -0.000965109)
(-0.151608 -0.0759912 -0.00175428)
(-0.156057 -0.0705084 0.00377986)
(-0.202838 -0.0591975 -0.0213978)
(-0.197761 -0.0340879 -0.00849349)
(-0.200782 -0.0103262 0.00688002)
(-0.188632 0.00918906 0.0204247)
(-0.165843 0.0217673 0.0299379)
(-0.136512 0.0261083 0.0348525)
(-0.105988 0.0227887 0.0355108)
(-0.0802594 0.0143441 0.032466)
(-0.0639265 0.00389962 0.0259737)
(-0.0588447 -0.00705582 0.0160169)
(-0.0641252 -0.0196541 0.00316091)
(-0.0772944 -0.0353935 -0.0109619)
(-0.0958057 -0.052692 -0.0238264)
(-0.118305 -0.066298 -0.0328148)
(-0.145023 -0.0707464 -0.0355083)
(-0.152728 -0.0621466 -0.0298512)
(-0.189612 -0.0434576 -0.0573595)
(-0.18991 -0.0209619 -0.0429335)
(-0.195243 0.00259783 -0.0257854)
(-0.185409 0.0226855 -0.00878805)
(-0.164109 0.0365694 0.00548211)
(-0.134693 0.0429769 0.0155341)
(-0.101784 0.0421288 0.020634)
(-0.0710678 0.0357149 0.0204766)
(-0.0478047 0.0259127 0.0149347)
(-0.0356736 0.0137125 0.00423988)
(-0.0361778 -0.00167557 -0.0104282)
(-0.0484544 -0.0208322 -0.0267677)
(-0.0697449 -0.0410929 -0.0420431)
(-0.097012 -0.0564236 -0.0538448)
(-0.128184 -0.0609603 -0.0598245)
(-0.141233 -0.0514488 -0.0564199)
(-0.165728 -0.0225109 -0.084386)
(-0.171279 -0.00283059 -0.0731763)
(-0.17775 0.019749 -0.0582097)
(-0.169404 0.0394324 -0.0411475)
(-0.14902 0.0533912 -0.0245998)
(-0.11927 0.0604697 -0.0105552)
(-0.0841158 0.0607985 -0.000443097)
(-0.0488502 0.0556717 0.00470512)
(-0.0191402 0.0467906 0.00418387)
(-0.000192254 0.034937 -0.00228389)
(0.00407798 0.0193784 -0.0140169)
(-0.00746934 -0.000482229 -0.0290813)
(-0.0321219 -0.0219066 -0.0450641)
(-0.0649358 -0.0384879 -0.0598469)
(-0.101112 -0.0437758 -0.0708483)
(-0.120972 -0.0349114 -0.073095)
(-0.132817 -0.000342885 -0.100448)
(-0.143393 0.0167823 -0.0972331)
(-0.150326 0.0378861 -0.0882567)
(-0.142914 0.0563988 -0.0743172)
(-0.123077 0.0694044 -0.057875)
(-0.0929194 0.0758884 -0.041142)
(-0.0558236 0.0761286 -0.0259308)
(-0.0166398 0.0714559 -0.0137523)
(0.0188611 0.0635804 -0.00594256)
(0.044458 0.0534197 -0.00372093)
(0.05406 0.040205 -0.00782812)
(0.0439534 0.0225039 -0.0179139)
(0.0160628 0.00188657 -0.0326317)
(-0.0227154 -0.0153495 -0.0502113)
(-0.0644621 -0.0220421 -0.0676003)
(-0.0922643 -0.0150306 -0.0787534)
(-0.0928769 0.0204989 -0.104106)
(-0.107973 0.0353585 -0.112804)
(-0.115082 0.0542483 -0.113021)
(-0.108231 0.0705368 -0.105037)
(-0.0886983 0.0813052 -0.0910132)
(-0.0581965 0.0857705 -0.0732021)
(-0.0196604 0.0845744 -0.0535949)
(0.0225057 0.0794385 -0.033969)
(0.062736 0.0724317 -0.0161329)
(0.0945116 0.0650205 -0.0022249)
(0.110238 0.0566614 0.00519326)
(0.103073 0.044516 0.00378915)
(0.0729208 0.0274507 -0.00728167)
(0.0282758 0.010704 -0.0267925)
(-0.0195095 0.00231237 -0.0509944)
(-0.0558036 0.0065539 -0.0731634)
(-0.0484881 0.0387329 -0.0946527)
(-0.0671137 0.051308 -0.117366)
(-0.0742814 0.0668895 -0.128835)
(-0.0677292 0.0795407 -0.128946)
(-0.0484324 0.086522 -0.119432)
(-0.0179398 0.0874053 -0.102455)
(0.0211289 0.0833996 -0.0800455)
(0.0648175 0.0767802 -0.0540907)
(0.10805 0.0701677 -0.0266098)
(0.144721 0.0658909 -0.000210941)
(0.166776 0.0644178 0.0210056)
(0.164441 0.0616022 0.0314216)
(0.133968 0.0518639 0.0266883)
(0.0844787 0.0376384 0.00696015)
(0.0308755 0.0278856 -0.0231949)
(-0.0132802 0.0288021 -0.0566553)
(-0.00403933 0.053302 -0.0724444)
(-0.0244363 0.0631803 -0.108442)
(-0.0313423 0.0743512 -0.131528)