/*--------------------------------*- C++ -*----------------------------------*\
| =========                 |                                                 |
| \\      /  F ield         | OpenFOAM: The Open Source CFD Toolbox           |
|  \\    /   O peration     | Version:  3.0.0                                 |
|   \\  /    A nd           | Web:      www.OpenFOAM.org                      |
|    \\/     M anipulation  |                                                 |
\*---------------------------------------------------------------------------*/
FoamFile
{
    version     2.0;
    format      ascii;
    class       volScalarField;
    location    "0.009";
    object      p;
}
// * * * * * * * * * * * * * * * * * * * * * * * * * * * * * * * * * * * * * //

dimensions      [1 -1 -2 0 0 0 0];

internalField   nonuniform List<scalar> 
1000
(
100000
100000
100000
100000
100000
100000
100000
100000
100000
100000
100000
100000
100000
100000
100000
100000
100000
100000
100000
100000
100000
100000
100000
100000
100000
100000
100000
100000
100000
100000
100000
100000
100000
100000
100000
100000
100000
100000
100000
100000
100000
100000
100000
100000
100000
100000
100000
100000
100000
100000
100000
100000
100000
100000
100000
100000
100000
100000
100000
100000
100000
100000
100000
100000
100000
100000
100000
100000
100000
100000
100000
100000
100000
100000
100000
100000
100000
100000
100000
100000
100000
100000
100000
100000
100000
100000
100000
100000
100000
100000
100000
100000
100000
100000
100000
100000
100000
100000
100000
100000
100000
100000
100000
100000
100000
100000
100000
99999.9
99999.9
99999.9
99999.8
99999.8
99999.7
99999.6
99999.4
99999.2
99998.9
99998.6
99998.1
99997.5
99996.8
99995.8
99994.5
99992.9
99990.9
99988.4
99985.2
99981.3
99976.5
99970.5
99963.3
99954.5
99944
99931.3
99916.3
99898.5
99877.6
99853.3
99825
99792.4
99755
99712.5
99664.3
99610.1
99549.4
99482
99407.4
99325.3
99235.6
99138
99032.3
98918.4
98796.3
98666
98527.4
98380.8
98226.2
98063.8
97893.9
97716.5
97532.1
97340.8
97142.9
96938.8
96728.8
96513.2
96292.2
96066.2
95835.5
95600.3
95361.1
95117.9
94871.1
94621
94367.7
94111.6
93852.7
93591.4
93327.8
93062.1
92794.5
92525.1
92254
91981.5
91707.6
91432.5
91156.2
90879
90600.8
90321.8
90042.1
89761.7
89480.8
89199.3
88917.4
88635.2
88352.6
88069.7
87786.7
87503.5
87220.2
86936.8
86653.4
86370.1
86086.7
85803.5
85520.4
85237.4
84954.6
84672
84389.7
84107.6
83825.8
83544.3
83263.2
82982.4
82701.9
82421.9
82142.2
81863
81584.3
81305.9
81028.1
80750.7
80473.8
80197.5
79921.6
79646.3
79371.6
79097.4
78823.7
78550.6
78278.2
78006.2
77734.9
77464.2
77194.1
76924.7
76655.8
76387.6
76120
75853.1
75586.8
75321.1
75056.1
74791.8
74528.1
74265.1
74002.7
73741.1
73480.1
73219.7
72960.1
72701.2
72442.9
72185.3
71928.4
71672.2
71416.7
71161.9
70907.8
70654.4
70401.7
70149.7
69898.4
69647.8
69397.9
69148.7
68900.2
68652.4
68405.3
68158.9
67913.2
67668.3
67424
67180.4
66937.6
66695.5
66454
66213.3
65973.3
65734
65495.4
65257.5
65020.3
64783.8
64548
64312.9
64078.6
63844.9
63611.9
63379.7
63148.1
62917.2
62687.1
62457.6
62228.8
62000.8
61773.4
61546.7
61320.8
61095.5
60870.9
60647
60423.8
60201.3
59979.5
59758.4
59537.9
59318.2
59099.1
58880.7
58663
58446
58229.7
58014
57799
57584.7
57371.1
57158.2
56945.9
56734.3
56523.4
56313.2
56103.6
55894.7
55686.5
55478.9
55272
55065.7
54860.2
54655.3
54451
54247.4
54044.5
53842.2
53640.6
53439.6
53239.3
53039.7
52840.7
52642.3
52444.6
52247.6
52051.2
51855.4
51660.3
51465.8
51272
51078.8
50886.3
50694.4
50503.1
50312.5
50122.5
49933.1
49744.4
49556.3
49368.8
49182
48995.8
48810.2
48625.2
48440.9
48257.2
48074.1
47891.6
47709.8
47528.6
47348
47168
46988.7
46809.9
46631.8
46454.3
46277.4
46101.1
45925.4
45750.4
45576
45402.1
45228.9
45056.3
44884.3
44712.9
44542.1
44371.9
44202.3
44033.4
43865
43697.3
43530.1
43363.6
43197.6
43032.3
42867.6
42703.5
42540
42377.1
42214.8
42053.1
41892
41731.5
41571.6
41412.3
41253.7
41095.6
40938.2
40781.4
40625.2
40469.6
40314.6
40160.2
40006.5
39853.3
39700.8
39549
39397.7
39247.1
39097.1
38947.8
38799
38651
38503.6
38356.8
38210.7
38065.2
37920.4
37776.3
37632.8
37490
37347.9
37206.5
37065.8
36925.9
36786.6
36648
36510.2
36373.1
36236.8
36101.3
35966.5
35832.5
35699.3
35566.9
35435.4
35304.7
35174.9
35045.9
34917.9
34790.8
34664.6
34539.4
34415.2
34292
34169.8
34048.7
33928.8
33809.9
33692.3
33575.8
33460.6
33346.7
33234.1
33122.9
33013.2
32904.9
32798.1
32692.9
32589.4
32487.5
32387.5
32289.2
32192.9
32098.5
32006.1
31915.9
31827.8
31742
31658.5
31577.4
31498.7
31422.7
31349.2
31278.4
31210.3
31145
31082.6
31023.1
30966.4
30912.7
30862
30814.2
30769.4
30727.5
30688.4
30652.3
30618.9
30588.2
30560.1
30534.6
30511.4
30490.6
30471.9
30455.2
30440.4
30427.4
30415.9
30406
30397.3
30389.8
30383.4
30378
30373.4
30369.5
30366.2
30363.4
30361.2
30359.3
30357.7
30356.4
30355.4
30354.5
30353.8
30353.2
30352.7
30352.4
30352
30351.8
30351.6
30351.4
30351.3
30351.1
30351
30351
30350.9
30350.8
30350.8
30350.7
30350.7
30350.7
30350.7
30350.6
30350.6
30350.6
30350.6
30350.6
30350.6
30350.5
30350.5
30350.5
30350.5
30350.5
30350.5
30350.5
30350.5
30350.5
30350.4
30350.4
30350.4
30350.4
30350.4
30350.4
30350.4
30350.4
30350.4
30350.4
30350.4
30350.4
30350.4
30350.3
30350.3
30350.3
30350.3
30350.3
30350.3
30350.3
30350.3
30350.3
30350.3
30350.3
30350.3
30350.3
30350.3
30350.2
30350.2
30350.2
30350.2
30350.2
30350.2
30350.2
30350.2
30350.2
30350.2
30350.2
30350.1
30350.1
30350.1
30350.1
30350.1
30350.1
30350.1
30350.1
30350.1
30350
30350
30350
30350
30350
30350
30350
30350
30350
30350
30350
30350
30349.9
30349.9
30349.9
30349.9
30349.9
30349.9
30349.9
30349.9
30349.9
30349.9
30350
30350
30350
30350
30350
30350
30350
30350
30350
30350
30350
30350
30350
30350
30350
30350
30349.9
30349.9
30349.9
30349.9
30349.9
30349.9
30349.9
30349.9
30349.9
30349.9
30349.9
30349.9
30349.9
30349.9
30349.9
30349.9
30349.9
30349.9
30349.8
30349.8
30349.8
30349.8
30349.8
30349.8
30349.8
30349.8
30349.8
30349.8
30349.8
30349.8
30349.8
30349.8
30349.8
30349.8
30349.8
30349.8
30349.8
30349.7
30349.7
30349.7
30349.7
30349.7
30349.7
30349.7
30349.7
30349.7
30349.7
30349.7
30349.7
30349.7
30349.7
30349.7
30349.7
30349.7
30349.7
30349.7
30349.7
30349.7
30349.7
30349.6
30349.6
30349.6
30349.6
30349.6
30349.6
30349.6
30349.6
30349.6
30349.6
30349.6
30349.6
30349.6
30349.6
30349.6
30349.6
30349.6
30349.6
30349.6
30349.6
30349.5
30349.5
30349.5
30349.5
30349.5
30349.5
30349.5
30349.5
30349.5
30349.5
30349.5
30349.5
30349.5
30349.5
30349.5
30349.5
30349.5
30349.5
30349.5
30349.4
30349.4
30349.4
30349.4
30349.3
30349.3
30349.2
30349.2
30349.1
30349.1
30349
30349
30348.9
30348.9
30348.8
30348.8
30348.8
30348.8
30348.8
30348.8
30348.9
30348.9
30349
30349.1
30349.1
30349.2
30349.3
30349.4
30349.4
30349.5
30349.5
30349.5
30349.5
30349.5
30349.5
30349.5
30349.5
30349.5
30349.4
30349.4
30349.4
30349.4
30349.3
30349.3
30349.3
30349.3
30349.3
30349.3
30349.2
30349.2
30349.2
30349.2
30349.2
30349.2
30349.2
30349.2
30349.2
30349.2
30349.2
30349.1
30349.1
30349.1
30349.1
30349.1
30349.1
30349.1
30349.1
30349.1
30349.1
30349.1
30349.1
30349.1
30349.1
30349.1
30349.1
30349.1
30349.1
30349.1
30349.1
30349.1
30349.1
30349.1
30349.1
30349
30349
30349
30349
30349
30349
30349
30349
30349
30349
30349
30349
30349
30348.9
30348.9
30348.9
30348.9
30348.9
30348.9
30348.9
30348.9
30348.9
30348.9
30348.9
30348.9
30348.9
30348.9
30348.9
30348.9
30348.9
30348.9
30348.9
30348.9
30348.9
30348.9
30348.9
30348.9
30348.9
30348.9
30348.9
30348.9
30348.8
30348.8
30348.8
30348.8
30348.8
30348.8
30348.7
30348.7
30348.7
30348.7
30348.7
30348.7
30348.7
30348.8
30348.8
30348.8
30348.7
30348.7
30348.7
30348.7
30348.7
30348.6
30348.6
30348.6
30348.6
30348.6
30348.6
30348.6
30348.6
30348.6
30348.6
30348.6
30348.6
30348.6
30348.6
30348.6
30348.6
30348.5
30348.5
30348.5
30348.4
30348.4
30348.4
30348.4
30348.4
30348.4
30348.4
30348.4
30348.4
30348.4
30348.4
30348.4
30348.4
30348.4
30348.4
30348.3
30348.3
30348.2
30348.2
30348.1
30348.1
30348.1
30348.1
30348.1
30348.1
30348.2
30348.2
30348.2
30348.2
30348.2
30348.2
30348.2
30348.2
30348.1
30348
30347.9
30347.9
30347.8
30347.8
30347.8
30347.8
30347.8
30347.8
30347.9
30347.9
30348
30348
30348
30348
30347.9
30347.9
30347.8
30347.7
30347.6
30347.5
30347.4
30347.3
30347.3
30347.3
30347.3
30347.4
30347.5
30347.6
30347.7
30347.7
30347.7
30347.7
30347.6
30347.4
30347.2
30347.1
30347
30346.9
30346.8
30346.7
30346.5
30346.3
30345.9
30345.5
30344.6
30343.3
30341.6
30338.2
30331.2
30321.2
30299.3
30264.7
30200.6
30003.9
29683.5
28722.8
26838.7
22910.2
17987.1
13858.5
11423.5
)
;

boundaryField
{
    sides
    {
        type            zeroGradient;
    }
    empty
    {
        type            empty;
    }
}


// ************************************************************************* //
