/*--------------------------------*- C++ -*----------------------------------*\
| =========                 |                                                 |
| \\      /  F ield         | OpenFOAM: The Open Source CFD Toolbox           |
|  \\    /   O peration     | Version:  3.0.0                                 |
|   \\  /    A nd           | Web:      www.OpenFOAM.org                      |
|    \\/     M anipulation  |                                                 |
\*---------------------------------------------------------------------------*/
FoamFile
{
    version     2.0;
    format      ascii;
    class       surfaceScalarField;
    location    "0.009";
    object      phi;
}
// * * * * * * * * * * * * * * * * * * * * * * * * * * * * * * * * * * * * * //

dimensions      [1 0 -1 0 0 0 0];

internalField   nonuniform List<scalar> 
999
(
-3.24007e-12
-4.09273e-12
-4.26326e-12
-4.14957e-12
-4.83169e-12
-5.51381e-12
-5.91172e-12
-5.91172e-12
-5.11591e-12
-5.11591e-12
-5.28644e-12
-5.79803e-12
-5.22959e-12
-5.51381e-12
-5.74119e-12
-5.68434e-12
-5.22959e-12
-5.34328e-12
-5.79803e-12
-5.74119e-12
-6.25278e-12
-5.74119e-12
-6.0254e-12
-6.59384e-12
-6.30962e-12
-7.16227e-12
-7.10543e-12
-6.30962e-12
-5.96856e-12
-6.48015e-12
-5.11591e-12
-4.66116e-12
-4.37694e-12
-4.49063e-12
-3.52429e-12
-3.63798e-12
-4.20641e-12
-3.69482e-12
-2.95586e-12
-2.67164e-12
-1.87583e-12
-2.33058e-12
-2.16005e-12
-3.06954e-12
-3.35376e-12
-3.29692e-12
-3.69482e-12
-3.46745e-12
-3.86535e-12
-4.14957e-12
-3.29692e-12
-3.75167e-12
-4.77485e-12
-4.60432e-12
-6.08225e-12
-6.13909e-12
-5.45697e-12
-4.3201e-12
-4.26326e-12
-4.09273e-12
-2.44427e-12
-1.13687e-12
1.3074e-12
5.05906e-12
1.09708e-11
1.96678e-11
3.49587e-11
5.93445e-11
9.95897e-11
1.63425e-10
2.65743e-10
4.28088e-10
6.86896e-10
1.09435e-09
1.73799e-09
2.74787e-09
4.32846e-09
6.79177e-09
1.06164e-08
1.6534e-08
2.56546e-08
3.96574e-08
6.10762e-08
9.37101e-08
1.43241e-07
2.18123e-07
3.30887e-07
5.00028e-07
7.52716e-07
1.1287e-06
1.68588e-06
2.5082e-06
3.71683e-06
5.48588e-06
8.06435e-06
1.18068e-05
1.72153e-05
2.49984e-05
3.61497e-05
5.20573e-05
7.46498e-05
0.000106593
0.000151556
0.000214558
0.000302431
0.000424428
0.000593012
0.000824877
0.00114226
0.00157462
0.00216074
0.00295142
0.00401277
0.00543032
0.00731402
0.00980438
0.0130797
0.017365
0.022942
0.0301612
0.0394555
0.0513562
0.0665095
0.0856967
0.109854
0.140094
0.17773
0.224297
0.281572
0.351599
0.4367
0.539491
0.662891
0.810119
0.984688
1.19039
1.43127
1.71158
2.03575
2.40831
2.83386
3.31694
3.86204
4.47342
5.15512
5.91085
6.74392
7.65718
8.653
9.7332
10.8991
12.1513
13.49
14.9148
16.4248
18.0187
19.6946
21.4502
23.2831
25.1904
27.169
29.2158
31.3274
33.5003
35.731
38.0162
40.3522
42.7359
45.1638
47.6327
50.1395
52.6813
55.2551
57.8583
60.4883
63.1426
65.8189
68.5151
71.229
73.9587
76.7025
79.4586
82.2254
85.0016
87.7856
90.5762
93.3721
96.1724
98.9758
101.781
104.588
107.396
110.203
113.009
115.813
118.615
121.413
124.208
126.999
129.785
132.566
135.342
138.111
140.874
143.63
146.379
149.121
151.854
154.58
157.297
160.006
162.705
165.396
168.077
170.749
173.411
176.063
178.705
181.336
183.957
186.568
189.167
191.756
194.334
196.901
199.456
202.001
204.533
207.055
209.564
212.062
214.549
217.023
219.485
221.936
224.375
226.801
229.216
231.618
234.008
236.386
238.751
241.105
243.446
245.775
248.091
250.395
252.687
254.966
257.233
259.487
261.729
263.959
266.176
268.381
270.573
272.753
274.92
277.075
279.218
281.348
283.466
285.571
287.664
289.745
291.813
293.869
295.912
297.944
299.963
301.969
303.964
305.946
307.916
309.874
311.819
313.753
315.674
317.583
319.481
321.366
323.239
325.1
326.949
328.786
330.611
332.424
334.225
336.015
337.792
339.558
341.312
343.055
344.785
346.504
348.211
349.907
351.591
353.263
354.924
356.574
358.212
359.838
361.453
363.057
364.649
366.23
367.8
369.358
370.906
372.442
373.967
375.481
376.983
378.475
379.956
381.425
382.884
384.332
385.769
387.195
388.61
390.014
391.408
392.791
394.163
395.525
396.876
398.216
399.546
400.865
402.174
403.472
404.76
406.038
407.305
408.562
409.808
411.046
412.27
413.489
414.69
415.892
417.07
418.254
419.41
420.576
421.712
422.854
423.979
425.09
426.207
427.288
428.393
429.452
430.534
431.583
432.633
433.675
434.698
435.723
436.73
437.73
438.724
439.703
440.677
441.641
442.593
443.539
444.474
445.4
446.318
447.226
448.124
449.015
449.896
450.768
451.631
452.485
453.33
454.167
454.994
455.813
456.623
457.425
458.217
459.002
459.777
460.544
461.302
462.052
462.793
463.526
464.251
464.967
465.674
466.374
467.065
467.747
468.422
469.088
469.746
470.396
471.038
471.672
472.298
472.915
473.525
474.127
474.721
475.306
475.884
476.455
477.017
477.571
478.118
478.657
479.188
479.712
480.228
480.736
481.237
481.73
482.216
482.694
483.164
483.627
484.083
484.531
484.972
485.406
485.832
486.251
486.662
487.067
487.464
487.854
488.236
488.612
488.98
489.342
489.696
490.043
490.383
490.716
491.042
491.361
491.673
491.978
492.277
492.568
492.852
493.13
493.401
493.665
493.922
494.172
494.416
494.653
494.883
495.106
495.323
495.533
495.737
495.934
496.125
496.308
496.486
496.657
496.821
496.979
497.131
497.277
497.416
497.549
497.676
497.796
497.911
498.02
498.123
498.22
498.311
498.397
498.478
498.553
498.622
498.687
498.747
498.802
498.852
498.898
498.94
498.978
499.012
499.042
499.069
499.093
499.114
499.132
499.148
499.162
499.173
499.183
499.191
499.197
499.202
499.206
499.21
499.212
499.214
499.215
499.215
499.215
499.215
499.215
499.214
499.214
499.213
499.212
499.211
499.209
499.208
499.207
499.206
499.204
499.203
499.202
499.2
499.199
499.197
499.196
499.195
499.193
499.192
499.19
499.189
499.187
499.186
499.184
499.183
499.181
499.179
499.178
499.176
499.175
499.173
499.171
499.17
499.168
499.166
499.165
499.163
499.161
499.159
499.158
499.156
499.154
499.152
499.15
499.148
499.146
499.145
499.143
499.141
499.139
499.137
499.135
499.133
499.131
499.129
499.127
499.124
499.122
499.12
499.118
499.116
499.114
499.111
499.109
499.107
499.105
499.102
499.1
499.097
499.095
499.093
499.09
499.088
499.085
499.083
499.08
499.077
499.075
499.072
499.069
499.067
499.064
499.061
499.058
499.055
499.053
499.05
499.047
499.044
499.041
499.038
499.034
499.031
499.028
499.025
499.022
499.018
499.015
499.011
499.008
499.005
499.001
498.997
498.994
498.99
498.986
498.982
498.979
498.975
498.971
498.967
498.963
498.959
498.954
498.95
498.946
498.941
498.937
498.932
498.928
498.923
498.919
498.914
498.909
498.904
498.899
498.894
498.889
498.883
498.878
498.873
498.867
498.861
498.856
498.85
498.844
498.838
498.832
498.826
498.819
498.813
498.806
498.799
498.793
498.786
498.779
498.771
498.764
498.756
498.749
498.741
498.733
498.725
498.716
498.708
498.699
498.69
498.681
498.672
498.663
498.653
498.643
498.633
498.623
498.612
498.601
498.59
498.579
498.567
498.555
498.543
498.53
498.517
498.504
498.49
498.476
498.462
498.447
498.432
498.416
498.4
498.383
498.366
498.349
498.33
498.312
498.292
498.272
498.251
498.23
498.208
498.185
498.161
498.136
498.11
498.083
498.056
498.027
497.997
497.965
497.932
497.898
497.862
497.824
497.785
497.743
497.7
497.654
497.606
497.555
497.501
497.443
497.381
497.314
497.242
497.164
497.083
497
496.916
496.835
496.756
496.678
496.595
496.498
496.368
496.18
495.898
495.479
494.868
494.006
492.824
491.254
489.228
486.681
483.558
479.816
475.427
470.382
464.693
458.391
451.529
444.175
436.417
428.352
420.087
411.729
403.389
395.17
387.166
379.462
372.13
365.225
358.79
352.852
347.426
342.513
338.105
334.185
330.728
327.704
325.082
322.824
320.896
319.262
317.887
316.739
315.787
315.004
314.363
313.842
313.422
313.085
312.816
312.604
312.436
312.305
312.203
312.123
312.062
312.015
311.978
311.95
311.929
311.912
311.899
311.89
311.882
311.876
311.871
311.867
311.864
311.862
311.859
311.858
311.856
311.855
311.854
311.853
311.852
311.851
311.85
311.85
311.849
311.849
311.848
311.848
311.847
311.847
311.847
311.846
311.846
311.846
311.846
311.845
311.845
311.845
311.845
311.844
311.844
311.844
311.844
311.844
311.843
311.843
311.843
311.843
311.842
311.842
311.842
311.842
311.842
311.841
311.841
311.841
311.841
311.841
311.84
311.84
311.84
311.84
311.839
311.839
311.839
311.839
311.838
311.838
311.838
311.838
311.838
311.837
311.837
311.837
311.837
311.837
311.836
311.836
311.836
311.836
311.836
311.835
311.835
311.835
311.835
311.834
311.834
311.834
311.834
311.834
311.834
311.833
311.833
311.833
311.833
311.833
311.832
311.832
311.832
311.831
311.831
311.831
311.831
311.83
311.83
311.83
311.83
311.829
311.829
311.829
311.829
311.828
311.828
311.828
311.828
311.827
311.827
311.827
311.826
311.826
311.826
311.825
311.825
311.825
311.825
311.825
311.824
311.824
311.824
311.824
311.824
311.824
311.823
311.823
311.823
311.822
311.822
311.821
311.821
311.821
311.82
311.82
311.82
311.82
311.82
311.82
311.819
311.819
311.819
311.818
311.818
311.818
311.817
311.817
311.816
311.815
311.815
311.815
311.814
311.814
311.814
311.813
311.813
311.813
311.813
311.813
311.813
311.812
311.811
311.811
311.81
311.809
311.809
311.808
311.808
311.807
311.807
311.807
311.806
311.806
311.805
311.805
311.804
311.803
311.802
311.8
311.797
311.793
311.786
311.776
311.757
311.728
311.674
311.598
311.443
311.233
310.84
309.988
308.328
304.075
294.683
272.862
225.129
154.993
83.1382
33.39
)
;

boundaryField
{
    sides
    {
        type            calculated;
        value           nonuniform List<scalar> 2(10.4217 2.67755e-12);
    }
    empty
    {
        type            empty;
        value           nonuniform 0();
    }
}


// ************************************************************************* //
