/*--------------------------------*- C++ -*----------------------------------*\
| =========                 |                                                 |
| \\      /  F ield         | OpenFOAM: The Open Source CFD Toolbox           |
|  \\    /   O peration     | Version:  3.0.0                                 |
|   \\  /    A nd           | Web:      www.OpenFOAM.org                      |
|    \\/     M anipulation  |                                                 |
\*---------------------------------------------------------------------------*/
FoamFile
{
    version     2.0;
    format      ascii;
    class       volScalarField;
    location    "0.009";
    object      T;
}
// * * * * * * * * * * * * * * * * * * * * * * * * * * * * * * * * * * * * * //

dimensions      [0 0 0 1 0 0 0];

internalField   nonuniform List<scalar> 
1000
(
348.432
348.432
348.432
348.432
348.432
348.432
348.432
348.432
348.432
348.432
348.432
348.432
348.432
348.432
348.432
348.432
348.432
348.432
348.432
348.432
348.432
348.432
348.432
348.432
348.432
348.432
348.432
348.432
348.432
348.432
348.432
348.432
348.432
348.432
348.432
348.432
348.432
348.432
348.432
348.432
348.432
348.432
348.432
348.432
348.432
348.432
348.432
348.432
348.432
348.432
348.432
348.432
348.432
348.432
348.432
348.432
348.432
348.432
348.432
348.432
348.432
348.432
348.432
348.432
348.432
348.432
348.432
348.432
348.432
348.432
348.432
348.432
348.432
348.432
348.432
348.432
348.432
348.432
348.432
348.432
348.432
348.432
348.432
348.432
348.432
348.432
348.432
348.432
348.432
348.432
348.432
348.432
348.432
348.432
348.432
348.432
348.432
348.432
348.432
348.432
348.432
348.432
348.432
348.432
348.432
348.432
348.432
348.432
348.432
348.432
348.432
348.432
348.432
348.432
348.431
348.431
348.431
348.431
348.43
348.43
348.429
348.428
348.427
348.425
348.423
348.42
348.417
348.413
348.409
348.403
348.395
348.387
348.376
348.363
348.348
348.331
348.31
348.286
348.257
348.225
348.187
348.145
348.097
348.043
347.982
347.914
347.84
347.758
347.668
347.57
347.464
347.349
347.226
347.095
346.956
346.808
346.652
346.488
346.316
346.136
345.949
345.755
345.554
345.346
345.132
344.911
344.685
344.453
344.217
343.975
343.728
343.477
343.222
342.963
342.7
342.434
342.164
341.891
341.615
341.337
341.056
340.772
340.486
340.198
339.908
339.616
339.322
339.027
338.73
338.431
338.131
337.829
337.526
337.222
336.917
336.611
336.304
335.995
335.686
335.376
335.065
334.753
334.441
334.127
333.813
333.499
333.184
332.868
332.552
332.235
331.917
331.6
331.281
330.963
330.644
330.324
330.005
329.685
329.364
329.044
328.723
328.401
328.08
327.758
327.436
327.114
326.792
326.469
326.147
325.824
325.501
325.178
324.855
324.532
324.208
323.885
323.561
323.238
322.914
322.591
322.267
321.943
321.619
321.295
320.972
320.648
320.324
320
319.676
319.352
319.029
318.705
318.381
318.057
317.734
317.41
317.086
316.763
316.439
316.116
315.792
315.469
315.146
314.823
314.499
314.176
313.853
313.53
313.208
312.885
312.562
312.24
311.917
311.595
311.273
310.95
310.628
310.306
309.985
309.663
309.341
309.02
308.698
308.377
308.056
307.735
307.414
307.093
306.772
306.452
306.131
305.811
305.491
305.171
304.851
304.531
304.212
303.892
303.573
303.254
302.934
302.616
302.297
301.978
301.66
301.341
301.023
300.705
300.387
300.07
299.752
299.435
299.117
298.8
298.483
298.166
297.85
297.533
297.217
296.901
296.585
296.269
295.953
295.638
295.323
295.007
294.693
294.378
294.063
293.749
293.434
293.12
292.806
292.492
292.179
291.865
291.553
291.238
290.928
290.611
290.306
289.981
289.688
289.349
289.075
288.713
288.465
288.077
287.855
287.447
287.236
286.832
286.602
286.231
285.958
285.635
285.321
285.027
284.7
284.405
284.091
283.78
283.478
283.164
282.859
282.553
282.242
281.938
281.63
281.322
281.017
280.71
280.404
280.099
279.793
279.487
279.183
278.877
278.573
278.269
277.964
277.66
277.357
277.053
276.75
276.447
276.144
275.842
275.54
275.238
274.936
274.634
274.333
274.032
273.732
273.432
273.131
272.832
272.532
272.233
271.934
271.636
271.337
271.04
270.742
270.445
270.148
269.851
269.555
269.259
268.963
268.668
268.373
268.079
267.785
267.491
267.198
266.905
266.613
266.321
266.029
265.738
265.448
265.158
264.868
264.579
264.29
264.002
263.715
263.428
263.142
262.856
262.571
262.286
262.003
261.719
261.437
261.156
260.875
260.595
260.316
260.037
259.76
259.484
259.208
258.934
258.66
258.388
258.117
257.847
257.578
257.311
257.045
256.781
256.518
256.257
255.997
255.739
255.483
255.229
254.977
254.727
254.48
254.234
253.992
253.751
253.514
253.279
253.048
252.819
252.595
252.373
252.155
251.941
251.731
251.526
251.324
251.128
250.936
250.749
250.567
250.391
250.22
250.055
249.896
249.743
249.596
249.456
249.322
249.195
249.074
248.961
248.853
248.753
248.659
248.572
248.491
248.417
248.349
248.287
248.23
248.179
248.133
248.092
248.056
248.024
247.996
247.971
247.95
247.932
247.916
247.903
247.892
247.882
247.874
247.868
247.863
247.858
247.855
247.852
247.85
247.849
247.847
247.847
247.846
247.846
247.846
247.846
247.846
247.846
247.846
247.847
247.847
247.848
247.848
247.849
247.849
247.85
247.851
247.851
247.852
247.853
247.854
247.854
247.855
247.856
247.857
247.857
247.858
247.859
247.86
247.86
247.862
247.862
247.863
247.864
247.865
247.866
247.867
247.867
247.868
247.869
247.87
247.871
247.872
247.873
247.874
247.875
247.876
247.877
247.878
247.879
247.88
247.881
247.882
247.883
247.884
247.885
247.886
247.888
247.889
247.89
247.891
247.892
247.893
247.894
247.895
247.897
247.898
247.899
247.9
247.902
247.903
247.904
247.905
247.907
247.908
247.909
247.911
247.912
247.914
247.915
247.916
247.918
247.919
247.921
247.922
247.924
247.925
247.927
247.928
247.93
247.932
247.933
247.935
247.937
247.938
247.94
247.942
247.944
247.946
247.948
247.949
247.951
247.953
247.955
247.957
247.959
247.961
247.963
247.965
247.968
247.97
247.972
247.974
247.977
247.979
247.981
247.983
247.986
247.988
247.991
247.993
247.996
247.998
248.001
248.004
248.007
248.009
248.012
248.015
248.018
248.021
248.024
248.027
248.03
248.034
248.037
248.04
248.044
248.047
248.051
248.054
248.058
248.062
248.065
248.069
248.073
248.077
248.081
248.086
248.09
248.094
248.099
248.104
248.108
248.113
248.118
248.123
248.128
248.134
248.139
248.145
248.15
248.156
248.162
248.168
248.175
248.181
248.188
248.195
248.202
248.209
248.216
248.224
248.232
248.24
248.248
248.257
248.266
248.275
248.285
248.294
248.304
248.315
248.326
248.337
248.349
248.361
248.373
248.386
248.4
248.414
248.429
248.444
248.46
248.477
248.494
248.512
248.532
248.552
248.573
248.595
248.619
248.643
248.669
248.697
248.727
248.759
248.794
248.831
248.871
248.913
248.955
248.996
249.036
249.075
249.115
249.158
249.212
249.288
249.401
249.571
249.823
250.186
250.695
251.387
252.299
253.472
254.946
256.756
258.936
261.516
264.518
267.957
271.839
276.163
280.913
286.067
291.59
297.435
303.547
309.862
316.308
322.807
329.283
335.657
341.854
347.807
353.458
358.759
363.673
368.176
372.257
375.914
379.158
382.005
384.48
386.609
388.425
389.96
391.245
392.314
393.194
393.915
394.499
394.971
395.348
395.649
395.886
396.073
396.218
396.332
396.42
396.488
396.54
396.58
396.611
396.634
396.652
396.666
396.677
396.686
396.692
396.698
396.702
396.705
396.708
396.711
396.713
396.714
396.716
396.717
396.718
396.719
396.72
396.72
396.721
396.722
396.722
396.723
396.723
396.723
396.724
396.724
396.724
396.725
396.725
396.725
396.725
396.725
396.726
396.726
396.726
396.726
396.726
396.726
396.726
396.727
396.727
396.727
396.727
396.727
396.727
396.728
396.728
396.728
396.728
396.728
396.728
396.728
396.728
396.729
396.729
396.729
396.729
396.729
396.729
396.73
396.73
396.73
396.73
396.73
396.73
396.73
396.731
396.731
396.731
396.731
396.731
396.731
396.731
396.731
396.731
396.731
396.731
396.731
396.732
396.732
396.732
396.732
396.732
396.732
396.732
396.732
396.732
396.732
396.732
396.732
396.732
396.732
396.732
396.732
396.732
396.733
396.733
396.733
396.733
396.733
396.733
396.733
396.733
396.733
396.733
396.733
396.733
396.733
396.733
396.733
396.733
396.733
396.733
396.734
396.734
396.734
396.734
396.734
396.734
396.734
396.733
396.733
396.733
396.733
396.733
396.733
396.733
396.733
396.733
396.733
396.733
396.733
396.733
396.734
396.734
396.734
396.733
396.733
396.733
396.733
396.733
396.732
396.732
396.732
396.732
396.732
396.732
396.733
396.733
396.733
396.733
396.734
396.734
396.734
396.734
396.733
396.733
396.733
396.733
396.732
396.732
396.731
396.731
396.732
396.732
396.732
396.733
396.733
396.733
396.733
396.733
396.733
396.732
396.732
396.731
396.731
396.73
396.729
396.73
396.729
396.729
396.728
396.728
396.723
396.724
396.714
396.716
396.689
396.687
396.614
396.582
396.363
396.239
395.226
394.105
389.526
381.902
362.01
333.76
307.11
289.444
)
;

boundaryField
{
    sides
    {
        type            zeroGradient;
    }
    empty
    {
        type            empty;
    }
}


// ************************************************************************* //
