/*--------------------------------*- C++ -*----------------------------------*\
| =========                 |                                                 |
| \\      /  F ield         | OpenFOAM: The Open Source CFD Toolbox           |
|  \\    /   O peration     | Version:  3.0.0                                 |
|   \\  /    A nd           | Web:      www.OpenFOAM.org                      |
|    \\/     M anipulation  |                                                 |
\*---------------------------------------------------------------------------*/
FoamFile
{
    version     2.0;
    format      ascii;
    class       volVectorField;
    location    "0.009";
    object      U;
}
// * * * * * * * * * * * * * * * * * * * * * * * * * * * * * * * * * * * * * //

dimensions      [0 1 -1 0 0 0 0];

internalField   nonuniform List<vector> 
1000
(
(-6.41841e-13 0 0)
(-9.19e-13 0 0)
(-1.06487e-12 0 0)
(-1.1524e-12 0 0)
(-9.62762e-13 0 0)
(-1.50249e-12 0 0)
(-1.38579e-12 0 0)
(-1.40038e-12 0 0)
(-1.54625e-12 0 0)
(-1.16698e-12 0 0)
(-1.4879e-12 0 0)
(-1.16698e-12 0 0)
(-1.57543e-12 0 0)
(-1.18157e-12 0 0)
(-1.61919e-12 0 0)
(-1.2691e-12 0 0)
(-1.54625e-12 0 0)
(-1.18157e-12 0 0)
(-1.51708e-12 0 0)
(-1.35662e-12 0 0)
(-1.51708e-12 0 0)
(-1.45873e-12 0 0)
(-1.57543e-12 0 0)
(-1.4879e-12 0 0)
(-1.70671e-12 0 0)
(-1.61919e-12 0 0)
(-1.85259e-12 0 0)
(-1.50249e-12 0 0)
(-1.80883e-12 0 0)
(-1.31286e-12 0 0)
(-1.66295e-12 0 0)
(-1.1524e-12 0 0)
(-1.12322e-12 0 0)
(-1.16698e-12 0 0)
(-9.04413e-13 0 0)
(-1.00652e-12 0 0)
(-8.46063e-13 0 0)
(-1.12322e-12 0 0)
(-6.71016e-13 0 0)
(-8.60651e-13 0 0)
(-3.93857e-13 0 0)
(-7.5854e-13 0 0)
(-3.20921e-13 0 0)
(-8.75238e-13 0 0)
(-5.68905e-13 0 0)
(-1.10863e-12 0 0)
(-6.27254e-13 0 0)
(-1.13781e-12 0 0)
(-7.5854e-13 0 0)
(-1.09405e-12 0 0)
(-8.46063e-13 0 0)
(-1.05029e-12 0 0)
(-8.75238e-13 0 0)
(-1.34203e-12 0 0)
(-1.19616e-12 0 0)
(-1.63378e-12 0 0)
(-1.29827e-12 0 0)
(-1.32744e-12 0 0)
(-8.75238e-13 0 0)
(-1.31286e-12 0 0)
(-5.98079e-13 0 0)
(-6.56429e-13 0 0)
(1.31286e-13 0 0)
(5.54317e-13 0 0)
(2.0714e-12 0 0)
(3.60306e-12 0 0)
(6.81227e-12 0 0)
(1.15969e-11 0 0)
(1.97366e-11 0 0)
(3.26026e-11 0 0)
(5.30248e-11 0 0)
(8.60797e-11 0 0)
(1.38317e-10 0 0)
(2.20954e-10 0 0)
(3.51569e-10 0 0)
(5.56914e-10 0 0)
(8.78622e-10 0 0)
(1.38107e-09 0 0)
(2.16261e-09 0 0)
(3.37312e-09 0 0)
(5.24287e-09 0 0)
(8.11758e-09 0 0)
(1.25222e-08 0 0)
(1.92453e-08 0 0)
(2.94658e-08 0 0)
(4.49453e-08 0 0)
(6.82953e-08 0 0)
(1.03381e-07 0 0)
(1.55891e-07 0 0)
(2.34162e-07 0 0)
(3.50362e-07 0 0)
(5.22169e-07 0 0)
(7.75152e-07 0 0)
(1.14612e-06 0 0)
(1.68784e-06 0 0)
(2.47558e-06 0 0)
(3.6162e-06 0 0)
(5.26071e-06 0 0)
(7.62151e-06 0 0)
(1.09958e-05 0 0)
(1.57976e-05 0 0)
(2.26005e-05 0 0)
(3.21953e-05 0 0)
(4.56668e-05 0 0)
(6.44954e-05 0 0)
(9.06902e-05 0 0)
(0.000126964 0 0)
(0.00017696 0 0)
(0.000245543 0 0)
(0.000339174 0 0)
(0.000466384 0 0)
(0.000638371 0 0)
(0.000869755 0 0)
(0.0011795 0 0)
(0.00159204 0 0)
(0.00213873 0 0)
(0.00285943 0 0)
(0.00380462 0 0)
(0.0050377 0 0)
(0.00663779 0 0)
(0.00870297 0 0)
(0.011354 0 0)
(0.0147382 0 0)
(0.0190344 0 0)
(0.0244577 0 0)
(0.0312649 0 0)
(0.03976 0 0)
(0.0502999 0 0)
(0.0633001 0 0)
(0.0792398 0 0)
(0.0986669 0 0)
(0.122202 0 0)
(0.150539 0 0)
(0.184452 0 0)
(0.224787 0 0)
(0.272466 0 0)
(0.328476 0 0)
(0.393867 0 0)
(0.46974 0 0)
(0.557233 0 0)
(0.65751 0 0)
(0.77174 0 0)
(0.901085 0 0)
(1.04668 0 0)
(1.2096 0 0)
(1.39088 0 0)
(1.59145 0 0)
(1.81215 0 0)
(2.05372 0 0)
(2.31676 0 0)
(2.60175 0 0)
(2.90905 0 0)
(3.23887 0 0)
(3.5913 0 0)
(3.96629 0 0)
(4.3637 0 0)
(4.78325 0 0)
(5.22456 0 0)
(5.68719 0 0)
(6.17059 0 0)
(6.67416 0 0)
(7.19724 0 0)
(7.73916 0 0)
(8.29917 0 0)
(8.87654 0 0)
(9.47052 0 0)
(10.0803 0 0)
(10.7053 0 0)
(11.3446 0 0)
(11.9975 0 0)
(12.6634 0 0)
(13.3416 0 0)
(14.0313 0 0)
(14.7321 0 0)
(15.4432 0 0)
(16.1642 0 0)
(16.8944 0 0)
(17.6334 0 0)
(18.3806 0 0)
(19.1357 0 0)
(19.8982 0 0)
(20.6677 0 0)
(21.4438 0 0)
(22.2261 0 0)
(23.0143 0 0)
(23.8082 0 0)
(24.6074 0 0)
(25.4116 0 0)
(26.2206 0 0)
(27.0342 0 0)
(27.852 0 0)
(28.674 0 0)
(29.4999 0 0)
(30.3295 0 0)
(31.1627 0 0)
(31.9992 0 0)
(32.839 0 0)
(33.6819 0 0)
(34.5277 0 0)
(35.3763 0 0)
(36.2276 0 0)
(37.0815 0 0)
(37.9378 0 0)
(38.7966 0 0)
(39.6576 0 0)
(40.5207 0 0)
(41.3859 0 0)
(42.2532 0 0)
(43.1223 0 0)
(43.9933 0 0)
(44.8661 0 0)
(45.7405 0 0)
(46.6166 0 0)
(47.4943 0 0)
(48.3734 0 0)
(49.254 0 0)
(50.136 0 0)
(51.0193 0 0)
(51.9039 0 0)
(52.7897 0 0)
(53.6767 0 0)
(54.5649 0 0)
(55.4541 0 0)
(56.3444 0 0)
(57.2358 0 0)
(58.1281 0 0)
(59.0213 0 0)
(59.9155 0 0)
(60.8106 0 0)
(61.7064 0 0)
(62.6032 0 0)
(63.5006 0 0)
(64.3989 0 0)
(65.2979 0 0)
(66.1976 0 0)
(67.0979 0 0)
(67.9989 0 0)
(68.9006 0 0)
(69.8029 0 0)
(70.7057 0 0)
(71.6092 0 0)
(72.5131 0 0)
(73.4177 0 0)
(74.3227 0 0)
(75.2282 0 0)
(76.1342 0 0)
(77.0407 0 0)
(77.9476 0 0)
(78.855 0 0)
(79.7628 0 0)
(80.671 0 0)
(81.5796 0 0)
(82.4885 0 0)
(83.3979 0 0)
(84.3076 0 0)
(85.2176 0 0)
(86.128 0 0)
(87.0387 0 0)
(87.9497 0 0)
(88.8611 0 0)
(89.7727 0 0)
(90.6846 0 0)
(91.5968 0 0)
(92.5092 0 0)
(93.422 0 0)
(94.3349 0 0)
(95.2482 0 0)
(96.1616 0 0)
(97.0753 0 0)
(97.9892 0 0)
(98.9033 0 0)
(99.8176 0 0)
(100.732 0 0)
(101.647 0 0)
(102.562 0 0)
(103.477 0 0)
(104.392 0 0)
(105.308 0 0)
(106.223 0 0)
(107.139 0 0)
(108.055 0 0)
(108.971 0 0)
(109.887 0 0)
(110.804 0 0)
(111.72 0 0)
(112.637 0 0)
(113.553 0 0)
(114.47 0 0)
(115.387 0 0)
(116.304 0 0)
(117.222 0 0)
(118.139 0 0)
(119.056 0 0)
(119.974 0 0)
(120.891 0 0)
(121.809 0 0)
(122.727 0 0)
(123.645 0 0)
(124.563 0 0)
(125.481 0 0)
(126.399 0 0)
(127.317 0 0)
(128.235 0 0)
(129.153 0 0)
(130.071 0 0)
(130.99 0 0)
(131.908 0 0)
(132.827 0 0)
(133.745 0 0)
(134.664 0 0)
(135.582 0 0)
(136.501 0 0)
(137.42 0 0)
(138.338 0 0)
(139.257 0 0)
(140.176 0 0)
(141.094 0 0)
(142.013 0 0)
(142.932 0 0)
(143.851 0 0)
(144.769 0 0)
(145.688 0 0)
(146.607 0 0)
(147.526 0 0)
(148.445 0 0)
(149.363 0 0)
(150.282 0 0)
(151.201 0 0)
(152.12 0 0)
(153.038 0 0)
(153.957 0 0)
(154.876 0 0)
(155.794 0 0)
(156.713 0 0)
(157.632 0 0)
(158.55 0 0)
(159.469 0 0)
(160.387 0 0)
(161.306 0 0)
(162.224 0 0)
(163.143 0 0)
(164.061 0 0)
(164.979 0 0)
(165.897 0 0)
(166.816 0 0)
(167.734 0 0)
(168.652 0 0)
(169.57 0 0)
(170.488 0 0)
(171.405 0 0)
(172.323 0 0)
(173.241 0 0)
(174.158 0 0)
(175.076 0 0)
(175.993 0 0)
(176.91 0 0)
(177.828 0 0)
(178.745 0 0)
(179.662 0 0)
(180.579 0 0)
(181.495 0 0)
(182.412 0 0)
(183.329 0 0)
(184.245 0 0)
(185.161 0 0)
(186.077 0 0)
(186.993 0 0)
(187.909 0 0)
(188.825 0 0)
(189.741 0 0)
(190.656 0 0)
(191.571 0 0)
(192.486 0 0)
(193.401 0 0)
(194.316 0 0)
(195.23 0 0)
(196.145 0 0)
(197.059 0 0)
(197.973 0 0)
(198.887 0 0)
(199.8 0 0)
(200.713 0 0)
(201.627 0 0)
(202.539 0 0)
(203.452 0 0)
(204.364 0 0)
(205.276 0 0)
(206.188 0 0)
(207.1 0 0)
(208.011 0 0)
(208.922 0 0)
(209.832 0 0)
(210.743 0 0)
(211.653 0 0)
(212.562 0 0)
(213.472 0 0)
(214.381 0 0)
(215.289 0 0)
(216.197 0 0)
(217.105 0 0)
(218.013 0 0)
(218.919 0 0)
(219.826 0 0)
(220.732 0 0)
(221.638 0 0)
(222.543 0 0)
(223.447 0 0)
(224.351 0 0)
(225.255 0 0)
(226.158 0 0)
(227.06 0 0)
(227.961 0 0)
(228.863 0 0)
(229.763 0 0)
(230.663 0 0)
(231.562 0 0)
(232.46 0 0)
(233.357 0 0)
(234.254 0 0)
(235.15 0 0)
(236.045 0 0)
(236.939 0 0)
(237.832 0 0)
(238.724 0 0)
(239.615 0 0)
(240.505 0 0)
(241.394 0 0)
(242.282 0 0)
(243.168 0 0)
(244.054 0 0)
(244.937 0 0)
(245.82 0 0)
(246.701 0 0)
(247.581 0 0)
(248.459 0 0)
(249.335 0 0)
(250.209 0 0)
(251.082 0 0)
(251.953 0 0)
(252.822 0 0)
(253.688 0 0)
(254.553 0 0)
(255.415 0 0)
(256.275 0 0)
(257.132 0 0)
(257.987 0 0)
(258.838 0 0)
(259.687 0 0)
(260.532 0 0)
(261.375 0 0)
(262.213 0 0)
(263.048 0 0)
(263.88 0 0)
(264.707 0 0)
(265.53 0 0)
(266.348 0 0)
(267.162 0 0)
(267.97 0 0)
(268.774 0 0)
(269.571 0 0)
(270.363 0 0)
(271.149 0 0)
(271.928 0 0)
(272.7 0 0)
(273.464 0 0)
(274.221 0 0)
(274.97 0 0)
(275.711 0 0)
(276.442 0 0)
(277.164 0 0)
(277.875 0 0)
(278.577 0 0)
(279.267 0 0)
(279.945 0 0)
(280.611 0 0)
(281.264 0 0)
(281.904 0 0)
(282.53 0 0)
(283.141 0 0)
(283.737 0 0)
(284.317 0 0)
(284.88 0 0)
(285.426 0 0)
(285.954 0 0)
(286.463 0 0)
(286.954 0 0)
(287.425 0 0)
(287.877 0 0)
(288.308 0 0)
(288.719 0 0)
(289.108 0 0)
(289.477 0 0)
(289.824 0 0)
(290.15 0 0)
(290.455 0 0)
(290.739 0 0)
(291.003 0 0)
(291.246 0 0)
(291.47 0 0)
(291.674 0 0)
(291.861 0 0)
(292.029 0 0)
(292.181 0 0)
(292.318 0 0)
(292.439 0 0)
(292.547 0 0)
(292.641 0 0)
(292.725 0 0)
(292.797 0 0)
(292.86 0 0)
(292.914 0 0)
(292.96 0 0)
(293 0 0)
(293.034 0 0)
(293.062 0 0)
(293.086 0 0)
(293.105 0 0)
(293.122 0 0)
(293.135 0 0)
(293.147 0 0)
(293.156 0 0)
(293.164 0 0)
(293.17 0 0)
(293.175 0 0)
(293.179 0 0)
(293.182 0 0)
(293.185 0 0)
(293.187 0 0)
(293.189 0 0)
(293.191 0 0)
(293.192 0 0)
(293.193 0 0)
(293.194 0 0)
(293.195 0 0)
(293.195 0 0)
(293.196 0 0)
(293.196 0 0)
(293.196 0 0)
(293.197 0 0)
(293.197 0 0)
(293.197 0 0)
(293.197 0 0)
(293.197 0 0)
(293.198 0 0)
(293.198 0 0)
(293.198 0 0)
(293.198 0 0)
(293.198 0 0)
(293.198 0 0)
(293.198 0 0)
(293.198 0 0)
(293.198 0 0)
(293.198 0 0)
(293.198 0 0)
(293.198 0 0)
(293.198 0 0)
(293.198 0 0)
(293.199 0 0)
(293.199 0 0)
(293.199 0 0)
(293.199 0 0)
(293.199 0 0)
(293.199 0 0)
(293.199 0 0)
(293.199 0 0)
(293.199 0 0)
(293.199 0 0)
(293.199 0 0)
(293.199 0 0)
(293.199 0 0)
(293.199 0 0)
(293.199 0 0)
(293.199 0 0)
(293.199 0 0)
(293.199 0 0)
(293.199 0 0)
(293.199 0 0)
(293.199 0 0)
(293.199 0 0)
(293.199 0 0)
(293.199 0 0)
(293.199 0 0)
(293.199 0 0)
(293.2 0 0)
(293.2 0 0)
(293.2 0 0)
(293.2 0 0)
(293.2 0 0)
(293.2 0 0)
(293.2 0 0)
(293.2 0 0)
(293.2 0 0)
(293.2 0 0)
(293.2 0 0)
(293.2 0 0)
(293.2 0 0)
(293.2 0 0)
(293.2 0 0)
(293.2 0 0)
(293.2 0 0)
(293.2 0 0)
(293.2 0 0)
(293.201 0 0)
(293.201 0 0)
(293.201 0 0)
(293.201 0 0)
(293.201 0 0)
(293.201 0 0)
(293.201 0 0)
(293.201 0 0)
(293.201 0 0)
(293.201 0 0)
(293.201 0 0)
(293.201 0 0)
(293.201 0 0)
(293.201 0 0)
(293.201 0 0)
(293.201 0 0)
(293.201 0 0)
(293.201 0 0)
(293.201 0 0)
(293.201 0 0)
(293.201 0 0)
(293.201 0 0)
(293.201 0 0)
(293.201 0 0)
(293.201 0 0)
(293.201 0 0)
(293.201 0 0)
(293.201 0 0)
(293.201 0 0)
(293.201 0 0)
(293.201 0 0)
(293.201 0 0)
(293.201 0 0)
(293.201 0 0)
(293.201 0 0)
(293.201 0 0)
(293.201 0 0)
(293.201 0 0)
(293.201 0 0)
(293.201 0 0)
(293.201 0 0)
(293.201 0 0)
(293.201 0 0)
(293.201 0 0)
(293.201 0 0)
(293.201 0 0)
(293.201 0 0)
(293.201 0 0)
(293.201 0 0)
(293.201 0 0)
(293.201 0 0)
(293.201 0 0)
(293.201 0 0)
(293.201 0 0)
(293.201 0 0)
(293.201 0 0)
(293.201 0 0)
(293.201 0 0)
(293.201 0 0)
(293.201 0 0)
(293.201 0 0)
(293.201 0 0)
(293.201 0 0)
(293.201 0 0)
(293.201 0 0)
(293.201 0 0)
(293.201 0 0)
(293.201 0 0)
(293.201 0 0)
(293.201 0 0)
(293.201 0 0)
(293.201 0 0)
(293.201 0 0)
(293.201 0 0)
(293.201 0 0)
(293.201 0 0)
(293.201 0 0)
(293.201 0 0)
(293.201 0 0)
(293.201 0 0)
(293.201 0 0)
(293.201 0 0)
(293.201 0 0)
(293.201 0 0)
(293.201 0 0)
(293.201 0 0)
(293.201 0 0)
(293.201 0 0)
(293.201 0 0)
(293.201 0 0)
(293.201 0 0)
(293.201 0 0)
(293.201 0 0)
(293.201 0 0)
(293.201 0 0)
(293.201 0 0)
(293.201 0 0)
(293.201 0 0)
(293.201 0 0)
(293.201 0 0)
(293.201 0 0)
(293.201 0 0)
(293.201 0 0)
(293.201 0 0)
(293.201 0 0)
(293.201 0 0)
(293.201 0 0)
(293.201 0 0)
(293.201 0 0)
(293.201 0 0)
(293.201 0 0)
(293.201 0 0)
(293.201 0 0)
(293.201 0 0)
(293.201 0 0)
(293.201 0 0)
(293.201 0 0)
(293.201 0 0)
(293.201 0 0)
(293.201 0 0)
(293.201 0 0)
(293.201 0 0)
(293.201 0 0)
(293.201 0 0)
(293.201 0 0)
(293.201 0 0)
(293.201 0 0)
(293.201 0 0)
(293.201 0 0)
(293.201 0 0)
(293.201 0 0)
(293.201 0 0)
(293.201 0 0)
(293.201 0 0)
(293.201 0 0)
(293.201 0 0)
(293.201 0 0)
(293.201 0 0)
(293.201 0 0)
(293.201 0 0)
(293.201 0 0)
(293.201 0 0)
(293.201 0 0)
(293.2 0 0)
(293.2 0 0)
(293.2 0 0)
(293.199 0 0)
(293.199 0 0)
(293.198 0 0)
(293.196 0 0)
(293.195 0 0)
(293.193 0 0)
(293.191 0 0)
(293.189 0 0)
(293.187 0 0)
(293.184 0 0)
(293.182 0 0)
(293.181 0 0)
(293.179 0 0)
(293.178 0 0)
(293.178 0 0)
(293.178 0 0)
(293.179 0 0)
(293.18 0 0)
(293.181 0 0)
(293.183 0 0)
(293.185 0 0)
(293.187 0 0)
(293.189 0 0)
(293.191 0 0)
(293.193 0 0)
(293.194 0 0)
(293.195 0 0)
(293.196 0 0)
(293.197 0 0)
(293.198 0 0)
(293.198 0 0)
(293.199 0 0)
(293.199 0 0)
(293.199 0 0)
(293.199 0 0)
(293.2 0 0)
(293.2 0 0)
(293.2 0 0)
(293.2 0 0)
(293.199 0 0)
(293.199 0 0)
(293.199 0 0)
(293.199 0 0)
(293.199 0 0)
(293.199 0 0)
(293.199 0 0)
(293.199 0 0)
(293.199 0 0)
(293.199 0 0)
(293.199 0 0)
(293.199 0 0)
(293.199 0 0)
(293.199 0 0)
(293.199 0 0)
(293.199 0 0)
(293.199 0 0)
(293.199 0 0)
(293.199 0 0)
(293.199 0 0)
(293.199 0 0)
(293.199 0 0)
(293.199 0 0)
(293.199 0 0)
(293.199 0 0)
(293.199 0 0)
(293.199 0 0)
(293.199 0 0)
(293.199 0 0)
(293.199 0 0)
(293.199 0 0)
(293.199 0 0)
(293.198 0 0)
(293.198 0 0)
(293.198 0 0)
(293.198 0 0)
(293.198 0 0)
(293.198 0 0)
(293.198 0 0)
(293.198 0 0)
(293.198 0 0)
(293.198 0 0)
(293.198 0 0)
(293.198 0 0)
(293.198 0 0)
(293.198 0 0)
(293.198 0 0)
(293.198 0 0)
(293.198 0 0)
(293.198 0 0)
(293.198 0 0)
(293.198 0 0)
(293.198 0 0)
(293.198 0 0)
(293.198 0 0)
(293.197 0 0)
(293.197 0 0)
(293.197 0 0)
(293.197 0 0)
(293.197 0 0)
(293.197 0 0)
(293.197 0 0)
(293.197 0 0)
(293.197 0 0)
(293.197 0 0)
(293.197 0 0)
(293.197 0 0)
(293.197 0 0)
(293.197 0 0)
(293.197 0 0)
(293.197 0 0)
(293.197 0 0)
(293.197 0 0)
(293.196 0 0)
(293.196 0 0)
(293.196 0 0)
(293.196 0 0)
(293.196 0 0)
(293.196 0 0)
(293.196 0 0)
(293.196 0 0)
(293.196 0 0)
(293.196 0 0)
(293.196 0 0)
(293.196 0 0)
(293.196 0 0)
(293.196 0 0)
(293.196 0 0)
(293.196 0 0)
(293.196 0 0)
(293.195 0 0)
(293.195 0 0)
(293.195 0 0)
(293.195 0 0)
(293.195 0 0)
(293.195 0 0)
(293.195 0 0)
(293.195 0 0)
(293.195 0 0)
(293.196 0 0)
(293.196 0 0)
(293.196 0 0)
(293.195 0 0)
(293.195 0 0)
(293.195 0 0)
(293.195 0 0)
(293.195 0 0)
(293.194 0 0)
(293.194 0 0)
(293.194 0 0)
(293.194 0 0)
(293.193 0 0)
(293.193 0 0)
(293.193 0 0)
(293.193 0 0)
(293.193 0 0)
(293.194 0 0)
(293.194 0 0)
(293.194 0 0)
(293.194 0 0)
(293.194 0 0)
(293.194 0 0)
(293.193 0 0)
(293.193 0 0)
(293.193 0 0)
(293.192 0 0)
(293.192 0 0)
(293.192 0 0)
(293.191 0 0)
(293.191 0 0)
(293.191 0 0)
(293.191 0 0)
(293.191 0 0)
(293.191 0 0)
(293.192 0 0)
(293.192 0 0)
(293.192 0 0)
(293.192 0 0)
(293.192 0 0)
(293.192 0 0)
(293.191 0 0)
(293.191 0 0)
(293.19 0 0)
(293.19 0 0)
(293.189 0 0)
(293.189 0 0)
(293.189 0 0)
(293.188 0 0)
(293.188 0 0)
(293.188 0 0)
(293.189 0 0)
(293.189 0 0)
(293.19 0 0)
(293.19 0 0)
(293.19 0 0)
(293.19 0 0)
(293.19 0 0)
(293.19 0 0)
(293.189 0 0)
(293.188 0 0)
(293.188 0 0)
(293.187 0 0)
(293.186 0 0)
(293.186 0 0)
(293.185 0 0)
(293.185 0 0)
(293.185 0 0)
(293.185 0 0)
(293.186 0 0)
(293.186 0 0)
(293.187 0 0)
(293.187 0 0)
(293.188 0 0)
(293.188 0 0)
(293.188 0 0)
(293.187 0 0)
(293.187 0 0)
(293.186 0 0)
(293.184 0 0)
(293.183 0 0)
(293.181 0 0)
(293.18 0 0)
(293.18 0 0)
(293.18 0 0)
(293.18 0 0)
(293.182 0 0)
(293.183 0 0)
(293.183 0 0)
(293.183 0 0)
(293.183 0 0)
(293.182 0 0)
(293.181 0 0)
(293.18 0 0)
(293.179 0 0)
(293.176 0 0)
(293.171 0 0)
(293.163 0 0)
(293.145 0 0)
(293.119 0 0)
(293.072 0 0)
(293.013 0 0)
(292.874 0 0)
(292.759 0 0)
(292.38 0 0)
(291.872 0 0)
(290.35 0 0)
(287.071 0 0)
(279.669 0 0)
(262.162 0 0)
(224.566 0 0)
(160.578 0 0)
(87.452 0 0)
(27.7447 0 0)
)
;

boundaryField
{
    sides
    {
        type            zeroGradient;
    }
    empty
    {
        type            empty;
    }
}


// ************************************************************************* //
