/*--------------------------------*- C++ -*----------------------------------*\
| =========                 |                                                 |
| \\      /  F ield         | OpenFOAM: The Open Source CFD Toolbox           |
|  \\    /   O peration     | Version:  3.0.0                                 |
|   \\  /    A nd           | Web:      www.OpenFOAM.org                      |
|    \\/     M anipulation  |                                                 |
\*---------------------------------------------------------------------------*/
FoamFile
{
    version     2.0;
    format      ascii;
    class       surfaceScalarField;
    location    "4.25";
    object      phi;
}
// * * * * * * * * * * * * * * * * * * * * * * * * * * * * * * * * * * * * * //

dimensions      [0 3 -1 0 0 0 0];

internalField   nonuniform List<scalar> 
11520
(
9.0905e-05
-0.000672447
0.000327855
0.000162946
-0.00064091
0.000324097
0.000187088
-0.000520861
0.000269719
0.000156828
-0.000313086
0.000161114
7.73724e-05
-4.14565e-05
1.08559e-05
-3.25721e-05
0.00023699
-0.000144142
-0.00015114
0.000451327
-0.000262633
-0.000260082
0.000553877
-0.000323544
-0.000346655
0.00053908
-0.000327515
-0.000400747
0.000429695
-0.000284132
-0.000415381
0.000258004
-0.000204364
-0.00038832
5.51588e-05
-0.000100365
-0.000324406
-0.000151667
1.518e-05
-0.000232154
-0.000341474
0.000126591
-0.000124817
-0.000497467
0.000221566
-0.000604802
0.000289641
2.66524e-05
-0.000707298
0.000235077
7.2982e-05
-0.000655121
0.000227854
8.12042e-05
-0.000513279
0.000187202
5.08837e-05
-0.000284949
0.00010617
-1.55597e-05
4.90122e-06
-1.28634e-05
-0.000111309
0.000296557
-0.000147051
-0.000223327
0.000517938
-0.000260847
-0.000330801
0.000616137
-0.000325209
-0.000412153
0.000585176
-0.000331432
-0.000453267
0.000452598
-0.000286389
-0.000450092
0.000256796
-0.000204489
-0.000407019
3.37095e-05
-0.000103019
-0.000333339
-0.000187614
9.95267e-07
-0.000240814
-0.000385374
9.29668e-05
-0.000143012
-0.000542756
0.000164342
-0.000643521
0.000210109
-2.84147e-05
-0.000714616
0.000134832
-4.71621e-08
-0.00064735
0.000127419
-3.5383e-06
-0.000491569
0.000101808
-3.70848e-05
-0.000251658
4.84221e-05
-9.57103e-05
4.59861e-05
-3.69242e-05
-0.000174572
0.000344983
-0.000142764
-0.000264816
0.000571342
-0.000239256
-0.000351102
0.000668245
-0.000296107
-0.000415065
0.000626693
-0.000299618
-0.000444107
0.000477445
-0.000255304
-0.000435104
0.000264568
-0.00017956
-0.000392541
2.78922e-05
-9.18237e-05
-0.000325256
-0.000202466
-9.15105e-06
-0.000243845
-0.000404683
5.6092e-05
-0.000160497
-0.000561902
0.000100047
-0.000656432
0.000123452
-7.13666e-05
-0.00069579
3.32729e-05
-5.90795e-05
-0.000621405
2.67833e-05
-7.13384e-05
-0.000460364
1.69891e-05
-0.000103233
-0.000218661
-7.8048e-06
-0.00014927
7.68136e-05
-5.61411e-05
-0.000204214
0.000374032
-0.000125287
-0.000264435
0.000601943
-0.000194815
-0.000322522
0.000701528
-0.000237211
-0.000366453
0.0006588
-0.000236159
-0.000385974
0.000503973
-0.000194984
-0.000377358
0.000284215
-0.000130278
-0.000343254
4.18574e-05
-6.21013e-05
-0.00028998
-0.000192192
-6.73206e-06
-0.000226312
-0.00039634
2.69195e-05
-0.000162402
-0.000553224
3.97826e-05
-0.000644054
3.91093e-05
-9.55076e-05
-0.000651392
-5.77005e-05
-9.75592e-05
-0.000579153
-6.34698e-05
-0.00011514
-0.000423997
-5.89476e-05
-0.000141544
-0.000192552
-5.61154e-05
-0.000169952
9.0093e-05
-6.69253e-05
-0.000196845
0.000376881
-9.50938e-05
-0.000223574
0.00060329
-0.000130611
-0.000251208
0.000710616
-0.00015298
-0.000275004
0.000678083
-0.000145877
-0.000287076
0.000530576
-0.000109549
-0.000282464
0.000315394
-5.89305e-05
-0.000261
7.60328e-05
-1.33533e-05
-0.000226303
-0.000156114
1.19382e-05
-0.000184628
-0.000359399
1.18308e-05
-0.000143617
-0.000515842
-7.82901e-06
-0.000606316
-3.35443e-05
-9.40132e-05
-0.000585939
-0.000127081
-0.000107494
-0.000525744
-0.000133863
-0.000127037
-0.000387022
-0.000118492
-0.00014551
-0.000176982
-9.31828e-05
-0.000155988
8.24143e-05
-7.09224e-05
-0.000156162
0.000350736
-5.98804e-05
-0.000150897
0.000571786
-5.88122e-05
-0.000148396
0.000690182
-5.66478e-05
-0.00015197
0.000678892
-4.07451e-05
-0.000157053
0.000552999
-9.2567e-06
-0.000158094
0.000354585
2.68825e-05
-0.000151407
0.000127631
4.95049e-05
-0.000137566
-9.64538e-05
4.56997e-05
-0.000119772
-0.000295818
1.3308e-05
-0.000102674
-0.000451899
-3.6908e-05
-0.00054592
-8.61376e-05
-6.34357e-05
-0.000507045
-0.000165736
-8.34865e-05
-0.000466905
-0.000175765
-0.000102026
-0.000353737
-0.000155361
-0.000112389
-0.000173894
-0.000116525
-0.000108417
5.46349e-05
-7.18417e-05
-8.85448e-05
0.000298308
-3.09171e-05
-5.87332e-05
0.000509843
1.62313e-06
-3.10318e-05
0.000639372
2.96396e-05
-1.58335e-05
0.000655364
5.77083e-05
-1.31098e-05
0.000562323
8.80172e-05
-1.84272e-05
0.000393968
0.000112366
-2.56554e-05
0.000189772
0.000116159
-3.18078e-05
-1.93802e-05
8.8485e-05
-3.65599e-05
-0.000211635
3.01302e-05
-4.10789e-05
-0.00036761
-4.45365e-05
-0.000469505
-0.00011355
-4.90349e-06
-0.000425962
-0.000168067
-2.60298e-05
-0.000410452
-0.000183195
-4.07036e-05
-0.000328229
-0.000164529
-4.41225e-05
-0.000182831
-0.000123711
-3.15628e-05
1.1698e-05
-7.16405e-05
-1.73477e-06
0.000227918
-1.66239e-05
4.0198e-05
0.000426071
3.56973e-05
8.21707e-05
0.000562823
8.24893e-05
0.000111061
0.000606534
0.000123624
0.000120679
0.000552562
0.000157672
0.000113801
0.000423217
0.000177463
9.70499e-05
0.000250874
0.000171248
7.62752e-05
6.32667e-05
0.000130233
5.46818e-05
-0.000118114
5.73681e-05
3.46689e-05
-0.000273933
-3.09613e-05
-0.00038692
-0.000111773
7.2254e-05
-0.000355125
-0.000133135
5.69453e-05
-0.000365608
-0.000153408
4.91152e-05
-0.000314226
-0.000142406
5.10654e-05
-0.000201645
-0.000111417
6.56238e-05
-3.85441e-05
-6.83555e-05
9.40731e-05
0.000151881
-1.76379e-05
0.000133218
0.000335787
3.69891e-05
0.000174117
0.00047552
9.12679e-05
0.000204883
0.000541288
0.000140985
0.000217243
0.000523332
0.000181172
0.000210934
0.000434158
0.000203915
0.000191491
0.000297388
0.000198853
0.000165357
0.000135569
0.000158847
0.000137522
-3.18907e-05
8.72797e-05
0.000112384
-0.000186611
4.60968e-07
-0.000311709
-8.00049e-05
0.000154365
-0.000307493
-6.58465e-05
0.000150801
-0.000340551
-8.81417e-05
0.000152361
-0.000314524
-8.86246e-05
0.000158232
-0.000227401
-7.72934e-05
0.000169074
-8.78222e-05
-5.78263e-05
0.000186047
8.32123e-05
-2.85832e-05
0.000208729
0.000255287
1.16214e-05
0.000232999
0.000394927
5.99288e-05
0.00025147
0.000474938
0.000110326
0.000257618
0.000483479
0.000155129
0.000250377
0.00042642
0.000185174
0.000233768
0.00032006
0.000190718
0.000213051
0.00018193
0.000165491
0.000192359
2.8465e-05
0.000112242
0.00017549
-0.00012384
4.40674e-05
-0.000258652
-2.11846e-05
0.000223841
-0.000292363
2.37595e-05
0.000236867
-0.000341288
4.75527e-06
0.000249511
-0.000330664
-8.51902e-06
0.000258169
-0.000257163
-2.32532e-05
0.000261077
-0.000129052
-3.80144e-05
0.000259123
3.26732e-05
-4.33017e-05
0.000254947
0.000198329
-3.06185e-05
0.000250306
0.000336617
7.28534e-07
0.000244389
0.000422919
4.4109e-05
0.000235357
0.000445309
9.01943e-05
0.000223792
0.000406133
0.000128838
0.000212906
0.000317233
0.000150887
0.000205858
0.00019341
0.00015068
0.000204036
4.93757e-05
0.000128974
0.000207775
-0.000100116
9.3891e-05
-0.000239561
5.71024e-05
0.000266674
-0.000312402
0.000121903
0.000298608
-0.000367475
0.000109548
0.00032244
-0.000360364
8.47788e-05
0.000332298
-0.000287707
4.23662e-05
0.000324396
-0.000157426
-1.14417e-05
0.000299037
7.1673e-06
-5.86736e-05
0.000261915
0.000173688
-8.12429e-05
0.000221474
0.000310726
-7.36844e-05
0.00018469
0.000395693
-4.19829e-05
0.000155874
0.000418133
3.31689e-06
0.000138443
0.000380096
5.0903e-05
0.000135215
0.000292515
9.29042e-05
0.000146572
0.000170006
0.000123229
0.000170162
2.78194e-05
0.000139799
0.0002015
-0.000119721
0.000144827
-0.000258178
0.000143036
0.000277554
-0.000362603
0.000213341
0.000326829
-0.000413661
0.000208601
0.000359217
-0.000398756
0.000174049
0.000367846
-0.000315017
0.000106326
0.000346812
-0.000170005
1.48333e-05
0.000296373
9.27112e-06
-7.4935e-05
0.000224853
0.000184313
-0.000134618
0.00014785
0.000320278
-0.000152601
8.05719e-05
0.000396386
-0.000133864
3.37199e-05
0.000405587
-8.99184e-05
1.31062e-05
0.000352665
-3.16276e-05
2.01137e-05
0.000251071
3.21678e-05
5.19331e-05
0.000118164
9.40735e-05
0.000102016
-2.90042e-05
0.000148323
0.000161266
-0.000175445
0.000191341
-0.000308466
0.000221975
0.00025893
-0.000432594
0.000282874
0.00032071
-0.000470493
0.000283115
0.000356866
-0.000438764
0.000241332
0.000360522
-0.000334964
0.000154662
0.000324459
-0.000166092
3.25367e-05
0.000249827
3.78576e-05
-9.37138e-05
0.000146478
0.000228538
-0.000187242
3.72354e-05
0.000363411
-0.000228829
-5.4299e-05
0.000422797
-0.000221429
-0.000112065
0.000405813
-0.000176745
-0.000129678
0.000324372
-0.000106412
-0.000108783
0.000197826
-2.09702e-05
-5.64654e-05
4.74156e-05
6.91577e-05
1.68066e-05
-0.000108013
0.000154078
9.9661e-05
-0.000253872
0.000225582
-0.000378393
0.000278937
0.000217502
-0.000513373
0.000318555
0.000286005
-0.000530963
0.000320489
0.000320519
-0.000474906
0.000274978
0.000314234
-0.000343401
0.000178168
0.00026161
-0.000143763
3.70166e-05
0.000163902
9.12577e-05
-0.000117069
3.40466e-05
0.000302095
-0.000239907
-9.90881e-05
0.000434817
-0.000302751
-0.000203852
0.000468198
-0.000302987
-0.000261385
0.000412857
-0.000252767
-0.000268329
0.000293731
-0.000167603
-0.000231291
0.00013772
-6.26556e-05
-0.000161149
-3.17095e-05
4.78365e-05
-7.0137e-05
-0.000196086
0.000151537
2.8595e-05
-0.000341368
0.000238583
-0.000457104
0.000302513
0.000160958
0.000304542
0.00023264
0.000307653
0.000263217
0.000266902
0.000242442
0.00017365
0.00016583
2.68218e-05
4.34603e-05
-0.000146807
-0.000103067
-0.000296026
-0.000240982
-0.000376569
-0.000340729
-0.000377092
-0.000387177
-0.000313687
-0.000380669
-0.000211115
-0.000330656
-9.17354e-05
-0.000249346
2.68007e-05
-0.000149133
0.000132769
-4.26197e-05
0.00021845
0.000279333
0.000177344
-0.000695769
0.000273186
0.00026011
-0.000636489
0.000286253
0.000286828
-0.00047859
0.00025283
0.000251759
-0.000234775
0.000169427
0.000162714
5.41797e-05
4.6695e-05
3.96936e-05
0.000319722
-8.3339e-05
-9.37913e-05
0.000496818
-0.000186071
-0.000218569
0.000557329
-0.000245304
-0.000320058
0.000509886
-0.000260827
-0.000386265
0.00037999
-0.000237732
-0.000408519
0.000196126
-0.000182251
-0.00038157
-1.54672e-05
-0.00010249
-0.00031039
-0.000227713
-1.01705e-05
-0.000203317
-0.000419978
8.37681e-05
-7.61868e-05
-0.000571963
0.000168405
-0.000668209
0.000234844
0.000102467
-0.000722649
0.000168909
0.000156405
-0.000643359
0.000180786
0.000169795
-0.00046905
0.000164272
0.000141852
-0.000211424
0.000110762
7.30139e-05
9.11854e-05
1.89693e-05
-3.18304e-05
0.000370585
-9.30692e-05
-0.000158155
0.00055608
-0.000193784
-0.000281329
0.000612847
-0.000257554
-0.000377232
0.000549685
-0.000275328
-0.000430039
0.000397065
-0.000250658
-0.000433662
0.000189178
-0.000193919
-0.000391049
-4.23004e-05
-0.000118798
-0.000310215
-0.000268805
-3.87476e-05
-0.000205585
-0.000466524
3.48826e-05
-9.31302e-05
-0.000615602
9.55259e-05
-0.000700444
0.000139794
3.76802e-05
-0.000723301
6.60117e-05
7.21216e-05
-0.000628956
7.8575e-05
7.34747e-05
-0.000445917
7.73218e-05
4.43838e-05
-0.000184227
5.03158e-05
-1.27807e-05
0.000121647
-1.02212e-05
-9.70255e-05
0.000408091
-9.6025e-05
-0.000199655
0.000601306
-0.000181852
-0.000302177
0.000658586
-0.000239325
-0.000382294
0.00058495
-0.000254766
-0.000424225
0.000414608
-0.000230916
-0.000422292
0.000187975
-0.000180289
-0.000379583
-5.82923e-05
-0.000118541
-0.000304883
-0.000293297
-5.93589e-05
-0.000211764
-0.000492165
-1.1385e-05
-0.000115341
-0.00063538
2.34021e-05
-0.00070772
4.71791e-05
-1.79608e-05
-0.000699971
-3.62821e-05
-5.94991e-07
-0.000597402
-2.21367e-05
-8.23223e-06
-0.000413563
-7.72769e-06
-3.58697e-05
-0.000156979
-7.41506e-06
-7.93793e-05
0.000142439
-3.3424e-05
-0.000137902
0.00042721
-8.58834e-05
-0.000209839
0.000625733
-0.000147305
-0.0002851
0.000688309
-0.000191674
-0.000346609
0.000612922
-0.000202622
-0.000379708
0.000434013
-0.00018129
-0.000377857
0.000196678
-0.000140832
-0.000342533
-5.80493e-05
-9.76678e-05
-0.000281068
-0.000296789
-6.47053e-05
-0.000205108
-0.000493935
-4.72713e-05
-0.000128223
-0.000630367
-4.21151e-05
-0.000691864
-4.07841e-05
-5.79273e-05
-0.000654223
-0.000127864
-5.48472e-05
-0.000551815
-0.000112137
-6.81641e-05
-0.000376249
-8.29442e-05
-9.09212e-05
-0.000134421
-5.59173e-05
-0.000117864
0.000148764
-4.6307e-05
-0.000149036
0.000424093
-6.08042e-05
-0.000188182
0.000625467
-9.11988e-05
-0.000234123
0.000698671
-0.0001174
-0.00027646
0.000631882
-0.000122501
-0.000302261
0.000455387
-0.000105123
-0.000303669
0.000216662
-7.75062e-05
-0.000279864
-3.92923e-05
-5.59156e-05
-0.00023587
-0.000276896
-5.19491e-05
-0.000180783
-0.000469822
-6.73694e-05
-0.000125975
-0.000599509
-9.34944e-05
-0.000653434
-0.000115606
-7.42833e-05
-0.000590442
-0.000197572
-8.13541e-05
-0.000497245
-0.000181363
-9.68201e-05
-0.000338885
-0.00014039
-0.000113036
-0.000120694
-9.06938e-05
-0.000124135
0.000137812
-4.88723e-05
-0.000130266
0.000396333
-2.59885e-05
-0.000138421
0.000597019
-2.22097e-05
-0.000155103
0.000684659
-2.59543e-05
-0.000177956
0.000637164
-2.31744e-05
-0.000197396
0.000475744
-1.01726e-05
-0.000204088
0.000246887
3.34932e-06
-0.000194511
-2.03382e-06
2.66914e-06
-0.000170484
-0.000233374
-2.18488e-05
-0.000138015
-0.000419965
-6.9018e-05
-0.000105669
-0.000544018
-0.000124745
-0.000595005
-0.000169242
-6.13551e-05
-0.000515801
-0.000236017
-7.30497e-05
-0.000439791
-0.000221523
-8.71958e-05
-0.000306073
-0.000174027
-9.66793e-05
-0.000118144
-0.000109591
-9.55633e-05
0.000109557
-4.47021e-05
-8.32036e-05
0.000345087
7.96916e-06
-6.72231e-05
0.000539881
4.27805e-05
-5.84661e-05
0.000642426
6.31162e-05
-6.27675e-05
0.00062238
7.67944e-05
-7.57503e-05
0.000489102
8.76416e-05
-8.82881e-05
0.000282699
8.90906e-05
-9.36094e-05
5.03405e-05
6.91056e-05
-8.96464e-05
-0.000169176
2.03241e-05
-7.89578e-05
-0.000347852
-5.26721e-05
-6.65998e-05
-0.000468463
-0.00013245
-0.000522428
-0.000195732
-1.79928e-05
-0.000439895
-0.00023684
-2.78683e-05
-0.000386389
-0.000226722
-3.72314e-05
-0.000281654
-0.000179585
-4.0798e-05
-0.000126778
-0.000111511
-3.31544e-05
6.78772e-05
-3.76047e-05
-1.23851e-05
0.000277078
3.06155e-05
1.6235e-05
0.000461037
8.59214e-05
4.08754e-05
0.000574276
0.000125999
5.06417e-05
0.000583807
0.000152431
4.3706e-05
0.000487688
0.000166022
2.69413e-05
0.000315361
0.000161566
9.38953e-06
0.000109222
0.000129918
-3.5979e-06
-9.23905e-05
6.6435e-05
-1.02555e-05
-0.000261847
-2.19792e-05
-1.20393e-05
-0.000381646
-0.000115994
-0.000444316
-0.000191064
5.04219e-05
-0.000373605
-0.000198081
4.92234e-05
-0.000344538
-0.000194059
4.80077e-05
-0.000268492
-0.000154352
4.89997e-05
-0.000144277
-9.49099e-05
5.65142e-05
2.02165e-05
-2.82093e-05
7.40464e-05
0.000204118
3.77903e-05
0.000100049
0.000374334
9.76892e-05
0.000125873
0.000492313
0.000147407
0.000139961
0.000526668
0.000184037
0.000136103
0.000468396
0.000204323
0.000117519
0.000335676
0.000202184
9.30736e-05
0.000162388
0.000170133
7.10006e-05
-1.68713e-05
0.000105401
5.60561e-05
-0.000175976
1.63531e-05
4.95832e-05
-0.000296964
-7.7748e-05
-0.000372516
-0.000153988
0.000131923
-0.000328361
-0.000123704
0.000145791
-0.000321378
-0.00012517
0.000155556
-0.000268535
-9.83466e-05
0.000159599
-0.000167057
-5.85564e-05
0.000160609
-2.43885e-05
-1.42304e-05
0.000163722
0.000139972
3.24498e-05
0.000171935
0.000297184
8.05588e-05
0.000182343
0.000414694
0.00012714
0.000187057
0.000465086
0.000167193
0.000179503
0.000436811
0.000194269
0.000160182
0.000339563
0.000200607
0.000136056
0.000198079
0.000179153
0.000115665
4.08373e-05
0.000128173
0.000104611
-0.000107828
5.51487e-05
0.000105735
-0.000231047
-2.29738e-05
-0.000320224
-8.70508e-05
0.000210152
-0.000313183
-2.45026e-05
0.000243643
-0.000322192
-2.79211e-05
0.000266103
-0.000282717
-1.67962e-05
0.000271885
-0.000191737
-4.35539e-06
0.000261625
-5.83426e-05
6.19985e-06
0.000241658
9.63603e-05
2.0276e-05
0.00022002
0.000244708
4.34959e-05
0.000201033
0.000358658
7.5751e-05
0.000183381
0.000415365
0.000111482
0.000163985
0.000403974
0.000142426
0.000142977
0.000329663
0.000159747
0.000125108
0.00021023
0.000156606
0.000116654
6.88079e-05
0.000131164
0.00012211
-7.29256e-05
8.86153e-05
0.000142965
-0.000198844
4.0833e-05
-0.000299238
2.01258e-06
0.000269707
-0.000331816
8.32264e-05
0.000323756
-0.000348847
8.21533e-05
0.000358587
-0.000310696
7.79268e-05
0.000364949
-0.000215986
6.02523e-05
0.000340888
-7.70785e-05
3.13552e-05
0.000293099
8.01952e-05
5.28057e-06
0.00023481
0.000226002
-4.24791e-06
0.000178377
0.000334908
6.499e-06
0.000130685
0.000388814
3.22598e-05
9.43416e-05
0.000379637
6.39969e-05
7.07979e-05
0.000311448
9.26611e-05
6.30521e-05
0.00019907
0.00011181
7.39328e-05
6.25685e-05
0.000118588
0.000104479
-7.81489e-05
0.000114476
0.000152589
-0.000207286
0.00010516
-0.00031429
9.82805e-05
0.000300803
-0.000380592
0.000180793
0.000372353
-0.00039673
0.000184933
0.00041646
-0.00034886
0.000168106
0.000421657
-0.000237805
0.000122948
0.000383186
-7.94624e-05
5.56883e-05
0.000307138
9.28299e-05
-1.15216e-05
0.000211479
0.000243061
-5.60171e-05
0.000116993
0.000346081
-6.92872e-05
3.91202e-05
0.000388669
-5.58454e-05
-1.38149e-05
0.000367455
-2.48006e-05
-3.81988e-05
0.000288948
1.52568e-05
-3.30363e-05
0.000168415
5.76606e-05
4.69477e-07
2.56138e-05
9.75225e-05
5.87365e-05
-0.000119972
0.00013188
0.000135059
-0.000252592
0.000160325
-0.000361532
0.000184795
0.00030138
-0.000450069
0.000251488
0.000383862
-0.000456928
0.000260831
0.000431734
-0.000391018
0.000235618
0.000433182
-0.000254981
0.00017039
0.000381155
-6.73017e-05
7.24033e-05
0.000280351
0.00013065
-3.0731e-05
0.000151737
0.000292186
-0.000107753
2.44347e-05
0.000388725
-0.000144172
-7.76529e-05
0.000411874
-0.000142546
-0.000141087
0.000365725
-0.000111581
-0.000161684
0.000263102
-5.99688e-05
-0.000141243
0.000122872
4.13134e-06
-8.53142e-05
-3.39404e-05
7.27832e-05
-2.15996e-06
-0.000187773
0.000138724
9.75174e-05
-0.000323323
0.000196635
-0.000430031
0.000244438
0.000275202
-0.000531013
0.000285689
0.00036137
-0.000520964
0.000298357
0.000406622
-0.000430604
0.000269313
0.000400304
-0.000264219
0.000193724
0.000335403
-4.21999e-05
7.6816e-05
0.000215116
0.000187297
-5.3429e-05
6.15777e-05
0.000364798
-0.00015898
-8.89402e-05
0.000453064
-0.000216571
-0.000204425
0.000448283
-0.000223911
-0.000268688
0.000366974
-0.000189752
-0.000279682
0.00023219
-0.000125697
-0.000243334
6.74295e-05
-4.35615e-05
-0.00016882
-0.000106154
4.55364e-05
-6.74683e-05
-0.000269292
0.000131705
4.76034e-05
-0.000407059
0.000207248
-0.000508936
0.000267629
0.000227158
0.000278143
0.000312737
0.000292677
0.000352045
0.000265752
0.000332505
0.000190501
0.000249546
6.6608e-05
0.000113614
-8.10829e-05
-4.90191e-05
-0.000208491
-0.000202239
-0.000281078
-0.000315097
-0.000291035
-0.000372251
-0.000249741
-0.000372785
-0.000174377
-0.000325191
-8.12561e-05
-0.000239403
1.67427e-05
-0.000129233
0.000109035
-8.26282e-06
0.000188415
0.000250275
0.00025289
-0.00058738
0.000208599
0.000338462
-0.000513921
0.000238465
0.000366455
-0.000350864
0.000229781
0.000330244
-0.000113539
0.00017829
0.000236587
0.000154243
9.0616e-05
0.00010568
0.000382889
-1.03108e-05
-3.78802e-05
0.000514189
-9.85581e-05
-0.000172803
0.000531967
-0.000160545
-0.000282108
0.000454032
-0.000192238
-0.000352283
0.000309304
-0.00019275
-0.000373879
0.00012561
-0.000163748
-0.000343195
-7.22188e-05
-0.000110559
-0.000264235
-0.000261804
-4.19932e-05
-0.000147669
-0.00042344
3.28099e-05
-1.09034e-05
-0.000541245
0.000105592
-0.000605508
0.000169064
0.000175562
-0.000616659
0.000102074
0.000233973
-0.000524052
0.000132507
0.000252777
-0.000346608
0.000141212
0.000229309
-9.78719e-05
0.000118563
0.000160966
0.000182613
5.89426e-05
5.07789e-05
0.000426671
-2.66635e-05
-8.40121e-05
0.000568662
-0.000113467
-0.000215606
0.000584488
-0.000178481
-0.000318352
0.000491803
-0.000210353
-0.000375991
0.000324534
-0.000208251
-0.000382158
0.000116333
-0.000178475
-0.000338907
-0.000102971
-0.000131298
-0.000255153
-0.00030719
-7.71156e-05
-0.000145602
-0.000474448
-2.3661e-05
-2.79096e-05
-0.000588476
2.50643e-05
-0.000640067
6.69947e-05
0.000103914
-0.000621325
-4.53553e-07
0.00014184
-0.000513541
3.01373e-05
0.000149432
-0.000329403
5.25251e-05
0.000128117
-7.99269e-05
5.36856e-05
7.64174e-05
0.000201542
2.25494e-05
-7.25995e-06
0.000452823
-3.84997e-05
-0.000115252
0.000604848
-0.000110045
-0.00022603
0.000623111
-0.000167171
-0.000314718
0.000520689
-0.000194964
-0.000363891
0.000335255
-0.000192463
-0.000366635
0.000107
-0.000168213
-0.000325264
-0.000128632
-0.000134251
-0.000249184
-0.000341802
-0.000100827
-0.000153026
-0.000509052
-7.29376e-05
-5.36195e-05
-0.000614654
-4.98266e-05
-0.000651077
-2.82123e-05
3.43762e-05
-0.000603107
-0.000102181
5.49817e-05
-0.000485544
-7.07393e-05
5.4022e-05
-0.000301921
-3.42501e-05
3.58671e-05
-6.06292e-05
-8.55788e-06
1.24536e-06
0.000211228
-8.48857e-06
-5.33553e-05
0.000459851
-3.83111e-05
-0.000128209
0.000618156
-8.5759e-05
-0.000211555
0.000643026
-0.000128243
-0.000283023
0.000538901
-0.000149366
-0.000325107
0.000343469
-0.000147419
-0.000329327
0.000102312
-0.000131924
-0.000296446
-0.000143481
-0.0001157
-0.000234538
-0.000360325
-0.00010809
-0.000156792
-0.000523426
-0.000110644
-7.83846e-05
-0.000618164
-0.000117012
-0.000639487
-0.000117455
-2.57924e-05
-0.000563242
-0.000194312
-1.90527e-05
-0.000443289
-0.000161131
-2.52069e-05
-0.000268192
-0.000110519
-3.80597e-05
-4.35927e-05
-6.0101e-05
-5.53968e-05
0.000209632
-2.73743e-05
-8.13804e-05
0.000447115
-2.20844e-05
-0.000122354
0.000607703
-3.97723e-05
-0.000176162
0.000642744
-6.331e-05
-0.000228949
0.000545744
-7.65576e-05
-0.000264386
0.000350169
-7.63857e-05
-0.00027246
0.000104931
-7.20514e-05
-0.000251693
-0.000143709
-7.64541e-05
-0.000207848
-0.00035868
-9.74399e-05
-0.000151728
-0.000514128
-0.000132787
-9.60863e-05
-0.000597097
-0.000170204
-0.000605564
-0.00019324
-6.67747e-05
-0.000505447
-0.000265774
-6.91876e-05
-0.000391624
-0.000230614
-7.72455e-05
-0.000233
-0.000167524
-8.40913e-05
-3.25267e-05
-9.49139e-05
-8.64681e-05
0.000194926
-3.17896e-05
-8.80095e-05
0.000414372
8.29638e-06
-9.80976e-05
0.000572893
2.26879e-05
-0.0001227
0.000620437
2.09549e-05
-0.000156111
0.00053955
1.64313e-05
-0.000185098
0.000355309
1.36739e-05
-0.00019853
0.000116526
5.18559e-06
-0.000192179
-0.000126665
-2.07249e-05
-0.000168482
-0.000334134
-7.00922e-05
-0.000135125
-0.00047958
-0.000136924
-0.000101735
-0.000551722
-0.000203509
-0.000551676
-0.000247683
-7.97511e-05
-0.000436147
-0.000306868
-8.55536e-05
-0.000336571
-0.000270774
-9.22783e-05
-0.00020118
-0.000199122
-9.35647e-05
-3.02947e-05
-0.000110537
-8.55417e-05
0.000166608
-2.44065e-05
-7.02239e-05
0.000362965
4.4058e-05
-5.69e-05
0.000514953
8.73972e-05
-5.6284e-05
0.000575018
0.000107919
-7.12236e-05
0.000517702
0.000113582
-9.3854e-05
0.000356807
0.000108774
-0.000113121
0.000136435
8.84495e-05
-0.000121732
-9.21935e-05
4.32449e-05
-0.000118206
-0.000287007
-3.03298e-05
-0.000106101
-0.000421284
-0.000123072
-9.16728e-05
-0.000485386
-0.000213214
-0.000482898
-0.000274882
-5.96029e-05
-0.000364156
-0.000310375
-6.22647e-05
-0.000284723
-0.000275908
-6.44567e-05
-0.000176709
-0.000201864
-6.14709e-05
-3.76479e-05
-0.000107143
-4.92591e-05
0.000127279
-1.04877e-05
-2.75025e-05
0.000298125
7.36985e-05
-2.46675e-06
0.000439484
0.000136354
1.39731e-05
0.000509425
0.000175153
1.31349e-05
0.000478933
0.000192038
-3.79639e-06
0.000350925
0.000188835
-2.78215e-05
0.00016038
0.000161646
-4.94056e-05
-4.45589e-05
0.000103868
-6.27627e-05
-0.00022204
1.48251e-05
-6.71356e-05
-0.00034517
-9.37201e-05
-6.52382e-05
-0.000405338
-0.00019794
-0.000407208
-0.000270845
-7.49391e-06
-0.000299678
-0.000272994
5.13454e-08
-0.000243011
-0.000243318
5.46357e-06
-0.000162196
-0.000174277
1.08479e-05
-5.25797e-05
-8.53624e-05
2.00126e-05
8.33452e-05
6.55986e-06
3.61011e-05
0.000229918
8.99095e-05
5.73661e-05
0.000358409
0.000157499
7.52843e-05
0.000433518
0.000205395
7.94203e-05
0.000427247
0.000231586
6.56672e-05
0.000335136
0.000233864
3.92719e-05
0.000181428
0.000207532
1.02841e-05
6.73586e-06
0.000147826
-1.28243e-05
-0.000149924
5.6393e-05
-2.50764e-05
-0.000262832
-5.37327e-05
-2.5981e-05
-0.000323257
-0.000158925
-0.000335454
-0.000233793
6.91934e-05
-0.000253796
-0.000197275
9.28378e-05
-0.000217761
-0.000174064
0.000108397
-0.000159074
-0.000117028
0.000114028
-7.1175e-05
-4.55924e-05
0.00011285
4.37505e-05
2.65419e-05
0.000111126
0.000171455
9.26373e-05
0.000112877
0.000287529
0.000149688
0.000115614
0.000362959
0.000194962
0.000111831
0.000373626
0.000224597
9.57977e-05
0.000312172
0.000233268
6.91802e-05
0.000193958
0.000214695
4.00864e-05
5.02912e-05
0.000164692
1.81085e-05
-8.5628e-05
8.58543e-05
9.99297e-06
-0.000190186
-9.38191e-06
1.82936e-05
-0.000254234
-0.000100298
-0.00028038
-0.000165337
0.000155102
-0.000235555
-9.28261e-05
0.000199646
-0.000214795
-7.5432e-05
0.000227158
-0.000168388
-3.49934e-05
0.000231261
-8.96093e-05
9.97587e-06
0.000213913
1.6867e-05
5.04317e-05
0.000184592
0.000134829
8.62231e-05
0.000153907
0.000241664
0.000120045
0.000127133
0.000313677
0.000151807
0.000102914
0.000331886
0.000177441
7.7738e-05
0.000289577
0.000190198
5.15998e-05
0.000196842
0.000183
2.97269e-05
7.69865e-05
0.000151783
1.98522e-05
-4.32333e-05
9.86435e-05
2.83164e-05
-0.000143146
3.31109e-05
5.73401e-05
-0.000213155
-2.92687e-05
-0.000253633
-7.24138e-05
0.000233319
-0.000249698
2.28652e-05
0.000299827
-0.000237089
3.79402e-05
0.000339528
-0.000190748
6.05859e-05
0.000341219
-0.000105913
7.48651e-05
0.000304854
7.51365e-06
7.70731e-05
0.000242587
0.000127465
7.49111e-05
0.000172145
0.00023017
7.76878e-05
0.000107598
0.000296178
8.85453e-05
5.53305e-05
0.000312292
0.000104122
1.62819e-05
0.000274863
0.000117759
-9.3505e-06
0.000192357
0.000122779
-1.90398e-05
8.32315e-05
0.000115254
-8.5475e-06
-3.07161e-05
9.55786e-05
2.54914e-05
-0.000131529
6.88203e-05
8.28049e-05
-0.000209277
4.39675e-05
-0.000262141
3.07787e-05
0.000289416
-0.000293931
0.000128181
0.0003744
-0.000282235
0.000145095
0.000424034
-0.00022474
0.000152464
0.00042316
-0.000119866
0.000137777
0.000368567
1.57215e-05
0.000102073
0.00027363
0.000150258
6.06235e-05
0.000163033
0.000254806
2.99439e-05
6.01183e-05
0.00031293
1.68753e-05
-2.07479e-05
0.000317926
1.93868e-05
-7.37854e-05
0.000271224
3.1876e-05
-9.77775e-05
0.000182918
4.86878e-05
-9.2574e-05
7.00354e-05
6.56531e-05
-5.81152e-05
-4.82148e-05
8.05624e-05
4.38382e-06
-0.000155594
9.34456e-05
9.0855e-05
-0.000242115
0.000106693
-0.000304029
0.000124967
0.000315861
-0.000359747
0.000203769
0.000411742
-0.000342283
0.000224998
0.000466321
-0.000265873
0.00022217
0.000462735
-0.000131881
0.000185991
0.000394055
3.71616e-05
0.000119643
0.000272149
0.000197937
4.34952e-05
0.000127013
0.000310927
-1.87374e-05
-8.69479e-06
0.000359748
-5.52824e-05
-0.000112667
0.000345125
-6.57731e-05
-0.000175034
0.000276461
-5.44517e-05
-0.000194326
0.000168806
-2.65656e-05
-0.000172977
4.04837e-05
1.23344e-05
-0.000115266
-9.01902e-05
5.70474e-05
-2.70802e-05
-0.000207999
0.000102943
8.27697e-05
-0.000302769
0.000147439
-0.000369786
0.000190638
0.000312536
-0.000437493
0.000240413
0.000410466
-0.000407529
0.000265672
0.000463263
-0.000307283
0.000257927
0.000455272
-0.000140639
0.000210472
0.000377393
6.65779e-05
0.000125278
0.000237978
0.000260623
2.33e-05
6.86802e-05
0.000387386
-6.61402e-05
-8.95409e-05
0.000425062
-0.000123664
-0.000206891
0.000383045
-0.000144482
-0.00027114
0.000283246
-0.000132288
-0.000282285
0.000148349
-9.4095e-05
-0.000245828
-1.45183e-06
-3.8083e-05
-0.000169588
-0.00014837
2.74766e-05
-6.31429e-05
-0.000278141
9.54017e-05
6.146e-05
-0.000380076
0.000159952
-0.00044823
0.000218019
0.000281059
0.000240424
0.000375128
0.000267216
0.000421427
0.000258089
0.000404286
0.000207891
0.000317158
0.000115807
0.000171233
4.54356e-07
-2.22696e-06
-0.000105786
-0.000163468
-0.000176578
-0.000281707
-0.000203066
-0.000343037
-0.000189275
-0.000347069
-0.000144513
-0.000300822
-7.93521e-05
-0.000214151
-3.63041e-06
-9.95176e-05
7.40935e-05
2.91801e-05
0.000146933
0.000209855
0.000306022
-0.000385433
0.000147714
0.000387252
-0.00030588
0.00019142
0.000414614
-0.000161494
0.000207141
0.000381093
3.6216e-05
0.000189427
0.000290282
0.000250156
0.000137898
0.000160547
0.000418259
6.49772e-05
1.59252e-05
0.000492481
-1.29321e-05
-0.000120504
0.000466254
-8.24447e-05
-0.000229816
0.000363604
-0.000133179
-0.000297774
0.000215667
-0.000157629
-0.000315196
4.93185e-05
-0.000153443
-0.000280186
-0.000112867
-0.000124293
-0.000197559
-0.000253549
-7.69725e-05
-7.96023e-05
-0.000358901
-1.87993e-05
5.59077e-05
-0.000420839
4.39604e-05
-0.000437713
0.000105534
0.000239102
-0.000423082
4.8736e-05
0.000297959
-0.000326477
9.42476e-05
0.000320272
-0.000167486
0.000124892
0.000301632
4.29004e-05
0.000130518
0.000237596
0.000270942
0.000102194
0.000129994
0.000456709
4.24883e-05
-3.31949e-06
0.000544133
-3.18053e-05
-0.000133924
0.000518126
-9.97476e-05
-0.00023638
0.000402111
-0.000146404
-0.000294708
0.000231953
-0.000166209
-0.000302471
4.04273e-05
-0.000161821
-0.000261061
-0.000145126
-0.000140449
-0.00017946
-0.000302632
-0.000109633
-7.22783e-05
-0.000415819
-7.39248e-05
4.26851e-05
-0.000476059
-3.46787e-05
-0.000482551
6.40191e-06
0.000165991
-0.000437688
-5.19385e-05
0.000204284
-0.000326914
-7.71825e-06
0.000216906
-0.000161338
3.37551e-05
0.000204154
4.97285e-05
5.96086e-05
0.000162071
0.000278875
5.66993e-05
8.6087e-05
0.000472797
2.13965e-05
-1.74556e-05
0.000572128
-3.44974e-05
-0.000127104
0.0005506
-8.99964e-05
-0.000217477
0.000426087
-0.000128567
-0.000270269
0.000237758
-0.000145477
-0.000277462
2.50195e-05
-0.000145612
-0.000240514
-0.000178527
-0.000137798
-0.000168743
-0.000346336
-0.000128894
-7.70953e-05
-0.000460177
-0.000120227
1.73527e-05
-0.000512237