/*--------------------------------*- C++ -*----------------------------------*\
| =========                 |                                                 |
| \\      /  F ield         | OpenFOAM: The Open Source CFD Toolbox           |
|  \\    /   O peration     | Version:  3.0.0                                 |
|   \\  /    A nd           | Web:      www.OpenFOAM.org                      |
|    \\/     M anipulation  |                                                 |
\*---------------------------------------------------------------------------*/
FoamFile
{
    version     2.0;
    format      ascii;
    class       volVectorField;
    location    "4.25";
    object      U;
}
// * * * * * * * * * * * * * * * * * * * * * * * * * * * * * * * * * * * * * //

dimensions      [0 1 -1 0 0 0 0];

internalField   nonuniform List<vector> 
4096
(
(0.00996457 -0.175834 0.0866915)
(0.0348575 -0.170325 0.0838666)
(0.0478391 -0.140607 0.06865)
(0.0473228 -0.0874939 0.0395167)
(0.0330245 -0.0185468 -0.00125506)
(0.00773542 0.050405 -0.0446815)
(-0.0230433 0.102165 -0.078815)
(-0.0536143 0.127201 -0.096043)
(-0.0797148 0.125387 -0.0956319)
(-0.0983488 0.101756 -0.0808088)
(-0.107335 0.062781 -0.0558462)
(-0.105518 0.0148671 -0.0251078)
(-0.093314 -0.0360346 0.00721203)
(-0.0725387 -0.0845977 0.037036)
(-0.0462094 -0.126188 0.0612468)
(-0.0185157 -0.156453 0.0775236)
(-0.00247673 -0.174673 0.0649688)
(0.014856 -0.163784 0.061024)
(0.0221103 -0.130645 0.048729)
(0.0194098 -0.0754577 0.0259861)
(0.00703368 -0.0039336 -0.00707786)
(-0.0141914 0.0698093 -0.0448896)
(-0.0421276 0.126531 -0.0770843)
(-0.0720621 0.152599 -0.0946008)
(-0.0976164 0.146224 -0.0944906)
(-0.113829 0.114153 -0.0791862)
(-0.118501 0.06598 -0.0537054)
(-0.111967 0.0107767 -0.0237103)
(-0.0962404 -0.0441708 0.00563232)
(-0.0741581 -0.0933263 0.0305348)
(-0.0490927 -0.132629 0.0487853)
(-0.024868 -0.1584 0.0594398)
(-0.013803 -0.183409 0.0408228)
(-0.0017662 -0.167624 0.0365624)
(0.00143254 -0.128995 0.0276528)
(-0.00341037 -0.0685093 0.0115337)
(-0.0152089 0.00705571 -0.0130686)
(-0.0329979 0.0832015 -0.0431262)
(-0.0556488 0.140616 -0.070304)
(-0.0799251 0.165295 -0.0854324)
(-0.100474 0.155449 -0.0843489)
(-0.112772 0.11872 -0.0691265)
(-0.114987 0.0657955 -0.0452896)
(-0.107699 0.0064767 -0.0189739)
(-0.0928881 -0.0516157 0.00474992)
(-0.0731501 -0.102888 0.0227906)
(-0.0514831 -0.143068 0.0340936)
(-0.031014 -0.167812 0.0390989)
(-0.0220509 -0.182246 0.0157576)
(-0.0151736 -0.163474 0.0114936)
(-0.0153797 -0.122194 0.00629849)
(-0.0212888 -0.0597778 -0.00267173)
(-0.0313822 0.0168183 -0.0176859)
(-0.0443773 0.0935619 -0.0378322)
(-0.0596588 0.151687 -0.0573698)
(-0.0759519 0.176324 -0.0682711)
(-0.0900354 0.164754 -0.065877)
(-0.0984649 0.125061 -0.051632)
(-0.0995442 0.0690551 -0.0309547)
(-0.0934867 0.00728429 -0.00995774)
(-0.0816793 -0.0524407 0.00664072)
(-0.0661562 -0.104563 0.0165413)
(-0.0493864 -0.144714 0.0199257)
(-0.0336092 -0.16817 0.0187584)
(-0.0255332 -0.173839 -0.00701018)
(-0.0236193 -0.154379 -0.0113754)
(-0.0265373 -0.113164 -0.01313)
(-0.0325486 -0.0518452 -0.0151515)
(-0.039775 0.0228247 -0.0203092)
(-0.0468193 0.0980469 -0.0294005)
(-0.0537259 0.15632 -0.0394725)
(-0.0611836 0.182396 -0.0447296)
(-0.0684275 0.171917 -0.0407637)
(-0.0732888 0.132283 -0.0281211)
(-0.0740456 0.0758297 -0.0115064)
(-0.0702856 0.0136306 0.00335829)
(-0.0626524 -0.0463604 0.012211)
(-0.0525006 -0.0986224 0.0135008)
(-0.0416305 -0.138646 0.0086174)
(-0.0313302 -0.161531 0.00101002)
(-0.0228525 -0.15943 -0.0244679)
(-0.0251865 -0.141857 -0.0293246)
(-0.0299138 -0.103561 -0.0285883)
(-0.0352295 -0.0463887 -0.024983)
(-0.0392074 0.0235605 -0.0215622)
(-0.04048 0.0950529 -0.0202057)
(-0.0394866 0.152573 -0.0203571)
(-0.0383371 0.181331 -0.0189553)
(-0.0386681 0.175078 -0.0127558)
(-0.0399874 0.139166 -0.00164489)
(-0.0407418 0.0853742 0.01081)
(-0.0398176 0.0250523 0.0196312)
(-0.0369642 -0.0337365 0.0210751)
(-0.0327459 -0.0854425 0.014269)
(-0.0281529 -0.125389 0.00165275)
(-0.02356 -0.148701 -0.0121025)
(-0.0134611 -0.140437 -0.0342317)
(-0.0186524 -0.127139 -0.0401326)
(-0.0240749 -0.0944195 -0.038373)
(-0.0282116 -0.0440761 -0.0315117)
(-0.0293357 0.0187386 -0.0224079)
(-0.0262139 0.0845825 -0.0132775)
(-0.019332 0.140254 -0.00505257)
(-0.0112852 0.172175 0.00290727)
(-0.0053876 0.172615 0.0121756)
(-0.00315199 0.143999 0.0227168)
(-0.00368278 0.0962796 0.032004)
(-0.00536197 0.0404021 0.0360202)
(-0.00709953 -0.0155579 0.0315942)
(-0.00854962 -0.065924 0.0184288)
(-0.00978056 -0.105877 -0.000251183)
(-0.0103354 -0.130731 -0.0190009)
(0.00193681 -0.119271 -0.0349147)
(-0.00417155 -0.111961 -0.0421469)
(-0.00908181 -0.0867731 -0.0410049)
(-0.0117468 -0.0450364 -0.0338881)
(-0.0108787 0.00917043 -0.0231144)
(-0.00545586 0.0680959 -0.0104981)
(0.00420635 0.120738 0.00259554)
(0.0157739 0.155185 0.0154036)
(0.0255631 0.163143 0.0277364)
(0.0307543 0.144327 0.038955)
(0.0309868 0.105876 0.0469881)
(0.0276964 0.0571799 0.0485832)
(0.0226204 0.00590566 0.0410743)
(0.0169049 -0.0422283 0.0245801)
(0.0113402 -0.0822509 0.00272526)
(0.00729693 -0.109681 -0.0188294)
(0.020979 -0.0990272 -0.0264545)
(0.0163184 -0.0985058 -0.0346365)
(0.0130895 -0.0815873 -0.0354313)
(0.012122 -0.0488467 -0.0310086)
(0.0139814 -0.00337396 -0.0228171)
(0.0193866 0.0484394 -0.011585)
(0.0283423 0.0973434 0.00186929)
(0.0393213 0.133052 0.0163433)
(0.0493186 0.147619 0.0305376)
(0.0552964 0.138948 0.0430001)
(0.056025 0.111283 0.0516017)
(0.0523877 0.071752 0.0535164)
(0.0461543 0.0268674 0.0464646)
(0.0387976 -0.01802 0.0306399)
(0.0315893 -0.0579635 0.00957069)
(0.0268314 -0.0885692 -0.0114869)
(0.0399009 -0.083103 -0.0102546)
(0.0390476 -0.0890902 -0.0182527)
(0.0385989 -0.0797091 -0.0216235)
(0.0395039 -0.0547712 -0.0221744)
(0.0414943 -0.0166626 -0.0202232)
(0.0448661 0.029101 -0.0148275)
(0.0499932 0.0744557 -0.00539882)
(0.0564485 0.110407 0.00726137)
(0.0625663 0.129649 0.0213423)
(0.0661421 0.129257 0.0346555)
(0.0659752 0.111356 0.0447892)
(0.0625984 0.0808789 0.0491486)
(0.0574621 0.0428581 0.0457708)
(0.0517323 0.00185981 0.0347342)
(0.0463629 -0.0376023 0.0188052)
(0.0443929 -0.0711932 0.0021677)
(0.0546269 -0.0745955 0.0110961)
(0.0593711 -0.0857185 0.00469061)
(0.0624924 -0.0817868 -0.00123041)
(0.0653487 -0.0620572 -0.00801833)
(0.0668504 -0.0286247 -0.0148013)
(0.0667318 0.0132778 -0.0185758)
(0.065693 0.0561318 -0.0166355)
(0.0645844 0.0917928 -0.00868763)
(0.0634953 0.113636 0.00337716)
(0.0617682 0.118508 0.0167929)
(0.059027 0.107259 0.028792)
(0.0558718 0.083277 0.0369361)
(0.0533693 0.0505181 0.0395568)
(0.0520051 0.012839 0.0364327)
(0.0517125 -0.0258324 0.0291579)
(0.0556242 -0.0613478 0.0202972)
(0.0622261 -0.0752247 0.0343982)
(0.0732555 -0.0892553 0.0304086)
(0.0802398 -0.0878118 0.0222865)
(0.0848488 -0.0699636 0.00907813)
(0.0853491 -0.0377493 -0.00744562)
(0.0808546 0.00326848 -0.0221875)
(0.0722593 0.0453455 -0.0298255)
(0.0618102 0.0806292 -0.028408)
(0.0516706 0.103092 -0.0195842)
(0.0431176 0.10976 -0.00654219)
(0.0369831 0.100987 0.00766219)
(0.0341384 0.0794559 0.0205974)
(0.035184 0.0487523 0.0306364)
(0.0397332 0.0125908 0.0370049)
(0.046419 -0.0253845 0.0399205)
(0.0576468 -0.0613221 0.0402234)
(0.0619916 -0.0846406 0.0562385)
(0.0787157 -0.0989187 0.0544054)
(0.0890878 -0.0968529 0.0444157)
(0.0947481 -0.077582 0.025496)
(0.0936421 -0.043081 -0.000216353)
(0.0843199 0.000320723 -0.0260105)
(0.0677518 0.0437473 -0.0437549)
(0.0475923 0.0788511 -0.0494191)
(0.0282933 0.100018 -0.0441192)
(0.0131905 0.104875 -0.0312984)
(0.00429021 0.0941248 -0.0143006)
(0.0025214 0.0707107 0.0042471)
(0.00776414 0.0386055 0.0222466)
(0.0186484 0.00189466 0.0379819)
(0.0325929 -0.0356958 0.0503192)
(0.0505992 -0.0707071 0.0587301)
(0.0550378 -0.101234 0.0731031)
(0.0759088 -0.113127 0.0723918)
(0.0885286 -0.107614 0.060883)
(0.0940729 -0.0840443 0.0376783)
(0.0905502 -0.0443197 0.00464453)
(0.0762898 0.00429889 -0.0307227)
(0.0522189 0.0507599 -0.0576695)
(0.0231955 0.0855667 -0.0698297)
(-0.00390676 0.103553 -0.0675049)
(-0.0237323 0.103439 -0.0542269)
(-0.0335298 0.0870165 -0.0337099)
(-0.0328541 0.0582883 -0.00924283)
(-0.0229299 0.0221939 0.0160865)
(-0.00613526 -0.0165713 0.0394371)
(0.0140902 -0.0541337 0.0586321)
(0.0370869 -0.0873748 0.072375)
(0.0431419 -0.123927 0.0818856)
(0.0664249 -0.131259 0.0813064)
(0.0799591 -0.119665 0.0689254)
(0.0840473 -0.0889217 0.0433616)
(0.0770873 -0.0414671 0.00560354)
(0.0577295 0.0140472 -0.0370318)
(0.0269876 0.0640877 -0.0719834)
(-0.00913662 0.097744 -0.0899119)
(-0.0414316 0.110499 -0.0893928)
(-0.0628759 0.102848 -0.0740888)
(-0.0709348 0.0784505 -0.0489977)
(-0.0664844 0.0427796 -0.0189444)
(-0.0520178 0.00163991 0.0117828)
(-0.0306238 -0.0399142 0.0396847)
(-0.00589043 -0.077945 0.0623032)
(0.0200801 -0.109483 0.0781797)
(0.0281302 -0.132103 0.0782914)
(0.0523247 -0.13435 0.0776722)
(0.066016 -0.119165 0.0664004)
(0.0679512 -0.084691 0.0418177)
(0.0561363 -0.0306701 0.00264308)
(0.0302796 0.0355119 -0.0455411)
(-0.00630563 0.0958092 -0.0885142)
(-0.045678 0.130963 -0.111923)
(-0.0780515 0.13392 -0.111013)
(-0.0971188 0.110692 -0.0907798)
(-0.101609 0.0719533 -0.0596411)
(-0.0934532 0.0269612 -0.0249767)
(-0.0757346 -0.0178886 0.00800894)
(-0.0516876 -0.0586917 0.0362169)
(-0.024714 -0.0929291 0.057986)
(0.00221589 -0.118855 0.0725654)
(0.0299751 -0.183633 0.078815)
(0.0589639 -0.170354 0.0798674)
(0.0736989 -0.129854 0.0680615)
(0.0728772 -0.0667578 0.0426519)
(0.0564871 0.00638811 0.00701862)
(0.0279339 0.0711902 -0.029584)
(-0.00660482 0.113198 -0.0574919)
(-0.0410635 0.127992 -0.0723645)
(-0.0710319 0.118441 -0.07461)
(-0.0931873 0.0898427 -0.0661467)
(-0.104852 0.0476434 -0.0490019)
(-0.104207 -0.0027652 -0.0255554)
(-0.091213 -0.0558157 0.0011746)
(-0.0675612 -0.105765 0.0278664)
(-0.0366758 -0.147103 0.0513274)
(-0.0030572 -0.175081 0.0689722)
(0.0154945 -0.179256 0.05267)
(0.0355131 -0.161598 0.0531966)
(0.0444403 -0.119675 0.0455654)
(0.0427892 -0.056098 0.0278301)
(0.0304802 0.0197459 0.000346572)
(0.0075979 0.0903863 -0.0313012)
(-0.0236111 0.137636 -0.0584486)
(-0.0574227 0.152706 -0.0744361)
(-0.0868136 0.137831 -0.0773309)
(-0.106468 0.100599 -0.0685022)
(-0.113703 0.049519 -0.0509326)
(-0.108261 -0.00754291 -0.0283888)
(-0.0917213 -0.063762 -0.00473559)
(-0.0670663 -0.113102 0.0167984)
(-0.0383861 -0.150797 0.0340189)
(-0.0102146 -0.173177 0.045812)
(0.0022324 -0.186346 0.0261385)
(0.01608 -0.163684 0.0268045)
(0.0206417 -0.117448 0.0232216)
(0.0170739 -0.0504414 0.0126254)
(0.00611706 0.027987 -0.00641526)
(-0.0121692 0.100838 -0.0311313)
(-0.0372009 0.149362 -0.0543598)
(-0.0652443 0.163608 -0.0687787)
(-0.0899996 0.145558 -0.0711445)
(-0.106164 0.103662 -0.0625407)
(-0.111144 0.0475445 -0.0465015)
(-0.104877 -0.0139886 -0.0273661)
(-0.089083 -0.0733227 -0.00907434)
(-0.0667295 -0.124191 0.00574313)
(-0.0416437 -0.161578 0.0161031)
(-0.0179583 -0.181519 0.022369)
(-0.00909078 -0.183727 -0.000221526)
(-0.000730069 -0.157936 0.000842725)
(0.000270007 -0.110324 0.00141354)
(-0.00446221 -0.0433088 -0.00185788)
(-0.0135448 0.0347707 -0.0117042)
(-0.0265665 0.10825 -0.0275438)
(-0.0438604 0.158326 -0.0444275)
(-0.0640058 0.173157 -0.055549)
(-0.0827103 0.153396 -0.0568765)
(-0.0953417 0.108062 -0.0489995)
(-0.0992257 0.0481616 -0.0356049)
(-0.0939661 -0.0163491 -0.021266)
(-0.0808854 -0.0772482 -0.00974197)
(-0.0625274 -0.128056 -0.00288823)
(-0.0422519 -0.163823 -0.000305203)
(-0.0235331 -0.180722 1.73236e-06)
(-0.0167488 -0.174522 -0.0236264)
(-0.0132195 -0.147655 -0.0222397)
(-0.0149464 -0.101022 -0.0178831)
(-0.0199238 -0.0366121 -0.0141597)
(-0.0263786 0.0385144 -0.0145628)
(-0.0336444 0.110627 -0.0203615)
(-0.0426914 0.161897 -0.0291134)
(-0.0542708 0.178837 -0.0355638)
(-0.0664904 0.159836 -0.0354783)
(-0.0757288 0.113518 -0.0287094)
(-0.0791893 0.0519209 -0.018676)
(-0.0759445 -0.0138972 -0.0099145)
(-0.0667089 -0.0751338 -0.00587479)
(-0.0534115 -0.125129 -0.00754271)
(-0.038789 -0.159072 -0.0131067)
(-0.0254728 -0.173501 -0.0189785)
(-0.0189553 -0.160156 -0.041282)
(-0.0191325 -0.134531 -0.0399758)
(-0.0225242 -0.091235 -0.0327326)
(-0.0270194 -0.0318428 -0.0232251)
(-0.0307128 0.0379598 -0.0152524)
(-0.0327145 0.10671 -0.0112494)
(-0.0341805 0.158414 -0.0110114)
(-0.0373953 0.178793 -0.0115565)
(-0.0429703 0.163447 -0.00940162)
(-0.0488632 0.119286 -0.00376445)
(-0.0523297 0.058651 0.00262389)
(-0.0517753 -0.00651396 0.00564852)
(-0.0471074 -0.0668401 0.00229897)
(-0.0394551 -0.115482 -0.00754341)
(-0.0307788 -0.147799 -0.0208038)
(-0.0228055 -0.160842 -0.0325849)
(-0.0145287 -0.14198 -0.0508786)
(-0.0167846 -0.119875 -0.0502815)
(-0.0205746 -0.0821042 -0.0416286)
(-0.0240461 -0.029804 -0.0285526)
(-0.0254017 0.0327195 -0.0147607)
(-0.0235512 0.0962963 -0.00307045)
(-0.0193751 0.147294 0.00530524)
(-0.0156923 0.1718 0.0111278)
(-0.0151092 0.162805 0.0162533)
(-0.0176698 0.124307 0.0214559)
(-0.0212229 0.0677511 0.0248471)
(-0.0235783 0.00549907 0.0229734)
(-0.0236365 -0.0525818 0.0134377)
(-0.0215654 -0.099437 -0.00310215)
(-0.0184167 -0.130597 -0.0225919)
(-0.0150426 -0.143667 -0.0393225)
(-0.00340088 -0.122125 -0.0509575)
(-0.00569496 -0.105328 -0.0516888)
(-0.00850782 -0.0746854 -0.0434162)
(-0.0105425 -0.0307859 -0.0297086)
(-0.0103655 0.0232786 -0.0138494)
(-0.00675229 0.0803272 0.00167986)
(5.84922e-05 0.129156 0.0152542)
(0.0076502 0.157232 0.0262304)
(0.0125519 0.156089 0.0348076)
(0.0128576 0.126436 0.0409325)
(0.00945903 0.0773505 0.0430089)
(0.00468459 0.02061 0.0383175)
(0.000603307 -0.0337173 0.0251131)
(-0.0019155 -0.078436 0.00465579)
(-0.00297837 -0.109113 -0.0184344)
(-0.00253381 -0.123777 -0.0382167)
(0.0129247 -0.103242 -0.0411882)
(0.0129209 -0.0927322 -0.0434828)
(0.0124297 -0.0697978 -0.0372773)
(0.0121499 -0.0344124 -0.0260435)
(0.0128704 0.0112151 -0.0123185)
(0.0158627 0.0613404 0.00238766)
(0.0216985 0.106816 0.0169305)
(0.0290645 0.136905 0.0302382)
(0.0349106 0.143133 0.0413854)
(0.0364452 0.123737 0.0492975)
(0.0332503 0.0846725 0.0521341)
(0.0272255 0.0358544 0.0475519)
(0.0208779 -0.0132118 0.0342781)
(0.0158854 -0.0553763 0.0138646)
(0.0129765 -0.0861965 -0.00910007)
(0.0131557 -0.103794 -0.0290197)
(0.031396 -0.0882835 -0.0227301)
(0.0359502 -0.0839936 -0.0260791)
(0.0389624 -0.0680217 -0.0231268)
(0.0406604 -0.0398107 -0.0170495)
(0.0409648 -0.00116798 -0.00928914)
(0.0410793 0.0429168 0.000178495)
(0.0424625 0.0847177 0.0114024)
(0.0452906 0.115213 0.0236133)
(0.0478801 0.126785 0.0353809)
(0.0478395 0.116526 0.0448656)
(0.0441603 0.0877245 0.0498367)
(0.0380558 0.047786 0.0480635)
(0.0318825 0.00480454 0.0384974)
(0.0275023 -0.0345344 0.0224995)
(0.0259103 -0.0658485 0.00395485)
(0.0291724 -0.0870436 -0.01247)
(0.04814 -0.0800786 0.00172262)
(0.0589349 -0.0808597 -0.00154061)
(0.0662123 -0.0697854 -0.00231197)
(0.0699838 -0.0460378 -0.00318077)
(0.0691613 -0.0115971 -0.00422126)
(0.0646853 0.0285419 -0.00337824)
(0.0588894 0.0673488 0.00115884)
(0.0536813 0.0971727 0.00938574)
(0.0493037 0.111559 0.0197408)
(0.0447511 0.107473 0.0299241)
(0.0393728 0.0865487 0.0374684)
(0.0339369 0.054005 0.0402527)
(0.0301863 0.0163395 0.0372724)
(0.029521 -0.0205727 0.0293023)
(0.032488 -0.0525025 0.0189259)
(0.0418797 -0.077039 0.00937359)
(0.0598157 -0.080457 0.0283044)
(0.0773409 -0.0844148 0.0262991)
(0.0889286 -0.075275 0.0220072)
(0.0946092 -0.052405 0.0135811)
(0.0922735 -0.018479 0.00234141)
(0.0823085 0.0206763 -0.00734897)
(0.0677912 0.0579297 -0.0114755)
(0.0525303 0.0865603 -0.00897743)
(0.0390285 0.101325 -0.0013851)
(0.0281873 0.099676 0.00874388)
(0.0202935 0.082568 0.0189087)
(0.0159801 0.0539261 0.0271332)
(0.0162233 0.019104 0.0322659)
(0.0214729 -0.0166622 0.0342109)
(0.0311969 -0.0493161 0.0339657)
(0.0482296 -0.0761983 0.0331021)
(0.0646632 -0.0894331 0.05262)
(0.0880159 -0.0943169 0.0523397)
(0.103114 -0.0840123 0.0451781)
(0.110061 -0.0584081 0.0299072)
(0.10599 -0.0211154 0.00879261)
(0.0904723 0.0204355 -0.0116251)
(0.0670465 0.0580509 -0.0248979)
(0.041487 0.0853347 -0.028648)
(0.0187192 0.0982159 -0.0242547)
(0.00160755 0.0951252 -0.0143881)
(-0.00851336 0.0772682 -0.00150973)
(-0.0110741 0.0483124 0.0124176)
(-0.00599293 0.013199 0.0258311)
(0.00601413 -0.0231202 0.0375679)
(0.0230876 -0.0566457 0.047075)
(0.0471733 -0.0846235 0.0544433)
(0.0627281 -0.105748 0.0705604)
(0.089918 -0.109178 0.0716541)
(0.106993 -0.0949901 0.0625183)
(0.114067 -0.0636949 0.0422195)
(0.108032 -0.0198111 0.0132101)
(0.0876339 0.0270908 -0.0165011)
(0.0563494 0.0666874 -0.0381638)
(0.0216837 0.0923877 -0.0477802)
(-0.0088851 0.101402 -0.0463127)
(-0.0306133 0.093582 -0.0364201)
(-0.0414848 0.0711393 -0.0206347)
(-0.0413351 0.0382817 -0.00126934)
(-0.0311406 0.000170394 0.0193666)
(-0.0127849 -0.0381748 0.0390553)
(0.0107291 -0.0727223 0.0560024)
(0.0397894 -0.100721 0.0692967)
(0.0550701 -0.128655 0.0793179)
(0.0839221 -0.128337 0.0811039)
(0.101296 -0.107706 0.0710579)
(0.107043 -0.0681627 0.0481653)
(0.0984523 -0.0154969 0.0142998)
(0.0739711 0.0383281 -0.0224179)
(0.0366297 0.0804303 -0.0513741)
(-0.00483114 0.103784 -0.066296)
(-0.0404606 0.107145 -0.0669229)
(-0.0639714 0.0923189 -0.0559927)
(-0.0734513 0.0630415 -0.0368565)
(-0.0697547 0.0243783 -0.0128263)
(-0.0549461 -0.0182142 0.0129289)
(-0.0317355 -0.0595634 0.0375551)
(-0.00368277 -0.0954991 0.0587249)
(0.0279365 -0.123136 0.0749763)
(0.0428155 -0.136181 0.0760819)
(0.0713813 -0.13247 0.0782951)
(0.0881246 -0.109252 0.0692583)
(0.091617 -0.0658196 0.0469994)
(0.0791286 -0.0051869 0.011567)
(0.0501836 0.0602545 -0.0298964)
(0.0092788 0.111003 -0.0649235)
(-0.0340681 0.133092 -0.0838496)
(-0.0698128 0.125702 -0.0847833)
(-0.0919144 0.0966676 -0.0713494)
(-0.0988712 0.0553203 -0.0486982)
(-0.092104 0.0092835 -0.0215606)
(-0.0741841 -0.0356942 0.00623615)
(-0.0482878 -0.0757506 0.0318533)
(-0.0181984 -0.108075 0.0532547)
(0.0135886 -0.130935 0.0692291)
(0.0486966 -0.153932 0.0615969)
(0.0789554 -0.136731 0.0672866)
(0.0941238 -0.0951203 0.0619143)
(0.0934174 -0.0343548 0.0444758)
(0.0762976 0.0323338 0.0172896)
(0.0459795 0.0870076 -0.0123505)
(0.00895592 0.117478 -0.0366181)
(-0.0281981 0.121991 -0.0518552)
(-0.0605168 0.105065 -0.0576972)
(-0.0842009 0.072634 -0.0547451)
(-0.0963023 0.0302011 -0.043972)
(-0.0950807 -0.0171268 -0.0270504)
(-0.0805464 -0.0642648 -0.00653592)
(-0.0546545 -0.106196 0.0150001)
(-0.0214167 -0.138408 0.0350971)
(0.0156274 -0.15778 0.0517775)
(0.033579 -0.152487 0.0342892)
(0.054885 -0.131427 0.0399022)
(0.0650191 -0.08828 0.0390042)
(0.0647891 -0.0262298 0.0292072)
(0.0532821 0.0445713 0.00965917)
(0.0297077 0.1062 -0.0157514)
(-0.003489 0.141832 -0.0397103)
(-0.0395895 0.145877 -0.0560621)
(-0.0709635 0.123172 -0.0623299)
(-0.0921335 0.0822544 -0.0589105)
(-0.100342 0.0313791 -0.0479061)
(-0.0951779 -0.0223009 -0.0323248)
(-0.0781676 -0.0725988 -0.0152003)
(-0.0524635 -0.114266 0.00104585)
(-0.0225265 -0.1434 0.0150518)
(0.00761945 -0.157784 0.0261651)
(0.0188014 -0.159649 0.00778341)
(0.0334127 -0.133648 0.0135685)
(0.0391819 -0.086894 0.0164779)
(0.0375533 -0.0225666 0.0132345)
(0.0285834 0.0500063 0.00139179)
(0.01115 0.113944 -0.0175984)
(-0.0146821 0.151671 -0.0378748)
(-0.0446087 0.155673 -0.0525986)
(-0.0716043 0.130171 -0.0581828)
(-0.0898743 0.0845213 -0.0548935)
(-0.0964591 0.0282204 -0.0453977)
(-0.0910032 -0.0303728 -0.0331972)
(-0.0751763 -0.0840833 -0.0213385)
(-0.0521895 -0.127094 -0.0115774)
(-0.0263078 -0.155291 -0.00408648)
(-0.00163979 -0.166499 0.00186409)
(0.00407078 -0.158163 -0.018383)
(0.0129362 -0.128805 -0.0122227)
(0.0151818 -0.0811471 -0.00542112)
(0.0126357 -0.0177315 -0.00195225)
(0.00613216 0.0536622 -0.00535961)
(-0.00505645 0.118071 -0.0161582)
(-0.0222151 0.157846 -0.0304004)
(-0.0439068 0.162976 -0.041762)
(-0.0650892 0.135944 -0.0460528)
(-0.0802972 0.0866232 -0.0432249)
(-0.0862141 0.026056 -0.0361602)
(-0.0820755 -0.0359669 -0.0285726)
(-0.069206 -0.0913188 -0.0233045)
(-0.0504754 -0.133797 -0.0212676)
(-0.0297088 -0.159481 -0.0212612)
(-0.0106741 -0.166708 -0.0209401)
(-0.00884038 -0.15042 -0.0418538)
(-0.00469443 -0.119438 -0.0352318)
(-0.00504335 -0.0729664 -0.0246794)
(-0.00773651 -0.0128226 -0.0145762)
(-0.0114854 0.0548633 -0.00921471)
(-0.0166379 0.117497 -0.0107051)
(-0.0251778 0.158478 -0.017304)
(-0.0381142 0.165831 -0.0240868)
(-0.0528851 0.139405 -0.0267472)
(-0.0648843 0.0886132 -0.024705)
(-0.0705484 0.0257269 -0.0207077)
(-0.0685691 -0.0380291 -0.0184793)
(-0.0596881 -0.0935965 -0.0205206)
(-0.0461818 -0.134481 -0.0268157)
(-0.0312389 -0.157138 -0.0347235)
(-0.0179211 -0.160638 -0.0402557)
(-0.0176261 -0.137611 -0.0597947)
(-0.0167573 -0.107121 -0.052872)
(-0.0186032 -0.0639127 -0.0392007)
(-0.0208564 -0.00909224 -0.0233263)
(-0.0220511 0.0527974 -0.00991678)
(-0.0221535 0.111633 -0.00215972)
(-0.0231872 0.152717 -0.000336548)
(-0.0277647 0.163134 -0.00156588)
(-0.0359208 0.13974 -0.00220611)
(-0.0445858 0.0903052 -0.00115206)
(-0.0502506 0.0276191 -0.000588937)
(-0.0509872 -0.0358651 -0.00393703)
(-0.0467237 -0.0902337 -0.0132305)
(-0.0389041 -0.128802 -0.0275504)
(-0.0299086 -0.148477 -0.0429462)
(-0.021901 -0.149159 -0.0540488)
(-0.0201994 -0.120928 -0.0697624)
(-0.0208184 -0.0931599 -0.0630152)
(-0.0229081 -0.0551796 -0.0474504)
(-0.0242984 -0.00739542 -0.0276476)
(-0.0235682 0.0471318 -0.0083039)
(-0.0202955 0.100616 0.0069605)
(-0.0159842 0.140673 0.0165122)
(-0.0137734 0.154558 0.0212112)
(-0.0158254 0.136495 0.023226)
(-0.0211781 0.0915655 0.0237094)
(-0.0269325 0.0320042 0.0211936)
(-0.0305869 -0.028983 0.0129122)
(-0.0310745 -0.0807892 -0.00256394)
(-0.0287825 -0.116617 -0.0235217)
(-0.0251261 -0.133827 -0.0450079)
(-0.0213974 -0.133089 -0.0607897)
(-0.0153508 -0.102314 -0.070023)
(-0.0154227 -0.0791615 -0.0641798)
(-0.0164003 -0.0478962 -0.0484488)
(-0.0166162 -0.00822491 -0.0274396)
(-0.0149013 0.0380631 -0.00556784)
(-0.0104617 0.0851563 0.0137791)
(-0.00391836 0.123001 0.0285567)
(0.00210268 0.140007 0.0382342)
(0.00440757 0.128841 0.0433764)
(0.00187018 0.0914631 0.0444244)
(-0.00385928 0.0382154 0.0402567)
(-0.0100657 -0.0178721 0.0288459)
(-0.0146639 -0.0658374 0.00947608)
(-0.0168775 -0.0988128 -0.0155246)
(-0.0170976 -0.114495 -0.0406489)
(-0.0158434 -0.114057 -0.0594392)
(-0.0033525 -0.0842301 -0.0599118)
(-0.000700161 -0.0668388 -0.055637)
(0.000777497 -0.0428701 -0.041642)
(0.00195139 -0.0113705 -0.0225754)
(0.00350296 0.026802 -0.00225556)
(0.00656933 0.0672653 0.0167761)
(0.0116448 0.101955 0.0329219)
(0.0173626 0.120973 0.0451786)
(0.0207906 0.116754 0.052972)
(0.0195984 0.0887574 0.0556729)
(0.0139953 0.0445055 0.0519383)
(0.00631178 -0.0044243 0.0402021)
(-0.000743078 -0.0474051 0.0203119)
(-0.00540339 -0.0776347 -0.00502037)
(-0.00712132 -0.0929038 -0.0303409)
(-0.00568252 -0.094469 -0.0495982)
(0.0137349 -0.0694577 -0.0403037)
(0.0212182 -0.0578792 -0.0377247)
(0.0263575 -0.0405442 -0.0270894)
(0.0290333 -0.0159369 -0.0129141)
(0.0292331 0.0155155 0.00194101)
(0.0284062 0.0501833 0.0163313)
(0.0283239 0.0814313 0.0297454)
(0.0293225 0.101076 0.0414461)
(0.0297702 0.102316 0.050312)
(0.0274333 0.0833357 0.0548575)
(0.0216184 0.0489595 0.0532896)
(0.0138679 0.00838554 0.044165)
(0.00681976 -0.0289911 0.0276061)
(0.00268077 -0.0567485 0.00617188)
(0.0025549 -0.0725801 -0.0153361)
(0.00746687 -0.0774114 -0.0318229)
(0.0324312 -0.0607461 -0.0139166)
(0.0463709 -0.0539319 -0.0124252)
(0.0559631 -0.0412249 -0.00608161)
(0.0602044 -0.0208172 0.00105164)
(0.0581175 0.0066168 0.00743169)
(0.0513645 0.037406 0.0137785)
(0.043122 0.0657096 0.0211338)
(0.0357348 0.0848395 0.0294275)
(0.0295004 0.089223 0.0374019)
(0.0233291 0.0768644 0.0431187)
(0.0165074 0.0507562 0.0445164)
(0.00984723 0.0177092 0.040186)
(0.00533288 -0.0146314 0.0301795)
(0.00487671 -0.0405594 0.0164103)
(0.00945296 -0.0576508 0.00239003)
(0.0209255 -0.0662556 -0.00813312)
(0.0488299 -0.0600793 0.014805)
(0.0697921 -0.0563214 0.0163121)
(0.0839526 -0.0452392 0.0183249)
(0.0897415 -0.0252706 0.0175411)
(0.0849743 0.00188238 0.0138794)
(0.071232 0.0315696 0.0102202)
(0.053118 0.0580605 0.00949455)
(0.0352378 0.0758983 0.0124937)
(0.0201496 0.0809252 0.0180391)
(0.00842736 0.071679 0.0240725)
(-4.56245e-05 0.0503113 0.0285529)
(-0.00489314 0.0219404 0.0301424)
(-0.00503094 -0.0073609 0.0285449)
(0.000560258 -0.0326913 0.0246288)
(0.0120052 -0.0515547 0.0202886)
(0.0317233 -0.0636908 0.0177418)
(0.059984 -0.0678225 0.040659)
(0.08705 -0.0652243 0.0431509)
(0.104966 -0.0525958 0.0415962)
(0.112023 -0.0290898 0.0335288)
(0.104796 0.00195083 0.0200335)
(0.0842506 0.0338581 0.00607218)
(0.056182 0.0601205 -0.00333596)
(0.0276165 0.0761732 -0.00637243)
(0.0035036 0.0793997 -0.00399601)
(-0.0138701 0.0694249 0.00184717)
(-0.0238684 0.0484814 0.00930862)
(-0.0263727 0.0209281 0.0170051)
(-0.0212512 -0.00814885 0.0240491)
(-0.00867271 -0.0344638 0.0300926)
(0.0102158 -0.0554917 0.0354155)
(0.0377138 -0.0704547 0.0408956)
(0.0646406 -0.0829551 0.0591369)
(0.0955974 -0.0796169 0.062937)
(0.115572 -0.0627848 0.0590524)
(0.123157 -0.0325119 0.0456744)
(0.114109 0.00602888 0.0242985)
(0.0881926 0.0432295 0.00129543)
(0.0516271 0.0707398 -0.0162781)
(0.0137662 0.0845885 -0.0252348)
(-0.0179156 0.0839267 -0.0260094)
(-0.039554 0.0699123 -0.020328)
(-0.0500251 0.0455541 -0.00998924)
(-0.0496102 0.0152356 0.0032706)
(-0.0391643 -0.0163226 0.0177695)
(-0.0200777 -0.0451136 0.0320453)
(0.00525271 -0.0685269 0.0451028)
(0.0382446 -0.0854199 0.0567431)
(0.0629965 -0.104447 0.0679926)
(0.0952315 -0.0983865 0.0728018)
(0.115247 -0.0751663 0.0678481)
(0.122082 -0.0359856 0.0517275)
(0.111571 0.0121444 0.0255087)
(0.0823414 0.056429 -0.00430119)
(0.039965 0.0859442 -0.0290181)
(-0.00450674 0.0970179 -0.0433643)
(-0.0410906 0.0908708 -0.0466122)
(-0.0646445 0.0706432 -0.0404372)
(-0.0741103 0.0405133 -0.0272325)
(-0.0704866 0.00521517 -0.00952791)
(-0.0555289 -0.0306204 0.0102464)
(-0.0315394 -0.0629979 0.0299211)
(-0.00178123 -0.089024 0.0478095)
(0.0337927 -0.107155 0.0629741)
(0.055401 -0.114253 0.0668275)
(0.0864738 -0.106309 0.0721246)
(0.105236 -0.080377 0.0673389)
(0.110199 -0.0358273 0.0509476)
(0.0975467 0.0224954 0.022918)
(0.0663812 0.0795676 -0.0109097)
(0.0223777 0.116635 -0.0405691)
(-0.0233989 0.124713 -0.0584672)
(-0.0606687 0.107685 -0.0627657)
(-0.0838991 0.0748857 -0.0555484)
(-0.0918688 0.034832 -0.0401545)
(-0.0858144 -0.00635816 -0.0199271)
(-0.0680416 -0.0444656 0.00226615)
(-0.041519 -0.0766668 0.0239995)
(-0.010029 -0.101081 0.0434615)
(0.0251839 -0.116877 0.0594501)
(0.0628594 -0.097759 0.0445644)
(0.0920531 -0.0790621 0.0542999)
(0.106425 -0.0434636 0.0555161)
(0.106068 0.00550562 0.0469132)
(0.0897436 0.0570992 0.0292948)
(0.0599121 0.0959952 0.00724378)
(0.0228301 0.112372 -0.0137913)
(-0.0147007 0.106165 -0.0304514)
(-0.0472297 0.0829707 -0.0409686)
(-0.070608 0.0493619 -0.0442709)
(-0.0818426 0.0110502 -0.0402264)
(-0.0794713 -0.0271951 -0.0299476)
(-0.0638447 -0.0612478 -0.0154247)
(-0.0373065 -0.0877263 0.00127746)
(-0.00431075 -0.104361 0.0183268)
(0.0333154 -0.110448 0.0341831)
(0.0498208 -0.103059 0.0180912)
(0.0712081 -0.0806557 0.028104)
(0.0817209 -0.0418096 0.0334796)
(0.0826583 0.0109413 0.0316313)
(0.0724294 0.0685792 0.0206275)
(0.0497194 0.115033 0.00219197)
(0.016991 0.136061 -0.0183291)
(-0.0187789 0.128826 -0.035327)
(-0.0499466 0.0999348 -0.045459)
(-0.071159 0.0584272 -0.0478902)
(-0.079684 0.0121721 -0.0437305)
(-0.0749924 -0.0325642 -0.0351897)
(-0.0585047 -0.0707344 -0.0245488)
(-0.0334082 -0.0986367 -0.0133762)
(-0.0043276 -0.114223 -0.00232816)
(0.0261171 -0.117227 0.00819755)
(0.0348394 -0.111422 -0.00804338)
(0.0492108 -0.0845851 0.00186563)
(0.0555768 -0.0425398 0.0104397)
(0.0557867 0.0120481 0.0142838)
(0.0493053 0.0713485 0.0101934)
(0.0342006 0.120611 -0.0020505)
(0.00996567 0.144675 -0.0184267)
(-0.0192256 0.13824 -0.032993)
(-0.0463017 0.106939 -0.041687)
(-0.0653119 0.0605851 -0.0437506)
(-0.0730147 0.00844071 -0.040875)
(-0.0687533 -0.0417507 -0.0357154)
(-0.0540542 -0.0837625 -0.0304636)
(-0.032206 -0.113157 -0.0259396)
(-0.00766491 -0.127765 -0.0215551)
(0.0163888 -0.127664 -0.0163581)
(0.0174284 -0.112338 -0.034038)
(0.0256428 -0.0822553 -0.0240846)
(0.0285766 -0.0394177 -0.0121934)
(0.0282665 0.0140289 -0.00249526)
(0.0250207 0.0718928 0.000975858)
(0.0172052 0.121627 -0.00345843)
(0.00259396 0.148139 -0.0134737)
(-0.0179256 0.143369 -0.0238665)
(-0.0393054 0.11083 -0.0303934)
(-0.0556509 0.0607079 -0.0322485)
(-0.0631148 0.0039182 -0.0314027)
(-0.0605527 -0.0501172 -0.0307168)
(-0.0491831 -0.0939533 -0.0321157)
(-0.0320111 -0.122703 -0.0354894)
(-0.0130337 -0.134546 -0.0387725)
(0.00450705 -0.130409 -0.0393062)
(-0.000570336 -0.10697 -0.057753)
(0.00275612 -0.0751087 -0.0474037)
(0.00321194 -0.033501 -0.0320499)
(0.00297645 0.0164564 -0.0163395)
(0.00277567 0.0702236 -0.00492501)
(0.00134702 0.117745 -0.000673444)
(-0.00424795 0.145208 -0.00305189)
(-0.0156779 0.142648 -0.00826448)
(-0.0304766 0.110728 -0.0123391)
(-0.0436011 0.0589564 -0.0142808)
(-0.0509072 -0.000457569 -0.0160721)
(-0.050676 -0.0563837 -0.0205803)
(-0.0435456 -0.100202 -0.0293353)
(-0.0319219 -0.126765 -0.0411988)
(-0.0191097 -0.134899 -0.0525075)
(-0.0078792 -0.126636 -0.0588051)
(-0.016399 -0.0961997 -0.0764059)
(-0.0162299 -0.0645287 -0.0653771)
(-0.0171755 -0.0261582 -0.0467724)
(-0.0168971 0.0183539 -0.0254855)
(-0.0145584 0.066008 -0.00656496)
(-0.0110566 0.109143 0.00625793)
(-0.00926534 0.135923 0.0118985)
(-0.0123125 0.135715 0.0123495)
(-0.0203 0.10633 0.0107688)
(-0.0298374 0.0555647 0.0083556)
(-0.0369622 -0.00384341 0.00346578)
(-0.0393956 -0.0593433 -0.00649159)
(-0.0369641 -0.101334 -0.0225301)
(-0.0311743 -0.124591 -0.042507)
(-0.0244633 -0.128752 -0.0612954)
(-0.0187533 -0.117003 -0.0728763)
(-0.027104 -0.081105 -0.0874668)
(-0.0281055 -0.0518294 -0.07582)
(-0.0292913 -0.0185675 -0.0547482)
(-0.0282361 0.0189669 -0.029225)
(-0.0241843 0.059186 -0.00446653)
(-0.0176588 0.0965457 0.0153635)
(-0.0109186 0.121366 0.0280992)
(-0.00745356 0.123368 0.0340498)
(-0.00934055 0.098185 0.0350658)
(-0.0153149 0.051248 0.0322249)
(-0.0222103 -0.00519936 0.0243816)
(-0.0273266 -0.0578279 0.00951038)
(-0.0295157 -0.0963775 -0.0127577)