/*--------------------------------*- C++ -*----------------------------------*\
| =========                 |                                                 |
| \\      /  F ield         | OpenFOAM: The Open Source CFD Toolbox           |
|  \\    /   O peration     | Version:  3.0.0                                 |
|   \\  /    A nd           | Web:      www.OpenFOAM.org                      |
|    \\/     M anipulation  |                                                 |
\*---------------------------------------------------------------------------*/
FoamFile
{
    version     2.0;
    format      ascii;
    class       volScalarField;
    location    "2";
    object      k;
}
// * * * * * * * * * * * * * * * * * * * * * * * * * * * * * * * * * * * * * //

dimensions      [0 2 -2 0 0 0 0];

internalField   nonuniform List<scalar> 
400
(
7.58969e-08
6.32268e-07
1.44944e-06
2.49009e-06
4.13013e-06
6.87235e-06
1.18909e-05
2.18526e-05
4.21627e-05
8.08758e-05
0.000141145
0.000190828
0.000207827
0.000208979
0.000188723
0.000161424
0.000130598
0.000103851
5.92932e-05
2.88484e-05
7.72702e-07
8.65247e-06
1.25283e-05
1.1852e-05
1.1684e-05
1.2837e-05
1.59784e-05
2.22519e-05
3.37107e-05
5.61465e-05
8.97135e-05
0.000122723
0.00015105
0.000185245
0.000226642
0.000255514
0.000268288
0.000269662
0.00023059
0.000195948
3.4676e-06
3.84949e-05
5.52116e-05
4.87961e-05
4.02368e-05
3.44046e-05
3.05028e-05
3.0691e-05
4.02631e-05
6.58441e-05
0.000110751
0.000179067
0.000283665
0.00039687
0.000455218
0.000482739
0.000490522
0.00048929
0.000477444
0.000537265
9.82689e-06
0.000102515
0.000156419
0.000145544
0.000114583
8.84417e-05
6.15638e-05
5.05165e-05
5.6144e-05
9.58649e-05
0.000182948
0.00031445
0.000452904
0.000542596
0.00059897
0.000663502
0.000685153
0.000664698
0.000628145
0.000786004
1.91361e-05
0.00017806
0.000287774
0.000293575
0.000259657
0.000205847
0.000131612
9.22449e-05
9.19272e-05
0.000135635
0.0002364
0.000365836
0.000481492
0.000547174
0.000593244
0.000717897
0.000841663
0.000856185
0.000768602
0.000934451
2.97831e-05
0.000250841
0.000415992
0.000442338
0.000419487
0.000358138
0.000254682
0.000144353
0.000119033
0.000141825
0.000226241
0.000346308
0.000417982
0.000425313
0.00043056
0.000592324
0.000926934
0.00104261
0.000927244
0.0010839
4.00681e-05
0.000312345
0.000526931
0.000578289
0.000572193
0.000521849
0.000423881
0.000268711
0.000163426
0.000148982
0.000187278
0.000271055
0.00031303
0.000295892
0.000287468
0.000483548
0.000964805
0.00123657
0.00108046
0.00117733
4.88082e-05
0.00035868
0.000614431
0.000695294
0.00070698
0.000677492
0.000602957
0.000473096
0.000291532
0.000190327
0.000177456
0.000192667
0.000207277
0.000208406
0.000241351
0.000453806
0.00100922
0.0014373
0.00125648
0.00129858
5.55087e-05
0.000390037
0.000679233
0.000789121
0.000821537
0.000814759
0.000769121
0.000679387
0.00053865
0.000354009
0.00023542
0.000205615
0.000200721
0.000203392
0.000251393
0.000504342
0.00114501
0.0016178
0.00142112
0.00139291
6.01665e-05
0.000408287
0.000724557
0.000860223
0.000916247
0.000930342
0.000912128
0.000859199
0.000768204
0.000638799
0.000475235
0.000343459
0.000287149
0.000294115
0.000381439
0.000710165
0.00134879
0.00176399
0.00160158
0.00151964
6.30625e-05
0.000417407
0.000755264
0.000912938
0.00099076
0.00102541
0.00102984
0.00100598
0.000953013
0.000870807
0.000764795
0.00065319
0.000557023
0.000534529
0.000629716
0.00093491
0.00146768
0.00186202
0.00177116
0.00164629
6.46122e-05
0.000417838
0.000774801
0.000951634
0.00104827
0.00110156
0.00112468
0.00112122
0.00109474
0.00104238
0.000970084
0.000887104
0.000809529
0.000775236
0.000848223
0.00109112
0.00152026
0.00191588
0.00195152
0.0018045
6.54516e-05
0.000416043
0.000786092
0.000979881
0.00109281
0.0011617
0.00119981
0.00121145
0.0012003
0.00116682
0.00111199
0.00104417
0.000975214
0.000935651
0.000985757
0.00117278
0.00153186
0.00193881
0.00212526
0.00199136
6.63949e-05
0.000411427
0.000791774
0.00100043
0.00112745
0.00120941
0.00125951
0.00128245
0.00128062
0.00125863
0.00121326
0.0011526
0.00108681
0.0010407
0.00106874
0.00120676
0.00150062
0.00194123
0.00228535
0.00221914
6.80507e-05
0.000407537
0.000795254
0.00101623
0.00115542
0.00124869
0.00130911
0.0013415
0.00134771
0.00133312
0.00129597
0.00124019
0.00117593
0.00112185
0.00112705
0.00121918
0.00145313
0.00191681
0.00242587
0.00251454
7.15675e-05
0.000408625
0.000801278
0.00103066
0.00118084
0.00128566
0.00135757
0.00140134
0.00141885
0.00141356
0.00138898
0.00134314
0.00128518
0.00122885
0.00121048
0.00126502
0.00143946
0.00190583
0.00255231
0.00289408
7.91435e-05
0.000418917
0.000816705
0.0010576
0.00122398
0.00134673
0.0014373
0.00150098
0.0015395
0.0015559
0.00155239
0.00153416
0.0014974
0.00145472
0.00142344
0.00144767
0.00155882
0.00198556
0.00277846
0.00343017
0.000100517
0.000458525
0.000897944
0.00117529
0.00138125
0.00154448
0.00167485
0.0017809
0.0018623
0.00192603
0.00196847
0.00200293
0.00201556
0.00202286
0.00201915
0.0020382
0.00210014
0.00243546
0.00326342
0.00423169
0.000162475
0.000728609
0.00145002
0.00192511
0.00227032
0.00254309
0.00276211
0.00295556
0.00310982
0.00325614
0.00336336
0.00348106
0.0035556
0.00365295
0.0036968
0.00375994
0.0038301
0.00411249
0.00501978
0.00568201
0.00254821
0.0050867
0.00666506
0.00740114
0.00786703
0.00816282
0.00834913
0.00845904
0.00851757
0.00853303
0.00852502
0.00850645
0.00846226
0.00843897
0.00838831
0.00839301
0.00841657
0.00848204
0.00881032
0.0074283
)
;

boundaryField
{
    movingWall
    {
        type            kqRWallFunction;
        value           nonuniform List<scalar> 
20
(
0.00254821
0.0050867
0.00666506
0.00740114
0.00786703
0.00816282
0.00834913
0.00845904
0.00851757
0.00853303
0.00852502
0.00850645
0.00846226
0.00843897
0.00838831
0.00839301
0.00841657
0.00848204
0.00881032
0.0074283
)
;
    }
    fixedWalls
    {
        type            kqRWallFunction;
        value           nonuniform List<scalar> 
60
(
7.58969e-08
7.72702e-07
3.4676e-06
9.82689e-06
1.91361e-05
2.97831e-05
4.00681e-05
4.88082e-05
5.55087e-05
6.01665e-05
6.30625e-05
6.46122e-05
6.54516e-05
6.63949e-05
6.80507e-05
7.15675e-05
7.91435e-05
0.000100517
0.000162475
0.00254821
2.88484e-05
0.000195948
0.000537265
0.000786004
0.000934451
0.0010839
0.00117733
0.00129858
0.00139291
0.00151964
0.00164629
0.0018045
0.00199136
0.00221914
0.00251454
0.00289408
0.00343017
0.00423169
0.00568201
0.0074283
7.58969e-08
6.32268e-07
1.44944e-06
2.49009e-06
4.13013e-06
6.87235e-06
1.18909e-05
2.18526e-05
4.21627e-05
8.08758e-05
0.000141145
0.000190828
0.000207827
0.000208979
0.000188723
0.000161424
0.000130598
0.000103851
5.92932e-05
2.88484e-05
)
;
    }
    frontAndBack
    {
        type            empty;
    }
}


// ************************************************************************* //
