/*--------------------------------*- C++ -*----------------------------------*\
| =========                 |                                                 |
| \\      /  F ield         | OpenFOAM: The Open Source CFD Toolbox           |
|  \\    /   O peration     | Version:  3.0.0                                 |
|   \\  /    A nd           | Web:      www.OpenFOAM.org                      |
|    \\/     M anipulation  |                                                 |
\*---------------------------------------------------------------------------*/
FoamFile
{
    version     2.0;
    format      ascii;
    class       volScalarField;
    location    "2";
    object      nut;
}
// * * * * * * * * * * * * * * * * * * * * * * * * * * * * * * * * * * * * * //

dimensions      [0 2 -1 0 0 0 0];

internalField   nonuniform List<scalar> 
400
(
5.9294e-10
4.93929e-09
1.13221e-08
1.94491e-08
3.22537e-08
5.36542e-08
9.27907e-08
1.70363e-07
3.2807e-07
6.27024e-07
1.08819e-06
1.46441e-06
1.59231e-06
1.60094e-06
1.44842e-06
1.24203e-06
1.00776e-06
8.03364e-07
4.60616e-07
2.2476e-07
6.03628e-09
2.34879e-07
3.59102e-07
3.23074e-07
3.05741e-07
3.1195e-07
3.47205e-07
4.23947e-07
5.6913e-07
9.0536e-07
1.4514e-06
2.30097e-06
3.46619e-06
4.71061e-06
5.89602e-06
5.81537e-06
5.38546e-06
4.39132e-06
2.72309e-06
1.50285e-06
2.70815e-08
1.57014e-06
2.90637e-06
2.33052e-06
1.75616e-06
1.36898e-06
1.08284e-06
9.55076e-07
1.13976e-06
1.81948e-06
3.18636e-06
5.90567e-06
9.91749e-06
1.40182e-05
1.48936e-05
1.40134e-05
1.16496e-05
8.73253e-06
5.60635e-06
3.99538e-06
7.66994e-08
4.70385e-06
1.0782e-05
9.38076e-06
6.57265e-06
4.62269e-06
2.90235e-06
2.09631e-06
2.11202e-06
3.53927e-06
7.04555e-06
1.36798e-05
2.13091e-05
2.63649e-05
2.91167e-05
2.84413e-05
2.2946e-05
1.52247e-05
8.24685e-06
5.7207e-06
1.49224e-07
8.52123e-06
2.30122e-05
2.33438e-05
1.8391e-05
1.31973e-05
7.58415e-06
4.62689e-06
4.10827e-06
5.93634e-06
1.08143e-05
1.91158e-05
2.8304e-05
3.36674e-05
3.6631e-05
3.98798e-05
3.64848e-05
2.43704e-05
1.14128e-05
6.71805e-06
2.32011e-07
1.21071e-05
3.68314e-05
4.12247e-05
3.58779e-05
2.76337e-05
1.75029e-05
8.47885e-06
6.03304e-06
6.97719e-06
1.14917e-05
1.98759e-05
2.74218e-05
2.92756e-05
2.97619e-05
3.78171e-05
4.70109e-05
3.44284e-05
1.53394e-05
7.69835e-06
3.11823e-07
1.50002e-05
4.99162e-05
6.11214e-05
5.79976e-05
4.82482e-05
3.49794e-05
1.89957e-05
9.52698e-06
7.95886e-06
1.01357e-05
1.59752e-05
2.08028e-05
2.09493e-05
2.0533e-05
3.26284e-05
5.32004e-05
4.48334e-05
1.95534e-05
8.30021e-06
3.79522e-07
1.69891e-05
6.06095e-05
8.13364e-05
8.28238e-05
7.42514e-05
5.98795e-05
4.10297e-05
2.11349e-05
1.16989e-05
1.02457e-05
1.15842e-05
1.34976e-05
1.44311e-05
1.71754e-05
3.09564e-05
5.76336e-05
5.42027e-05
2.37304e-05
9.06877e-06
4.31345e-07
1.81069e-05
6.82648e-05
9.98705e-05
0.000108175
0.000103637
9.07232e-05
7.18828e-05
4.92937e-05
2.74416e-05
1.60008e-05
1.32846e-05
1.33443e-05
1.40488e-05
1.76911e-05
3.43617e-05
6.63614e-05
6.19786e-05
2.73431e-05
9.65722e-06
4.6733e-07
1.85516e-05
7.29754e-05
0.000114847
0.000132186
0.000133729
0.000124755
0.000108329
8.67354e-05
6.31282e-05
4.11315e-05
2.68894e-05
2.15093e-05
2.20558e-05
2.8523e-05
5.04967e-05
7.92093e-05
6.78917e-05
3.08943e-05
1.04358e-05
4.89688e-07
1.85876e-05
7.57565e-05
0.000125896
0.000153003
0.000162107
0.000158791
0.000146637
0.000128091
0.00010588
8.34497e-05
6.45645e-05
5.13549e-05
4.73199e-05
5.35798e-05
7.22723e-05
8.9436e-05
7.19406e-05
3.38252e-05
1.11996e-05
5.01645e-07
1.82692e-05
7.68926e-05
0.000133408
0.000169493
0.000186851
0.00019011
0.000183274
0.000168908
0.000149368
0.000127864
0.000107521
9.11569e-05
8.19622e-05
8.34408e-05
9.30082e-05
9.70545e-05
7.47742e-05
3.71045e-05
1.21362e-05
5.0812e-07
1.79338e-05
7.69502e-05
0.000137925
0.000181525
0.000206597
0.00021659
0.000215248
0.000205345
0.000189172
0.000169176
0.000148362
0.000129375
0.000115546
0.000110612
0.000109893
0.000103179
7.67214e-05
4.03557e-05
1.32165e-05
5.15395e-07
1.75424e-05
7.64991e-05
0.000140387
0.000188829
0.000219862
0.00023562
0.000239147
0.0002336
0.000220884
0.000202887
0.000182418
0.000161851
0.000144175
0.00013289
0.000122756
0.000106581
7.77577e-05
4.36185e-05
1.44996e-05
5.28164e-07
1.73617e-05
7.6099e-05
0.000141115
0.000191857
0.000225406
0.000243753
0.000249759
0.000246854
0.000236813
0.000221512
0.000202659
0.000182386
0.000162817
0.000146972
0.000129137
0.000105855
7.70147e-05
4.579e-05
1.61103e-05
5.55271e-07
1.74814e-05
7.58826e-05
0.000139154
0.000188048
0.000220136
0.000237871
0.000244494
0.000242959
0.000234625
0.000221982
0.000205479
0.000186961
0.000167735
0.000149733
0.000129593
0.000103255
7.39883e-05
4.5209e-05
1.81001e-05
6.13605e-07
1.83086e-05
7.50827e-05
0.000130576
0.000169089
0.000192225
0.000203959
0.000208023
0.000206293
0.000200322
0.000191416
0.000180307
0.000167087
0.00015234
0.000136955
0.000119259
9.48826e-05
6.83237e-05
4.49636e-05
2.07729e-05
7.77731e-07
1.95569e-05
6.86431e-05
0.000103102
0.000121546
0.000131585
0.000135911
0.00013725
0.000136518
0.000134184
0.000130771
0.000126362
0.000121087
0.000114386
0.000107219
9.74863e-05
8.19345e-05
6.15939e-05
4.36268e-05
2.45092e-05
1.24979e-06
2.19549e-05
4.79831e-05
5.95906e-05
6.52539e-05
6.87731e-05
7.09562e-05
7.2455e-05
7.34024e-05
7.39901e-05
7.42246e-05
7.41801e-05
7.39086e-05
7.31033e-05
7.192e-05
6.97734e-05
6.36105e-05
5.25093e-05
4.33345e-05
3.06299e-05
1.62903e-05
2.82061e-05
3.44041e-05
3.70672e-05
3.86894e-05
3.96957e-05
4.03205e-05
4.0686e-05
4.08797e-05
4.09306e-05
4.09042e-05
4.08428e-05
4.06965e-05
4.06193e-05
4.04511e-05
4.04669e-05
4.05454e-05
4.07628e-05
4.18406e-05
3.71631e-05
)
;

boundaryField
{
    movingWall
    {
        type            nutkWallFunction;
        Cmu             0.09;
        kappa           0.41;
        E               9.8;
        value           nonuniform List<scalar> 
20
(
0
0
0
1.70688e-07
4.18948e-07
5.72189e-07
6.67068e-07
7.22472e-07
7.51807e-07
7.59534e-07
7.55533e-07
7.46243e-07
7.2409e-07
7.12383e-07
6.86864e-07
6.89239e-07
7.01115e-07
7.34012e-07
8.96809e-07
1.85402e-07
)
;
    }
    fixedWalls
    {
        type            nutkWallFunction;
        Cmu             0.09;
        kappa           0.41;
        E               9.8;
        value           nonuniform List<scalar> 
60
(
0
0
0
0
0
0
0
0
0
0
0
0
0
0
0
0
0
0
0
0
0
0
0
0
0
0
0
0
0
0
0
0
0
0
0
0
0
0
0
1.85402e-07
0
0
0
0
0
0
0
0
0
0
0
0
0
0
0
0
0
0
0
0
)
;
    }
    frontAndBack
    {
        type            empty;
    }
}


// ************************************************************************* //
