/*--------------------------------*- C++ -*----------------------------------*\
| =========                 |                                                 |
| \\      /  F ield         | OpenFOAM: The Open Source CFD Toolbox           |
|  \\    /   O peration     | Version:  3.0.0                                 |
|   \\  /    A nd           | Web:      www.OpenFOAM.org                      |
|    \\/     M anipulation  |                                                 |
\*---------------------------------------------------------------------------*/
FoamFile
{
    version     2.0;
    format      ascii;
    class       volScalarField;
    location    "2";
    object      omega;
}
// * * * * * * * * * * * * * * * * * * * * * * * * * * * * * * * * * * * * * //

dimensions      [0 0 -1 0 0 0 0];

internalField   nonuniform List<scalar> 
400
(
128.001
128.008
128.018
128.031
128.052
128.086
128.148
128.27
128.517
128.984
129.706
130.31
130.52
130.536
130.296
129.967
129.593
129.27
128.726
128.352
128.01
36.8379
34.8878
36.6851
38.2153
41.1508
46.0201
52.4875
59.2319
62.0156
61.8115
53.3352
43.5781
39.325
38.4398
43.9377
49.8171
61.408
84.6796
130.384
128.043
24.5169
18.9968
20.9379
22.9118
25.1316
28.1691
32.1346
35.326
36.1884
34.7577
30.3213
28.6025
28.3111
30.5646
34.4484
42.1064
56.0307
85.1614
134.472
128.122
21.7939
14.5074
15.5152
17.4332
19.1321
21.2117
24.0978
26.5831
27.086
25.9665
22.9865
21.254
20.5802
20.5714
23.3289
29.8594
43.6591
76.1679
137.396
128.238
20.8961
12.5052
12.5761
14.1187
15.5977
17.3536
19.9367
22.3762
22.8482
21.86
19.1379
17.0115
16.2524
16.1952
18.0015
23.0688
35.1322
67.3456
139.096
128.369
20.7184
11.2945
10.7299
11.6921
12.9602
14.5508
17.0251
19.7302
20.3269
19.6874
17.4235
15.2427
14.5279
14.4668
15.6629
19.7174
30.2834
60.4487
140.797
128.496
20.8227
10.5563
9.46133
9.86581
10.8159
12.118
14.1459
17.154
18.719
18.4771
16.9673
15.0475
14.1242
14.0003
14.8198
18.1353
27.5813
55.2569
141.843
128.605
21.1124
10.1375
8.54837
8.53594
9.1243
10.0695
11.5306
13.7939
16.2688
17.32
16.6318
15.3566
14.4415
14.0521
14.6595
17.5109
26.5171
52.9483
143.192
128.687
21.5408
9.94998
7.90144
7.59451
7.86164
8.47767
9.45131
10.9274
12.9005
14.713
15.4776
15.0418
14.4776
14.2101
14.6775
17.2542
26.1026
51.9738
144.235
128.745
22.0082
9.92879
7.49017
6.93147
6.9569
7.31134
7.93138
8.85687
10.1191
11.554
12.773
13.35
13.335
13.373
14.0636
17.0281
25.9824
51.8405
145.617
128.781
22.4562
9.96963
7.25154
6.47542
6.32548
6.4855
6.86037
7.44012
8.22448
9.16475
10.1169
10.8466
11.2961
11.7529
12.9359
16.4103
25.8827
52.3623
146.996
128.801
22.8712
10.0764
7.13326
6.18477
5.89537
5.91594
6.11773
6.48125
6.9786
7.58682
8.25055
8.88061
9.45846
10.1656
11.7314
15.664
25.6222
52.5953
148.687
128.811
23.1988
10.2156
7.10444
6.02017
5.62304
5.53953
5.62816
5.84528
6.16805
6.57296
7.03795
7.53792
8.09763
8.91184
10.672
14.8466
25.2708
52.6631
150.673
128.823
23.4533
10.3501
7.12627
5.97071
5.50078
5.34549
5.36258
5.48211
5.69815
5.97998
6.31846
6.71488
7.21828
8.04229
9.83057
14.0796
24.9651
52.3939
153.048
128.844
23.4734
10.4503
7.20142
6.0223
5.53976
5.37065
5.37119
5.45955
5.62943
5.85057
6.11962
6.44749
6.8902
7.6685
9.44099
13.7275
24.8889
52.9782
156.083
128.888
23.3749
10.5594
7.40663
6.27946
5.84033
5.70714
5.73162
5.83986
6.02476
6.25717
6.53664
6.87406
7.32616
8.08424
9.76142
13.9408
25.7585
56.4558
159.893
128.981
22.8809
10.8774
8.0995
7.23867
7.006
7.047
7.21548
7.46271
7.767
8.11003
8.50858
8.96183
9.54917
10.3935
12.1389
16.4289
29.0611
61.7936
165.127
129.244
23.4458
13.0814
11.3993
11.364
11.7375
12.3231
12.9756
13.6414
14.3537
15.0529
15.8507
16.6455
17.6844
18.832
20.9076
25.6319
39.5407
74.8032
172.657
130.002
33.1866
30.2195
32.3056
34.792
36.9779
38.927
40.7917
42.3668
44.0078
45.3132
46.9272
48.1081
49.9697
51.4016
53.8879
60.2118
78.3193
115.838
185.505
156.424
180.34
193.729
199.668
203.338
205.635
207.069
207.91
208.357
208.475
208.415
208.273
207.936
207.758
207.369
207.405
207.584
208.083
210.569
199.884
)
;

boundaryField
{
    movingWall
    {
        Cmu             0.09;
        kappa           0.41;
        E               9.8;
        beta1           0.075;
        type            omegaWallFunction;
        value           nonuniform List<scalar> 
20
(
156.424
180.34
193.729
199.668
203.338
205.635
207.069
207.91
208.357
208.475
208.415
208.273
207.936
207.758
207.369
207.405
207.584
208.083
210.569
199.884
)
;
    }
    fixedWalls
    {
        Cmu             0.09;
        kappa           0.41;
        E               9.8;
        beta1           0.075;
        type            omegaWallFunction;
        value           nonuniform List<scalar> 
60
(
128.001
128.01
128.043
128.122
128.238
128.369
128.496
128.605
128.687
128.745
128.781
128.801
128.811
128.823
128.844
128.888
128.981
129.244
130.002
156.424
128.352
130.384
134.472
137.396
139.096
140.797
141.843
143.192
144.235
145.617
146.996
148.687
150.673
153.048
156.083
159.893
165.127
172.657
185.505
199.884
128.001
128.008
128.018
128.031
128.052
128.086
128.148
128.27
128.517
128.984
129.706
130.31
130.52
130.536
130.296
129.967
129.593
129.27
128.726
128.352
)
;
    }
    frontAndBack
    {
        type            empty;
    }
}


// ************************************************************************* //
