/*--------------------------------*- C++ -*----------------------------------*\
| =========                 |                                                 |
| \\      /  F ield         | OpenFOAM: The Open Source CFD Toolbox           |
|  \\    /   O peration     | Version:  3.0.0                                 |
|   \\  /    A nd           | Web:      www.OpenFOAM.org                      |
|    \\/     M anipulation  |                                                 |
\*---------------------------------------------------------------------------*/
FoamFile
{
    version     2.0;
    format      ascii;
    class       volScalarField;
    location    "2";
    object      p;
}
// * * * * * * * * * * * * * * * * * * * * * * * * * * * * * * * * * * * * * //

dimensions      [0 2 -2 0 0 0 0];

internalField   nonuniform List<scalar> 
400
(
2.75152e-07
1.37808e-06
2.26509e-06
-8.81804e-06
-5.02427e-05
-0.00012673
-0.000229197
-0.000334744
-0.000420141
-0.000503954
-0.000673447
-0.000979516
-0.00117381
-0.000861754
1.12789e-05
0.00145983
0.00335919
0.00523303
0.00643763
0.00669813
2.47924e-06
1.0364e-05
2.42841e-05
2.90143e-05
-4.93939e-07
-7.53253e-05
-0.000193673
-0.00034298
-0.000515522
-0.000756353
-0.00114873
-0.00164198
-0.00190426
-0.00162023
-0.000807369
0.000571903
0.00238205
0.0042511
0.0057371
0.00650695
-1.94779e-05
-1.06258e-05
8.40679e-06
2.09698e-05
-3.44616e-06
-8.26357e-05
-0.000225242
-0.00043803
-0.00075202
-0.00126004
-0.0020116
-0.00280916
-0.00329509
-0.00317529
-0.00243496
-0.00118935
0.000447942
0.00231198
0.00412209
0.00527311
-7.34479e-05
-7.29445e-05
-6.25027e-05
-5.49191e-05
-8.40649e-05
-0.000176098
-0.000353223
-0.000646994
-0.00112563
-0.0018984
-0.00300834
-0.00418542
-0.00492291
-0.00485995
-0.00416605
-0.00305008
-0.0016188
4.39272e-05
0.00182838
0.00307647
-0.000166825
-0.000181363
-0.000194179
-0.000208078
-0.000256114
-0.000371427
-0.00058678
-0.000961373
-0.00159509
-0.00257689
-0.00393533
-0.0053236
-0.00614573
-0.00615836
-0.00554723
-0.00454008
-0.00331438
-0.00192794
-0.000402829
0.000749614
-0.000300051
-0.000330907
-0.00037527
-0.000421507
-0.00049851
-0.000645141
-0.000893658
-0.00131681
-0.00203362
-0.00311061
-0.00453458
-0.00600045
-0.00691001
-0.0070135
-0.0064847
-0.00557254
-0.00452201
-0.00340909
-0.00225495
-0.00120017
-0.00046642
-0.00050966
-0.000583339
-0.000662438
-0.000768831
-0.000944949
-0.00122166
-0.00164712
-0.00233575
-0.00338469
-0.00472188
-0.0061334
-0.00707321
-0.00725849
-0.00681457
-0.00600432
-0.00514958
-0.00429727
-0.00346267
-0.0025838
-0.000653684
-0.000702735
-0.000795412
-0.000898346
-0.00102568
-0.00121777
-0.00150424
-0.00191542
-0.00251328
-0.00339481
-0.00453139
-0.00571865
-0.00657143
-0.006816
-0.00647963
-0.00583351
-0.00523313
-0.00463596
-0.00409898
-0.00341264
-0.00084754
-0.000896617
-0.00099516
-0.00110879
-0.00124494
-0.00143724
-0.00171129
-0.00208746
-0.00258882
-0.00326664
-0.00409387
-0.00494285
-0.00557646
-0.00583279
-0.0056661
-0.00530873
-0.00497642
-0.00458782
-0.00429676
-0.00377319
-0.00103548
-0.00108083
-0.00117403
-0.00128577
-0.00141944
-0.00160048
-0.00184828
-0.00217402
-0.00258531
-0.00308785
-0.00365833
-0.00422274
-0.00465913
-0.00484028
-0.00484501
-0.00471919
-0.00459739
-0.00430984
-0.00423837
-0.00380727
-0.00120934
-0.00124856
-0.00132915
-0.00142938
-0.00155218
-0.00171605
-0.00193405
-0.00221144
-0.00254683
-0.00293115
-0.00333873
-0.00372806
-0.00403392
-0.00419183
-0.00424417
-0.00423943
-0.00422217
-0.00393398
-0.00405724
-0.00360078
-0.00136487
-0.00139596
-0.00146006
-0.00154289
-0.00164952
-0.00179445
-0.00198514
-0.00222242
-0.00250097
-0.00280848
-0.00312187
-0.0034092
-0.00363402
-0.00377282
-0.00383632
-0.003862
-0.00387762
-0.00350908
-0.00383227
-0.00320168
-0.00150173
-0.00152233
-0.0015676
-0.00162931
-0.00171747
-0.0018434
-0.00201086
-0.00221725
-0.00245486
-0.00271075
-0.00296532
-0.00319367
-0.00337096
-0.00348471
-0.00354271
-0.00356075
-0.00357419
-0.00307601
-0.00362325
-0.00264727
-0.00162298
-0.00162936
-0.0016527
-0.00169099
-0.00175934
-0.00186714
-0.00201541
-0.00219887
-0.00240799
-0.00262952
-0.00284638
-0.00303866
-0.00318592
-0.00327928
-0.00332154
-0.00331244
-0.00329795
-0.00265386
-0.00338742
-0.00196414
-0.00173271
-0.00171891
-0.00171498
-0.00172836
-0.00177605
-0.00186647
-0.00199867
-0.00216542
-0.00235599
-0.00255664
-0.00275109
-0.00292189
-0.00305401
-0.00313366
-0.00315274
-0.00310028
-0.00303053
-0.00224908
-0.00304973
-0.00121002
-0.00183992
-0.00178815
-0.00175278
-0.00173666
-0.00176104
-0.00183268
-0.00194991
-0.00210477
-0.0022859
-0.00247878
-0.00266719
-0.00283269
-0.00296044
-0.00303103
-0.00302612
-0.00291449
-0.00274633
-0.00179807
-0.00254836
-0.000226277
-0.0019592
-0.00184775
-0.00177446
-0.00170437
-0.00169104
-0.00173664
-0.00183831
-0.00198677
-0.00216939
-0.00236925
-0.00256941
-0.00274811
-0.00288709
-0.00295831
-0.00293435
-0.00274157
-0.00240924
-0.00122712
-0.00164287
0.00197335
-0.00206403
-0.00182459
-0.00173085
-0.00158076
-0.00152515
-0.0015519
-0.00164855
-0.0018015
-0.0019974
-0.00221529
-0.00243937
-0.00264281
-0.00280736
-0.00288858
-0.00285076
-0.00255513
-0.00197331
-0.000401877
0.000437465
0.00789926
-0.00312159
-0.00258799
-0.00217063
-0.00173482
-0.00151476
-0.00145459
-0.00150936
-0.00164397
-0.00183888
-0.00206249
-0.00230294
-0.00252058
-0.00270637
-0.00279039
-0.00274353
-0.00236447
-0.00138593
0.00106037
0.00494495
0.0186324
-0.000940076
0.00116334
0.000587338
2.20489e-05
-0.00032239
-0.000558154
-0.000794529
-0.00106253
-0.00135704
-0.00166277
-0.00195983
-0.00223149
-0.00243327
-0.00251487
-0.0023328
-0.00174415
-7.06434e-05
0.00409842
0.0123842
0.0288196
)
;

boundaryField
{
    movingWall
    {
        type            zeroGradient;
    }
    fixedWalls
    {
        type            zeroGradient;
    }
    frontAndBack
    {
        type            empty;
    }
}


// ************************************************************************* //
