/*--------------------------------*- C++ -*----------------------------------*\
| =========                 |                                                 |
| \\      /  F ield         | OpenFOAM: The Open Source CFD Toolbox           |
|  \\    /   O peration     | Version:  3.0.0                                 |
|   \\  /    A nd           | Web:      www.OpenFOAM.org                      |
|    \\/     M anipulation  |                                                 |
\*---------------------------------------------------------------------------*/
FoamFile
{
    version     2.0;
    format      ascii;
    class       surfaceScalarField;
    location    "2";
    object      phi;
}
// * * * * * * * * * * * * * * * * * * * * * * * * * * * * * * * * * * * * * //

dimensions      [0 3 -1 0 0 0 0];

internalField   nonuniform List<scalar> 
760
(
-4.32894e-08
4.32626e-08
-1.22043e-07
7.87532e-08
-2.26447e-07
1.04402e-07
-3.31834e-07
1.05386e-07
-4.3998e-07
1.08146e-07
-5.78721e-07
1.38741e-07
-7.92465e-07
2.13744e-07
-1.13655e-06
3.44081e-07
-1.66751e-06
5.30966e-07
-2.41989e-06
7.52374e-07
-3.34531e-06
9.25422e-07
-4.25332e-06
9.08016e-07
-4.90192e-06
6.486e-07
-5.16186e-06
2.59933e-07
-5.04396e-06
-1.17898e-07
-4.48581e-06
-5.5815e-07
-3.55286e-06
-9.32951e-07
-2.22196e-06
-1.3309e-06
-7.65596e-07
-1.45636e-06
-7.65595e-07
-8.37773e-08
1.2704e-07
-2.54214e-07
2.49189e-07
-5.12146e-07
3.62334e-07
-8.19843e-07
4.13082e-07
-1.16186e-06
4.50165e-07
-1.55437e-06
5.31247e-07
-2.02619e-06
6.85565e-07
-2.61082e-06
9.28714e-07
-3.33517e-06
1.25531e-06
-4.18292e-06
1.60012e-06
-5.03143e-06
1.77393e-06
-5.67496e-06
1.55154e-06
-5.98844e-06
9.62083e-07
-5.97813e-06
2.49623e-07
-5.67419e-06
-4.21838e-07
-5.13316e-06
-1.09917e-06
-4.24925e-06
-1.81686e-06
-3.05599e-06
-2.52417e-06
-1.47496e-06
-3.03739e-06
-2.24055e-06
-1.22772e-07
2.49813e-07
-3.56804e-07
4.83222e-07
-6.92622e-07
6.98152e-07
-1.09996e-06
8.20417e-07
-1.55467e-06
9.04875e-07
-2.04647e-06
1.02305e-06
-2.57914e-06
1.21824e-06
-3.17367e-06
1.52324e-06
-3.84439e-06
1.92604e-06
-4.53569e-06
2.29142e-06
-5.12992e-06
2.36816e-06
-5.5256e-06
1.94723e-06
-5.65596e-06
1.09244e-06
-5.50792e-06
1.01587e-07
-5.16853e-06
-7.61233e-07
-4.66044e-06
-1.60726e-06
-3.98152e-06
-2.49578e-06
-3.06122e-06
-3.44447e-06
-1.78649e-06
-4.31211e-06
-4.02705e-06
-1.61921e-07
4.11734e-07
-4.29456e-07
7.50758e-07
-7.68216e-07
1.03691e-06
-1.17161e-06
1.22382e-06
-1.62922e-06
1.36248e-06
-2.11813e-06
1.51196e-06
-2.62191e-06
1.72202e-06
-3.14338e-06
2.0447e-06
-3.69275e-06
2.47542e-06
-4.20317e-06
2.80184e-06
-4.57811e-06
2.74311e-06
-4.72262e-06
2.09173e-06
-4.65158e-06
1.02141e-06
-4.43035e-06
-1.19647e-07
-4.0776e-06
-1.11398e-06
-3.62496e-06
-2.0599e-06
-3.12062e-06
-3.00012e-06
-2.49242e-06
-4.07267e-06
-1.49888e-06
-5.30565e-06
-5.52592e-06
-1.86301e-07
5.98036e-07
-4.55988e-07
1.02045e-06
-7.55542e-07
1.33647e-06
-1.09266e-06
1.56094e-06
-1.47167e-06
1.7415e-06
-1.87619e-06
1.91647e-06
-2.28039e-06
2.12622e-06
-2.66058e-06
2.4249e-06
-3.01868e-06
2.83351e-06
-3.28495e-06
3.06811e-06
-3.44701e-06
2.90517e-06
-3.48651e-06
2.13123e-06
-3.42503e-06
9.59928e-07
-3.26003e-06
-2.84647e-07
-2.97531e-06
-1.3987e-06
-2.62349e-06
-2.41172e-06
-2.27535e-06
-3.34825e-06
-1.86847e-06
-4.47955e-06
-1.1929e-06
-5.98122e-06
-6.71882e-06
-1.89315e-07
7.87352e-07
-4.36659e-07
1.26779e-06
-6.80445e-07
1.58025e-06
-9.3065e-07
1.81114e-06
-1.19562e-06
2.00647e-06
-1.46875e-06
2.1896e-06
-1.73056e-06
2.38803e-06
-1.9473e-06
2.64164e-06
-2.07973e-06
2.96593e-06
-2.11723e-06
3.10561e-06
-2.14066e-06
2.92861e-06
-2.16312e-06
2.15368e-06
-2.1584e-06
9.55215e-07
-2.09368e-06
-3.49367e-07
-1.91763e-06
-1.57475e-06
-1.70687e-06
-2.62248e-06
-1.52925e-06
-3.52587e-06
-1.33512e-06
-4.67369e-06
-9.07279e-07
-6.40906e-06
-7.6261e-06
-1.74008e-07
9.61361e-07
-3.84597e-07
1.47838e-06
-5.70294e-07
1.76595e-06
-7.37175e-07
1.97802e-06
-8.90684e-07
2.15998e-06
-1.02716e-06
2.32607e-06
-1.12922e-06
2.49009e-06
-1.16191e-06
2.67433e-06
-1.09301e-06
2.89703e-06
-9.74522e-07
2.98712e-06
-8.53062e-07
2.80715e-06
-8.21269e-07
2.12189e-06
-8.47361e-07
9.81307e-07
-8.86533e-07
-3.10194e-07
-8.77042e-07
-1.58424e-06
-8.62537e-07
-2.63699e-06
-8.55059e-07
-3.53335e-06
-8.04112e-07
-4.72463e-06
-6.4003e-07
-6.57314e-06
-8.26613e-06
-1.47817e-07
1.10918e-06
-3.1578e-07
1.64634e-06
-4.48268e-07
1.89844e-06
-5.46461e-07
2.07622e-06
-6.12139e-07
2.22566e-06
-6.41863e-07
2.3558e-06
-6.22405e-07
2.47064e-06
-5.24363e-07
2.57629e-06
-3.02859e-07
2.67552e-06
-1.23396e-08
2.6966e-06
2.73494e-07
2.52131e-06
4.3105e-07
1.96434e-06
4.21909e-07
9.90449e-07
2.85002e-07
-1.73287e-07
9.72248e-08
-1.39646e-06
-1.62554e-07
-2.37721e-06
-3.6821e-07
-3.3277e-06
-4.8116e-07
-4.61168e-06
-4.58627e-07
-6.59567e-06
-8.72476e-06
-1.17747e-07
1.22693e-06
-2.4308e-07
1.77168e-06
-3.30065e-07
1.98542e-06
-3.76391e-07
2.12254e-06
-3.81683e-07
2.23095e-06
-3.431e-07
2.31721e-06
-2.52332e-07
2.37987e-06
-9.14183e-08
2.41538e-06
1.68705e-07
2.4154e-06
5.20955e-07
2.34435e-06
9.03525e-07
2.13874e-06
1.17026e-06
1.6976e-06
1.21714e-06
9.43575e-07
1.03866e-06
5.18804e-09
6.82723e-07
-1.04053e-06
2.89244e-07
-1.98373e-06
-3.26594e-08
-3.00579e-06
-2.43182e-07
-4.40116e-06
-3.20827e-07
-6.51802e-06
-9.04559e-06
-8.73854e-08
1.31431e-06
-1.74934e-07
1.85923e-06
-2.24559e-07
2.03505e-06
-2.33373e-07
2.13136e-06
-2.00622e-07
2.1982e-06
-1.25141e-07
2.24173e-06
-3.67635e-09
2.2584e-06
1.70033e-07
2.24167e-06
4.05401e-07
2.18003e-06
6.99366e-07
2.05039e-06
1.01881e-06
1.8193e-06
1.2728e-06
1.4436e-06
1.34352e-06
8.72862e-07
1.20555e-06
1.4316e-07
8.49104e-07
-6.84085e-07
4.48593e-07
-1.58322e-06
1.06195e-07
-2.66339e-06
-1.31846e-07
-4.16312e-06
-2.47399e-07
-6.40247e-06
-9.29299e-06
-6.08216e-08
1.37513e-06
-1.16815e-07
1.91522e-06
-1.36054e-07
2.05429e-06
-1.17519e-07
2.11282e-06
-6.13396e-08
2.14202e-06
3.17708e-08
2.14862e-06
1.60644e-07
2.12953e-06
3.24838e-07
2.07748e-06
5.22348e-07
1.98252e-06
7.43181e-07
1.82955e-06
9.63271e-07
1.59921e-06
1.13683e-06
1.27004e-06
1.18502e-06
8.24675e-07
1.06785e-06
2.60327e-07
8.03149e-07
-4.19383e-07
4.82483e-07
-1.26255e-06
1.70491e-07
-2.3514e-06
-7.19296e-08
-3.9207e-06
-2.20141e-07
-6.25426e-06
-9.51313e-06
-3.92599e-08
1.41439e-06
-7.05994e-08
1.94656e-06
-6.5577e-08
2.04927e-06
-2.60623e-08
2.07331e-06
4.56703e-08
2.07029e-06
1.46867e-07
2.04743e-06
2.74288e-07
2.00211e-06
4.23248e-07
1.92851e-06
5.87092e-07
1.81868e-06
7.53974e-07
1.66267e-06
9.03918e-07
1.44926e-06
1.00673e-06
1.16723e-06
1.02574e-06
8.05667e-07
9.34527e-07
3.51536e-07
7.45083e-07
-2.29939e-07
4.87725e-07
-1.00519e-06
2.02715e-07
-2.06639e-06
-4.51902e-08
-3.67279e-06
-2.011e-07
-6.09835e-06
-9.71423e-06
-2.80048e-08
1.4424e-06
-3.82474e-08
1.9568e-06
-1.28861e-08
2.02391e-06
4.45696e-08
2.01585e-06
1.28956e-07
1.9859e-06
2.3616e-07
1.94022e-06
3.61184e-07
1.87708e-06
4.97864e-07
1.79183e-06
6.38158e-07
1.67838e-06
7.70862e-07
1.52997e-06
8.80537e-07
1.33959e-06
9.47722e-07
1.10005e-06
9.52042e-07
8.01346e-07
8.79288e-07
4.2429e-07
7.28385e-07
-7.90369e-08
5.06953e-07
-7.8376e-07
2.42572e-07
-1.80201e-06
-1.6271e-08
-3.41395e-06
-1.86622e-07
-5.928e-06
-9.90085e-06
-2.46987e-08
1.4671e-06
-2.16076e-08
1.95371e-06
2.32467e-08
1.97905e-06
9.81227e-08
1.94097e-06
1.96174e-07
1.88785e-06
3.11487e-07
1.82491e-06
4.38288e-07
1.75028e-06
5.69989e-07
1.66013e-06
6.98561e-07
1.54981e-06
8.1418e-07
1.41435e-06
9.05184e-07
1.24859e-06
9.58566e-07
1.04666e-06
9.60073e-07
7.99839e-07
8.99338e-07
4.85024e-07
7.68867e-07
5.14344e-08
5.68393e-07
-5.83286e-07
3.15146e-07
-1.54877e-06
4.05682e-08
-3.13937e-06
-1.06805e-07
-5.78063e-06
-1.00077e-05
-4.14647e-08
1.50856e-06
-2.27496e-08
1.935e-06
4.26113e-08
1.91369e-06
1.38284e-07
1.8453e-06
2.54097e-07
1.77204e-06
3.83181e-07
1.69582e-06
5.19362e-07
1.6141e-06
6.56036e-07
1.52346e-06
7.8553e-07
1.42032e-06
8.99151e-07
1.30073e-06
9.87077e-07
1.16066e-06
1.03903e-06
9.9471e-07
1.04546e-06
7.93405e-07
9.9709e-07
5.33398e-07
8.80999e-07
1.67526e-07
6.92016e-07
-3.94304e-07
4.40781e-07
-1.29753e-06
1.72786e-07
-2.87138e-06
1.59972e-08
-5.62384e-06
-9.99166e-06
-6.906e-08
1.57762e-06
-4.40823e-08
1.91002e-06
4.61637e-08
1.82345e-06
1.6965e-07
1.72181e-06
3.11723e-07
1.62997e-06
4.64723e-07
1.54282e-06
6.2185e-07
1.45698e-06
7.76385e-07
1.36892e-06
9.2099e-07
1.27571e-06
1.04805e-06
1.17366e-06
1.14896e-06
1.05975e-06
1.21524e-06
9.28427e-07
1.23742e-06
7.71226e-07
1.205e-06
5.65824e-07
1.10181e-06
2.70713e-07
9.20707e-07
-2.13199e-07
6.62155e-07
-1.03898e-06
3.64984e-07
-2.57421e-06
1.39331e-07
-5.39819e-06
-9.85233e-06
-1.76717e-07
1.75434e-06
-1.16652e-07
1.84995e-06
2.60172e-08
1.68078e-06
2.01064e-07
1.54677e-06
3.9036e-07
1.44067e-06
5.86553e-07
1.34663e-06
7.83139e-07
1.26039e-06
9.74003e-07
1.17806e-06
1.15227e-06
1.09744e-06
1.31192e-06
1.01402e-06
1.44495e-06
9.26726e-07
1.54441e-06
8.28959e-07
1.59933e-06
7.16313e-07
1.59869e-06
5.66458e-07
1.51947e-06
3.49936e-07
1.35447e-06
-4.82009e-08
1.07051e-06
-7.55021e-07
6.83634e-07
-2.18733e-06
3.04807e-07
-5.01936e-06
-9.54752e-06
-2.90439e-07
2.04478e-06
-1.18702e-07
1.67821e-06
1.015e-07
1.46057e-06
3.5158e-07
1.29669e-06
6.16061e-07
1.17619e-06
8.85044e-07
1.07765e-06
1.15061e-06
9.94823e-07
1.4073e-06
9.21372e-07
1.64767e-06
8.57067e-07
1.86853e-06
7.9316e-07
2.06111e-06
7.34144e-07
2.22323e-06
6.66841e-07
2.34032e-06
5.99218e-07
2.40641e-06
5.00375e-07
2.38263e-06
3.73716e-07
2.2694e-06
6.50304e-08
1.96271e-06
-4.48329e-07
1.46154e-06
-1.68617e-06
7.15634e-07
-4.27345e-06
-8.83188e-06
-2.43349e-07
2.28813e-06
5.27383e-08
1.38213e-06
5.22376e-07
9.90937e-07
1.00838e-06
8.10681e-07
1.46704e-06
7.17527e-07
1.89969e-06
6.44996e-07
2.30639e-06
5.88127e-07
2.69135e-06
5.36414e-07
3.04726e-06
5.0115e-07
3.38196e-06
4.58462e-07
3.68033e-06
4.35772e-07
3.9568e-06
3.9037e-07
4.1831e-06
3.72919e-07
4.38369e-06
2.99792e-07
4.49978e-06
2.57618e-07
4.49634e-06
6.84726e-08
4.28242e-06
-2.34407e-07
3.69008e-06
-1.09382e-06
2.16958e-06
-2.75295e-06
-6.66231e-06
2.28813e-06
3.67025e-06
4.66119e-06
5.47187e-06
6.1894e-06
6.83439e-06
7.42252e-06
7.95894e-06
8.46009e-06
8.91855e-06
9.35432e-06
9.74469e-06
1.01176e-05
1.04174e-05
1.0675e-05
1.07435e-05
1.05091e-05
9.41526e-06
6.66231e-06
)
;

boundaryField
{
    movingWall
    {
        type            calculated;
        value           uniform 0;
    }
    fixedWalls
    {
        type            calculated;
        value           uniform 0;
    }
    frontAndBack
    {
        type            empty;
        value           nonuniform 0();
    }
}


// ************************************************************************* //
