/*--------------------------------*- C++ -*----------------------------------*\
| =========                 |                                                 |
| \\      /  F ield         | OpenFOAM: The Open Source CFD Toolbox           |
|  \\    /   O peration     | Version:  3.0.0                                 |
|   \\  /    A nd           | Web:      www.OpenFOAM.org                      |
|    \\/     M anipulation  |                                                 |
\*---------------------------------------------------------------------------*/
FoamFile
{
    version     2.0;
    format      ascii;
    class       volVectorField;
    location    "2";
    object      U;
}
// * * * * * * * * * * * * * * * * * * * * * * * * * * * * * * * * * * * * * //

dimensions      [0 1 -1 0 0 0 0];

internalField   nonuniform List<vector> 
400
(
(-0.000300586 0.000305603 0)
(-0.00144757 0.000407818 0)
(-0.00332576 0.000336054 0)
(-0.0055038 9.06065e-05 0)
(-0.0076102 -8.40632e-05 0)
(-0.00999448 -1.1186e-05 0)
(-0.0133566 0.000474593 0)
(-0.0186388 0.00155752 0)
(-0.0269149 0.00345982 0)
(-0.0393655 0.00638044 0)
(-0.0570962 0.00972664 0)
(-0.0787298 0.0111649 0)
(-0.0953207 0.00918693 0)
(-0.102538 0.00589305 0)
(-0.104054 0.00136017 0)
(-0.0956254 -0.00406911 0)
(-0.0789073 -0.0061928 0)
(-0.057221 -0.0116377 0)
(-0.0288168 -0.011996 0)
(-0.00484156 -0.00474761 0)
(-0.000505288 0.0015569 0)
(-0.00287933 0.00296455 0)
(-0.0071397 0.0041697 0)
(-0.0129862 0.0045296 0)
(-0.0195217 0.00486867 0)
(-0.0268229 0.00609177 0)
(-0.0354093 0.00868678 0)
(-0.0458201 0.0128345 0)
(-0.0584959 0.0182795 0)
(-0.0741909 0.0238645 0)
(-0.0932018 0.0268214 0)
(-0.111274 0.0242456 0)
(-0.120295 0.0165135 0)
(-0.121301 0.00498346 0)
(-0.117275 -0.00587146 0)
(-0.107759 -0.0176571 0)
(-0.0928416 -0.0301812 0)
(-0.0719513 -0.0405358 0)
(-0.0466505 -0.043899 0)
(-0.0127312 -0.0224757 0)
(-0.000722795 0.0036095 0)
(-0.0042768 0.00712162 0)
(-0.00985857 0.010508 0)
(-0.0174311 0.0122381 0)
(-0.0262107 0.0134234 0)
(-0.0357341 0.0154954 0)
(-0.0459575 0.0191472 0)
(-0.0569447 0.0248102 0)
(-0.0691254 0.0323596 0)
(-0.0833919 0.0397608 0)
(-0.098828 0.042244 0)
(-0.110098 0.0354234 0)
(-0.114971 0.0197157 0)
(-0.113115 0.00320266 0)
(-0.106481 -0.0132273 0)
(-0.0980095 -0.0299289 0)
(-0.0856748 -0.0472563 0)
(-0.0698463 -0.0649934 0)
(-0.0473782 -0.0781322 0)
(-0.0203371 -0.0658505 0)
(-0.000995886 0.00649604 0)
(-0.00564683 0.0122718 0)
(-0.0114938 0.0174475 0)
(-0.0188476 0.0206225 0)
(-0.0276363 0.0228454 0)
(-0.0372216 0.0255204 0)
(-0.0471383 0.0296469 0)
(-0.0570824 0.0360502 0)
(-0.067316 0.0443526 0)
(-0.0788004 0.0509755 0)
(-0.0901562 0.05071 0)
(-0.097126 0.0395031 0)
(-0.0965221 0.0206558 0)
(-0.0906714 -0.000275317 0)
(-0.0844574 -0.0195268 0)
(-0.0766016 -0.0377472 0)
(-0.0670634 -0.0569469 0)
(-0.0559836 -0.0784668 0)
(-0.0386602 -0.100962 0)
(-0.0170857 -0.102123 0)
(-0.00120624 0.010043 0)
(-0.00645767 0.0177365 0)
(-0.0118826 0.0238908 0)
(-0.0180352 0.0281243 0)
(-0.0253079 0.0313863 0)
(-0.0332439 0.0346205 0)
(-0.0413102 0.038794 0)
(-0.0489732 0.0449987 0)
(-0.0561816 0.0533491 0)
(-0.0629345 0.0592565 0)
(-0.0697691 0.0562 0)
(-0.0726956 0.0413889 0)
(-0.0708437 0.0188425 0)
(-0.0666603 -0.00469631 0)
(-0.0617011 -0.0260388 0)
(-0.0551084 -0.0459112 0)
(-0.0488801 -0.0648435 0)
(-0.0415212 -0.0874852 0)
(-0.0297907 -0.115745 0)
(-0.0142376 -0.124947 0)
(-0.00126021 0.0138413 0)
(-0.00651743 0.0229671 0)
(-0.0111638 0.0293586 0)
(-0.0158447 0.034026 0)
(-0.021053 0.0378976 0)
(-0.0265092 0.0415374 0)
(-0.0318003 0.0456281 0)
(-0.0364148 0.0512513 0)
(-0.0405393 0.0588693 0)
(-0.0419261 0.0620026 0)
(-0.0439459 0.0585934 0)
(-0.0455748 0.0425896 0)
(-0.0442979 0.018329 0)
(-0.0423549 -0.00726256 0)
(-0.0393453 -0.0311706 0)
(-0.0350856 -0.0518873 0)
(-0.0321546 -0.070082 0)
(-0.0284028 -0.093066 0)
(-0.0236664 -0.126642 0)
(-0.00892295 -0.147219 0)
(-0.00115679 0.0174976 0)
(-0.00595914 0.0275805 0)
(-0.00970197 0.0336718 0)
(-0.0129852 0.0381951 0)
(-0.0162248 0.0420737 0)
(-0.0191869 0.0456625 0)
(-0.0216227 0.0493463 0)
(-0.0228944 0.0537588 0)
(-0.0225376 0.0595749 0)
(-0.0209994 0.062045 0)
(-0.0188591 0.0584193 0)
(-0.0179039 0.0434565 0)
(-0.0171474 0.0193207 0)
(-0.0170556 -0.00709871 0)
(-0.0167086 -0.0325597 0)
(-0.0163512 -0.0534535 0)
(-0.0173983 -0.070948 0)
(-0.0164375 -0.0938932 0)
(-0.0160928 -0.129407 0)
(-0.00641018 -0.158543 0)
(-0.000953741 0.0207288 0)
(-0.00504041 0.0313901 0)
(-0.00788116 0.0368519 0)
(-0.00998864 0.0408086 0)
(-0.0116569 0.0441896 0)
(-0.0126621 0.0472249 0)
(-0.0128452 0.0500742 0)
(-0.0117447 0.0529762 0)
(-0.00855824 0.0561541 0)
(-0.0034201 0.0580165 0)
(0.00261988 0.0552839 0)
(0.00705068 0.0433132 0)
(0.00875439 0.0215683 0)
(0.00753827 -0.00497106 0)
(0.00497503 -0.0294095 0)
(-0.000299671 -0.0498291 0)
(-0.00618469 -0.0686031 0)
(-0.00813235 -0.0934682 0)
(-0.0121537 -0.131814 0)
(-0.00369473 -0.170466 0)
(-0.000727365 0.0233942 0)
(-0.0039873 0.0343225 0)
(-0.00599893 0.0390274 0)
(-0.00718422 0.0422 0)
(-0.00772112 0.0448034 0)
(-0.00742891 0.0469921 0)
(-0.00619629 0.0487794 0)
(-0.00378137 0.0501655 0)
(0.000337552 0.0510375 0)
(0.00639671 0.0505833 0)
(0.0139037 0.0473354 0)
(0.0207464 0.0382754 0)
(0.0242454 0.0212176 0)
(0.0238044 -0.000914191 0)
(0.0185358 -0.0234038 0)
(0.0102456 -0.0426527 0)
(0.00112641 -0.0626707 0)
(-0.00217567 -0.0894462 0)
(-0.0086028 -0.130032 0)
(-0.00221272 -0.1763 0)
(-0.00050799 0.0254841 0)
(-0.00295926 0.0364416 0)
(-0.00425001 0.0403674 0)
(-0.00473196 0.0427018 0)
(-0.00450333 0.0444476 0)
(-0.00344689 0.0457316 0)
(-0.00150948 0.0464944 0)
(0.00139193 0.0466173 0)
(0.00543909 0.0458702 0)
(0.01072 0.0436518 0)
(0.0169373 0.0391346 0)
(0.0230378 0.0311088 0)
(0.026729 0.0180683 0)
(0.0267554 0.00152911 0)
(0.0219252 -0.0167302 0)
(0.0130189 -0.0350586 0)
(0.004174 -0.0563445 0)
(0.000866582 -0.0854049 0)
(-0.00724135 -0.128802 0)
(-0.00081833 -0.183195 0)
(-0.000337733 0.0269466 0)
(-0.00207582 0.0378575 0)
(-0.00275196 0.0410272 0)
(-0.00268929 0.0425653 0)
(-0.00194659 0.043504 0)
(-0.000465303 0.0439735 0)
(0.00174934 0.0439023 0)
(0.00467475 0.0431417 0)
(0.00829234 0.0414629 0)
(0.0125144 0.0384751 0)
(0.0170371 0.0336489 0)
(0.0211684 0.026439 0)
(0.0238247 0.0164937 0)
(0.0235691 0.00385208 0)
(0.0195233 -0.0108346 0)
(0.0129797 -0.0282093 0)
(0.00528225 -0.0499683 0)
(0.0028567 -0.0806646 0)
(-0.00684898 -0.126211 0)
(4.8644e-05 -0.18742 0)
(-0.000189779 0.0280067 0)
(-0.00137495 0.0387304 0)
(-0.00155331 0.0411469 0)
(-0.0010565 0.0419594 0)
(5.62587e-05 0.0421962 0)
(0.0017899 0.0419984 0)
(0.00408864 0.0413088 0)
(0.00686992 0.0399935 0)
(0.010026 0.0378704 0)
(0.013388 0.0346935 0)
(0.0166573 0.0301687 0)
(0.0193455 0.0240027 0)
(0.0207764 0.0159854 0)
(0.020257 0.00604309 0)
(0.0173322 -0.00638908 0)
(0.0126673 -0.0225596 0)
(0.00556233 -0.0440882 0)
(0.0043655 -0.0758648 0)
(-0.00734059 -0.123398 0)
(0.0016909 -0.191973 0)
(-0.000192433 0.0285892 0)
(-0.00091388 0.0391252 0)
(-0.000679361 0.0408251 0)
(0.000193672 0.0409785 0)
(0.00161944 0.0406273 0)
(0.00354864 0.0399108 0)
(0.00589172 0.0387888 0)
(0.00853701 0.0371575 0)
(0.011345 0.0348783 0)
(0.0141291 0.0317912 0)
(0.0166307 0.0277271 0)
(0.0185023 0.0225157 0)
(0.0193474 0.0159631 0)
(0.0187508 0.00774281 0)
(0.0164938 -0.00301467 0)
(0.0128279 -0.0178224 0)
(0.00591876 -0.038674 0)
(0.00618588 -0.0709252 0)
(-0.00805618 -0.120773 0)
(0.00352112 -0.195884 0)
(-0.000170422 0.0292455 0)
(-0.0007595 0.0391855 0)
(-0.000135114 0.0401294 0)
(0.00110262 0.0396598 0)
(0.00284865 0.0388111 0)
(0.00500032 0.0377005 0)
(0.00744623 0.0362949 0)
(0.0100631 0.0345122 0)
(0.0127053 0.0322469 0)
(0.0151953 0.0293864 0)
(0.0173191 0.0258161 0)
(0.0188263 0.0214117 0)
(0.01948 0.0159931 0)
(0.018928 0.00911816 0)
(0.0170406 -0.000220087 0)
(0.0139194 -0.0136335 0)
(0.00703212 -0.0335403 0)
(0.00866606 -0.0656385 0)
(-0.00872002 -0.11727 0)
(0.00714039 -0.199326 0)
(-0.000600191 0.0296806 0)
(-0.00094099 0.0389329 0)
(4.89004e-05 0.0390185 0)
(0.00170953 0.0379567 0)
(0.00384524 0.0366816 0)
(0.00631502 0.0352722 0)
(0.00899441 0.0336897 0)
(0.0117554 0.0318639 0)
(0.0144546 0.029714 0)
(0.0169281 0.0271535 0)
(0.0189927 0.0240923 0)
(0.0204485 0.020423 0)
(0.0210694 0.0159585 0)
(0.0207168 0.01022 0)
(0.0191215 0.00223476 0)
(0.0163382 -0.00975313 0)
(0.00932373 -0.0285576 0)
(0.0121571 -0.0603726 0)
(-0.00887812 -0.11465 0)
(0.0116814 -0.203458 0)
(-0.000859704 0.0309329 0)
(-0.00163243 0.0385485 0)
(-0.000144454 0.037576 0)
(0.00205937 0.0358015 0)
(0.00474376 0.0341255 0)
(0.00771968 0.0324819 0)
(0.0108489 0.0307974 0)
(0.0139978 0.0290013 0)
(0.0170231 0.0270295 0)
(0.0197769 0.0248084 0)
(0.0220972 0.0222671 0)
(0.0238182 0.0192977 0)
(0.0247327 0.0157194 0)
(0.0246985 0.0110675 0)
(0.0233814 0.00443402 0)
(0.0208907 -0.0060816 0)
(0.0136679 -0.0235415 0)
(0.0176089 -0.0550089 0)
(-0.00852286 -0.112503 0)
(0.0178753 -0.206428 0)
(-0.00264431 0.0317626 0)
(-0.0038349 0.037195 0)
(-0.00101351 0.0350276 0)
(0.00216973 0.0328652 0)
(0.00586331 0.0309376 0)
(0.00974213 0.0291516 0)
(0.0136931 0.0274369 0)
(0.017597 0.0257265 0)
(0.0213156 0.0239723 0)
(0.0247269 0.0221018 0)
(0.0276843 0.0200697 0)
(0.030054 0.017762 0)
(0.0316259 0.0150401 0)
(0.0322423 0.0114668 0)
(0.0314093 0.00629197 0)
(0.029488 -0.00255602 0)
(0.0221233 -0.0182655 0)
(0.0265196 -0.0488417 0)
(-0.00723437 -0.108875 0)
(0.0260388 -0.205532 0)
(-0.00507352 0.0430079 0)
(-0.00533085 0.0407032 0)
(3.93328e-05 0.0345426 0)
(0.00440933 0.0304608 0)
(0.00960071 0.0275877 0)
(0.0149897 0.0253071 0)
(0.0203583 0.0233996 0)
(0.0256153 0.0217044 0)
(0.0305949 0.0201519 0)
(0.0352493 0.0186122 0)
(0.0393804 0.0170896 0)
(0.0429853 0.0154098 0)
(0.0457433 0.0135529 0)
(0.0476977 0.0110583 0)
(0.0478867 0.0075599 0)
(0.0472464 0.000659627 0)
(0.040492 -0.0122206 0)
(0.0438644 -0.0407561 0)
(0.00150736 -0.0992072 0)
(0.0407638 -0.186432 0)
(-0.00343344 0.0277079 0)
(-0.00479627 0.014977 0)
(0.00658958 0.015487 0)
(0.0152941 0.0157109 0)
(0.0247049 0.0155678 0)
(0.0336986 0.0149928 0)
(0.0420715 0.0142752 0)
(0.0500659 0.0135269 0)
(0.057392 0.0128541 0)
(0.0644274 0.0121213 0)
(0.0705951 0.0114448 0)
(0.0765595 0.0106093 0)
(0.0812463 0.00975845 0)
(0.0858735 0.00831467 0)
(0.088167 0.0064234 0)
(0.0902503 0.00129187 0)
(0.0854387 -0.00737077 0)
(0.0860197 -0.0303387 0)
(0.0415966 -0.0746737 0)
(0.0748516 -0.141483 0)
(0.0496443 0.076991 0)
(0.0540548 0.0538228 0)
(0.0820804 0.0339724 0)
(0.102347 0.0235687 0)
(0.117733 0.0182095 0)
(0.13105 0.0148023 0)
(0.14272 0.0125291 0)
(0.154155 0.0106571 0)
(0.164046 0.00951907 0)
(0.174146 0.00818937 0)
(0.182405 0.00774123 0)
(0.191247 0.00651005 0)
(0.197929 0.00661841 0)
(0.205131 0.00503534 0)
(0.209878 0.00554424 0)
(0.213977 0.0025018 0)
(0.212022 0.000494234 0)
(0.203321 -0.00549774 0)
(0.160905 -0.0164776 0)
(0.15168 -0.0958373 0)
)
;

boundaryField
{
    movingWall
    {
        type            fixedValue;
        value           uniform (1 0 0);
    }
    fixedWalls
    {
        type            fixedValue;
        value           uniform (0 0 0);
    }
    frontAndBack
    {
        type            empty;
    }
}


// ************************************************************************* //
