# vtk DataFile Version 2.0
track0
ASCII
DATASET POLYDATA
POINTS 9720 float
-1.001 1e-07 0.0011
-1.0008 1e-07 0.0011
-1.0006 1e-07 0.0011
-1.0004 1e-07 0.0011
-1.0002 1e-07 0.0011
-1 1e-07 0.0011
-0.966667 1e-07 0.0011
-0.933333 1e-07 0.0011
-0.9 1e-07 0.0011
-0.866667 1e-07 0.0011
-0.833333 1e-07 0.0011
-0.8 1e-07 0.0011
-0.766667 1e-07 0.0011
-0.733333 1e-07 0.0011
-0.7 1e-07 0.0011
-0.666667 1e-07 0.0011
-0.633333 1e-07 0.0011
-0.6 1e-07 0.0011
-0.566667 1e-07 0.0011
-0.533333 1e-07 0.0011
-0.5 1e-07 0.0011
-0.466667 1e-07 0.0011
-0.433333 1e-07 0.0011
-0.4 1e-07 0.0011
-0.366667 1e-07 0.0011
-0.333333 1e-07 0.0011
-0.3 1e-07 0.0011
-0.266667 1e-07 0.0011
-0.233333 1e-07 0.0011
-0.2 1e-07 0.0011
-0.166667 1e-07 0.0011
-0.133333 1e-07 0.0011
-0.1 1e-07 0.0011
-0.0666667 1e-07 0.0011
-0.0333333 1e-07 0.0011
-4.88405e-19 1e-07 0.0011
0.0333333 1e-07 0.0011
0.0666667 1e-07 0.0011
0.1 1e-07 0.0011
0.133333 1e-07 0.0011
0.166667 1e-07 0.0011
0.2 1e-07 0.0011
0.233333 1e-07 0.0011
0.266667 1e-07 0.0011
0.3 1e-07 0.0011
0.333333 1e-07 0.0011
0.366667 1e-07 0.0011
0.4 1e-07 0.0011
0.433333 1e-07 0.0011
0.466667 1e-07 0.0011
0.5 1e-07 0.0011
0.533333 1e-07 0.0011
0.566667 1e-07 0.0011
0.6 1e-07 0.0011
0.633333 1e-07 0.0011
0.666667 1e-07 0.0011
0.7 1e-07 0.0011
0.733333 1e-07 0.0011
0.766667 1e-07 0.0011
0.8 1e-07 0.0011
0.833333 1e-07 0.0011
0.866667 1e-07 0.0011
0.9 1e-07 0.0011
0.933333 1e-07 0.0011
0.966667 1e-07 0.0011
1 1e-07 0.0011
1.03333 1e-07 0.0011
1.06667 1e-07 0.0011
1.1 1e-07 0.0011
1.13333 1e-07 0.0011
1.16667 1e-07 0.0011
1.2 1e-07 0.0011
1.23333 1e-07 0.0011
1.26667 1e-07 0.0011
1.3 1e-07 0.0011
1.33333 1e-07 0.0011
1.36667 1e-07 0.0011
1.4 1e-07 0.0011
1.43333 1e-07 0.0011
1.46667 1e-07 0.0011
1.5 1e-07 0.0011
1.53333 1e-07 0.0011
1.56667 1e-07 0.0011
1.6 1e-07 0.0011
1.63333 1e-07 0.0011
1.66667 1e-07 0.0011
1.7 1e-07 0.0011
1.73333 1e-07 0.0011
1.76667 1e-07 0.0011
1.8 1e-07 0.0011
1.83333 1e-07 0.0011
1.86667 1e-07 0.0011
1.9 1e-07 0.0011
1.93333 1e-07 0.0011
1.96667 1e-07 0.0011
2 1e-07 0.0011
2.03333 1e-07 0.0011
2.06667 1e-07 0.0011
2.1 1e-07 0.0011
2.13333 1e-07 0.0011
2.16667 1e-07 0.0011
2.2 1e-07 0.0011
2.23333 1e-07 0.0011
2.26667 1e-07 0.0011
2.3 1e-07 0.0011
2.33333 1e-07 0.0011
2.36667 1e-07 0.0011
2.4 1e-07 0.0011
2.43333 1e-07 0.0011
2.46667 1e-07 0.0011
2.5 1e-07 0.0011
2.53333 1e-07 0.0011
2.56667 1e-07 0.0011
2.6 1e-07 0.0011
2.63333 1e-07 0.0011
2.66667 1e-07 0.0011
2.7 1e-07 0.0011
2.73333 1e-07 0.0011
2.76667 1e-07 0.0011
2.8 1e-07 0.0011
2.83333 1e-07 0.0011
2.86667 1e-07 0.0011
2.9 1e-07 0.0011
2.93333 1e-07 0.0011
2.96667 1e-07 0.0011
3 1e-07 0.0011
3.03333 1e-07 0.0011
3.06667 1e-07 0.0011
3.1 1e-07 0.0011
3.13333 1e-07 0.0011
3.16667 1e-07 0.0011
3.2 1e-07 0.0011
3.23333 1e-07 0.0011
3.26667 1e-07 0.0011
3.3 1e-07 0.0011
3.33333 1e-07 0.0011
3.36667 1e-07 0.0011
3.4 1e-07 0.0011
3.43333 1e-07 0.0011
3.46667 1e-07 0.0011
3.5 1e-07 0.0011
3.53333 1e-07 0.0011
3.56667 1e-07 0.0011
3.6 1e-07 0.0011
3.63333 1e-07 0.0011
3.66667 1e-07 0.0011
3.7 1e-07 0.0011
3.73333 1e-07 0.0011
3.76667 1e-07 0.0011
3.8 1e-07 0.0011
3.83333 1e-07 0.0011
3.86667 1e-07 0.0011
3.9 1e-07 0.0011
3.93333 1e-07 0.0011
3.96667 1e-07 0.0011
4 1e-07 0.0011
4.03333 1e-07 0.0011
4.06667 1e-07 0.0011
4.1 1e-07 0.0011
4.13333 1e-07 0.0011
4.16667 1e-07 0.0011
4.2 1e-07 0.0011
4.23333 1e-07 0.0011
4.26667 1e-07 0.0011
4.3 1e-07 0.0011
4.33333 1e-07 0.0011
4.36667 1e-07 0.0011
4.4 1e-07 0.0011
4.43333 1e-07 0.0011
4.46667 1e-07 0.0011
4.5 1e-07 0.0011
4.53333 1e-07 0.0011
4.56667 1e-07 0.0011
4.6 1e-07 0.0011
4.63333 1e-07 0.0011
4.66667 1e-07 0.0011
4.7 1e-07 0.0011
4.73333 1e-07 0.0011
4.76667 1e-07 0.0011
4.8 1e-07 0.0011
4.83333 1e-07 0.0011
4.86667 1e-07 0.0011
4.9 1e-07 0.0011
4.93333 1e-07 0.0011
4.96667 1e-07 0.0011
5 1e-07 0.0011
5.03333 1e-07 0.0011
5.06667 1e-07 0.0011
5.1 1e-07 0.0011
5.13333 1e-07 0.0011
5.16667 1e-07 0.0011
5.2 1e-07 0.0011
5.23333 1e-07 0.0011
5.26667 1e-07 0.0011
5.3 1e-07 0.0011
5.33333 1e-07 0.0011
5.36667 1e-07 0.0011
5.4 1e-07 0.0011
5.43333 1e-07 0.0011
5.46667 1e-07 0.0011
5.5 1e-07 0.0011
5.53333 1e-07 0.0011
5.56667 1e-07 0.0011
5.6 1e-07 0.0011
5.63333 1e-07 0.0011
5.66667 1e-07 0.0011
5.7 1e-07 0.0011
5.73333 1e-07 0.0011
5.76667 1e-07 0.0011
5.8 1e-07 0.0011
5.83333 1e-07 0.0011
5.86667 1e-07 0.0011
5.9 1e-07 0.0011
5.93333 1e-07 0.0011
5.96667 1e-07 0.0011
6 1e-07 0.0011
6.03333 1e-07 0.0011
6.06667 1e-07 0.0011
6.1 1e-07 0.0011
6.13333 1e-07 0.0011
6.16667 1e-07 0.0011
6.2 1e-07 0.0011
6.23333 1e-07 0.0011
6.26667 1e-07 0.0011
6.3 1e-07 0.0011
6.33333 1e-07 0.0011
6.36667 1e-07 0.0011
6.4 1e-07 0.0011
6.43333 1e-07 0.0011
6.46667 1e-07 0.0011
6.5 1e-07 0.0011
6.53333 1e-07 0.0011
6.56667 1e-07 0.0011
6.6 1e-07 0.0011
6.63333 1e-07 0.0011
6.66667 1e-07 0.0011
6.7 1e-07 0.0011
6.73333 1e-07 0.0011
6.76667 1e-07 0.0011
6.8 1e-07 0.0011
6.83333 1e-07 0.0011
6.86667 1e-07 0.0011
6.9 1e-07 0.0011
6.93333 1e-07 0.0011
6.96667 1e-07 0.0011
7 1e-07 0.0011
7.03333 1e-07 0.0011
7.06667 1e-07 0.0011
7.1 1e-07 0.0011
7.13333 1e-07 0.0011
7.16667 1e-07 0.0011
7.2 1e-07 0.0011
7.23333 1e-07 0.0011
7.26667 1e-07 0.0011
7.3 1e-07 0.0011
7.33333 1e-07 0.0011
7.36667 1e-07 0.0011
7.4 1e-07 0.0011
7.43333 1e-07 0.0011
7.46667 1e-07 0.0011
7.5 1e-07 0.0011
7.53333 1e-07 0.0011
7.56667 1e-07 0.0011
7.6 1e-07 0.0011
7.63333 1e-07 0.0011
7.66667 1e-07 0.0011
7.7 1e-07 0.0011
7.73333 1e-07 0.0011
7.76667 1e-07 0.0011
7.8 1e-07 0.0011
7.83333 1e-07 0.0011
7.86667 1e-07 0.0011
7.9 1e-07 0.0011
7.93333 1e-07 0.0011
7.96667 1e-07 0.0011
8 1e-07 0.0011
8.03333 1e-07 0.0011
8.06667 1e-07 0.0011
8.1 1e-07 0.0011
8.13333 1e-07 0.0011
8.16667 1e-07 0.0011
8.2 1e-07 0.0011
8.23333 1e-07 0.0011
8.26667 1e-07 0.0011
8.3 1e-07 0.0011
8.33333 1e-07 0.0011
8.36667 1e-07 0.0011
8.4 1e-07 0.0011
8.43333 1e-07 0.0011
8.46667 1e-07 0.0011
8.5 1e-07 0.0011
8.53333 1e-07 0.0011
8.56667 1e-07 0.0011
8.6 1e-07 0.0011
8.63333 1e-07 0.0011
8.66667 1e-07 0.0011
8.7 1e-07 0.0011
8.73333 1e-07 0.0011
8.76667 1e-07 0.0011
8.8 1e-07 0.0011
8.83333 1e-07 0.0011
8.86667 1e-07 0.0011
8.9 1e-07 0.0011
8.93333 1e-07 0.0011
8.96667 1e-07 0.0011
9 1e-07 0.0011
9.03333 1e-07 0.0011
9.06667 1e-07 0.0011
9.1 1e-07 0.0011
9.13333 1e-07 0.0011
9.16667 1e-07 0.0011
9.2 1e-07 0.0011
9.23333 1e-07 0.0011
9.26667 1e-07 0.0011
9.3 1e-07 0.0011
9.33333 1e-07 0.0011
9.36667 1e-07 0.0011
9.4 1e-07 0.0011
9.43333 1e-07 0.0011
9.46667 1e-07 0.0011
9.5 1e-07 0.0011
9.53333 1e-07 0.0011
9.56667 1e-07 0.0011
9.6 1e-07 0.0011
9.63333 1e-07 0.0011
9.66667 1e-07 0.0011
9.7 1e-07 0.0011
9.73333 1e-07 0.0011
9.76667 1e-07 0.0011
9.8 1e-07 0.0011
9.83333 1e-07 0.0011
9.86667 1e-07 0.0011
9.9 1e-07 0.0011
9.93333 1e-07 0.0011
9.96667 1e-07 0.0011
10 1e-07 0.0011
10.0333 1e-07 0.0011
10.0667 1e-07 0.0011
10.1 1e-07 0.0011
10.1333 1e-07 0.0011
10.1667 1e-07 0.0011
10.2 1e-07 0.0011
10.2333 1e-07 0.0011
10.2667 1e-07 0.0011
10.3 1e-07 0.0011
10.3333 1e-07 0.0011
10.3667 1e-07 0.0011
10.4 1e-07 0.0011
10.4333 1e-07 0.0011
10.4667 1e-07 0.0011
10.5 1e-07 0.0011
10.5333 1e-07 0.0011
10.5667 1e-07 0.0011
10.6 1e-07 0.0011
10.6333 1e-07 0.0011
10.6667 1e-07 0.0011
10.7 1e-07 0.0011
10.7333 1e-07 0.0011
10.7667 1e-07 0.0011
10.8 1e-07 0.0011
10.8333 1e-07 0.0011
10.8667 1e-07 0.0011
10.9 1e-07 0.0011
10.9333 1e-07 0.0011
10.9667 1e-07 0.0011
11 1e-07 0.0011
11.0333 1e-07 0.0011
11.0667 1e-07 0.0011
11.1 1e-07 0.0011
11.1333 1e-07 0.0011
11.1667 1e-07 0.0011
11.2 1e-07 0.0011
11.2333 1e-07 0.0011
11.2667 1e-07 0.0011
11.3 1e-07 0.0011
11.3333 1e-07 0.0011
11.3667 1e-07 0.0011
11.4 1e-07 0.0011
11.4333 1e-07 0.0011
11.4667 1e-07 0.0011
11.5 1e-07 0.0011
11.5333 1e-07 0.0011
11.5667 1e-07 0.0011
11.6 1e-07 0.0011
11.6333 1e-07 0.0011
11.6667 1e-07 0.0011
11.7 1e-07 0.0011
11.7333 1e-07 0.0011
11.7667 1e-07 0.0011
11.8 1e-07 0.0011
11.8333 1e-07 0.0011
11.8667 1e-07 0.0011
11.9 1e-07 0.0011
11.9333 1e-07 0.0011
11.9667 1e-07 0.0011
12 1e-07 0.0011
12.0333 1e-07 0.0011
12.0667 1e-07 0.0011
12.1 1e-07 0.0011
12.1333 1e-07 0.0011
12.1667 1e-07 0.0011
12.2 1e-07 0.0011
12.2333 1e-07 0.0011
12.2667 1e-07 0.0011
12.3 1e-07 0.0011
12.3333 1e-07 0.0011
12.3667 1e-07 0.0011
12.4 1e-07 0.0011
12.4333 1e-07 0.0011
12.4667 1e-07 0.0011
12.5 1e-07 0.0011
12.5333 1e-07 0.0011
12.5667 1e-07 0.0011
12.6 1e-07 0.0011
12.6333 1e-07 0.0011
12.6667 1e-07 0.0011
12.7 1e-07 0.0011
12.7333 1e-07 0.0011
12.7667 1e-07 0.0011
12.8 1e-07 0.0011
12.8333 1e-07 0.0011
12.8667 1e-07 0.0011
12.9 1e-07 0.0011
12.9333 1e-07 0.0011
12.9667 1e-07 0.0011
13 1e-07 0.0011
13.0333 1e-07 0.0011
13.0667 1e-07 0.0011
13.1 1e-07 0.0011
13.1333 1e-07 0.0011
13.1667 1e-07 0.0011
13.2 1e-07 0.0011
13.2333 1e-07 0.0011
13.2667 1e-07 0.0011
13.3 1e-07 0.0011
13.3333 1e-07 0.0011
13.3667 1e-07 0.0011
13.4 1e-07 0.0011
13.4333 1e-07 0.0011
13.4667 1e-07 0.0011
13.5 1e-07 0.0011
13.5333 1e-07 0.0011
13.5667 1e-07 0.0011
13.6 1e-07 0.0011
13.6333 1e-07 0.0011
13.6667 1e-07 0.0011
13.7 1e-07 0.0011
13.7333 1e-07 0.0011
13.7667 1e-07 0.0011
13.8 1e-07 0.0011
13.8333 1e-07 0.0011
13.8667 1e-07 0.0011
13.9 1e-07 0.0011
13.9333 1e-07 0.0011
13.9667 1e-07 0.0011
14 1e-07 0.0011
14.0333 1e-07 0.0011
14.0667 1e-07 0.0011
14.1 1e-07 0.0011
14.1333 1e-07 0.0011
14.1667 1e-07 0.0011
14.2 1e-07 0.0011
14.2333 1e-07 0.0011
14.2667 1e-07 0.0011
14.3 1e-07 0.0011
14.3333 1e-07 0.0011
14.3667 1e-07 0.0011
14.4 1e-07 0.0011
14.4333 1e-07 0.0011
14.4667 1e-07 0.0011
14.5 1e-07 0.0011
14.5333 1e-07 0.0011
14.5667 1e-07 0.0011
14.6 1e-07 0.0011
14.6333 1e-07 0.0011
14.6667 1e-07 0.0011
14.7 1e-07 0.0011
14.7333 1e-07 0.0011
14.7667 1e-07 0.0011
14.8 1e-07 0.0011
14.8333 1e-07 0.0011
14.8667 1e-07 0.0011
14.9 1e-07 0.0011
14.9333 1e-07 0.0011
14.9667 1e-07 0.0011
15 1e-07 0.0011
-1.001 1e-07 0.0537316
-1.0008 1e-07 0.0537316
-1.0006 1e-07 0.0537316
-1.0004 1e-07 0.0537316
-1.0002 1e-07 0.0537316
-1 1e-07 0.0537316
-0.966667 1e-07 0.0537316
-0.933333 1e-07 0.0537316
-0.9 1e-07 0.0537316
-0.866667 1e-07 0.0537316
[...]
POINT_DATA 9720
 FIELD attributes 1
p 1 9720 float
4.9836e-12 4.9836e-12 4.98359e-12 4.98359e-12 4.98359e-12 4.98358e-12 4.99617e-12 5.0088e-12 5.02144e-12 5.03407e-12 5.0467e-12 5.049e-12 5.05128e-12 5.05355e-12 5.05583e-12 5.0581e-12 5.0496e-12 5.04109e-12 5.03257e-12 5.02406e-12 5.01555e-12 5.00493e-12 4.99439e-12 4.98386e-12 4.97332e-12 4.96279e-12 4.95341e-12 4.94407e-12 4.93472e-12 4.92537e-12 4.91602e-12 4.90583e-12 4.89555e-12 4.88527e-12 4.87499e-12 4.86471e-12 4.85696e-12 4.84918e-12 4.84139e-12 4.83361e-12 4.82582e-12 4.81903e-12 4.8122e-12 4.80537e-12 4.79855e-12 4.79172e-12 4.794e-12 4.79639e-12 4.79878e-12 4.80118e-12 4.80357e-12 4.81353e-12 4.82361e-12 4.83369e-12 4.84377e-12 4.85385e-12 4.85789e-12 4.86197e-12 4.86606e-12 4.87015e-12 4.87423e-12 4.87161e-12 4.86908e-12 4.86654e-12 4.864e-12 4.86146e-12 4.84949e-12 4.83743e-12 4.82537e-12 4.81331e-12 4.80125e-12 4.78525e-12 4.76911e-12 4.75298e-12 4.73684e-12 4.72071e-12 4.71207e-12 4.70344e-12 4.69481e-12 4.68618e-12 4.67755e-12 4.67373e-12 4.66996e-12 4.6662e-12 4.66243e-12 4.65867e-12 4.65579e-12 4.65299e-12 4.6502e-12 4.6474e-12 4.6446e-12 4.63642e-12 4.62818e-12 4.61994e-12 4.6117e-12 4.60346e-12 4.58942e-12 4.57524e-12 4.56107e-12 4.54689e-12 4.53272e-12 4.51814e-12 4.50352e-12 4.4889e-12 4.47428e-12 4.45966e-12 4.44512e-12 4.43056e-12 4.416e-12 4.40145e-12 4.38689e-12 4.37848e-12 4.3702e-12 4.36192e-12 4.35364e-12 4.34535e-12 4.33794e-12 4.33062e-12 4.32331e-12 4.31599e-12 4.30867e-12 4.29365e-12 4.27845e-12 4.26325e-12 4.24805e-12 4.23285e-12 4.21755e-12 4.20221e-12 4.18687e-12 4.17154e-12 4.1562e-12 4.14234e-12 4.12865e-12 4.11497e-12 4.10128e-12 4.08759e-12 4.07438e-12 4.06114e-12 4.04789e-12 4.03465e-12 4.02141e-12 4.00732e-12 3.99312e-12 3.97893e-12 3.96474e-12 3.95054e-12 3.93713e-12 3.92376e-12 3.91039e-12 3.89702e-12 3.88365e-12 3.87294e-12 3.86234e-12 3.85175e-12 3.84116e-12 3.83057e-12 3.82054e-12 3.81057e-12 3.8006e-12 3.79063e-12 3.78066e-12 3.76396e-12 3.74706e-12 3.73017e-12 3.71327e-12 3.69637e-12 3.67608e-12 3.65565e-12 3.63522e-12 3.6148e-12 3.59437e-12 3.58178e-12 3.56927e-12 3.55675e-12 3.54424e-12 3.53172e-12 3.52523e-12 3.51873e-12 3.51223e-12 3.50572e-12 3.49922e-12 3.4927e-12 3.48624e-12 3.47977e-12 3.47331e-12 3.46684e-12 3.4561e-12 3.44544e-12 3.43478e-12 3.42412e-12 3.41347e-12 3.40275e-12 3.39203e-12 3.3813e-12 3.37058e-12 3.35986e-12 3.35656e-12 3.35334e-12 3.35012e-12 3.3469e-12 3.34368e-12 3.33401e-12 3.32438e-12 3.31476e-12 3.30513e-12 3.2955e-12 3.27406e-12 3.25248e-12 3.23089e-12 3.2093e-12 3.18772e-12 3.17632e-12 3.16492e-12 3.15351e-12 3.14211e-12 3.1307e-12 3.12839e-12 3.12621e-12 3.12402e-12 3.12183e-12 3.11965e-12 3.10667e-12 3.09365e-12 3.08064e-12 3.06762e-12 3.0546e-12 3.03682e-12 3.01905e-12 3.00128e-12 2.98352e-12 2.96575e-12 2.94937e-12 2.93297e-12 2.91657e-12 2.90017e-12 2.88377e-12 2.86878e-12 2.85367e-12 2.83855e-12 2.82343e-12 2.80832e-12 2.79978e-12 2.79123e-12 2.78268e-12 2.77413e-12 2.76558e-12 2.75753e-12 2.74952e-12 2.7415e-12 2.73348e-12 2.72547e-12 2.71316e-12 2.70088e-12 2.6886e-12 2.67633e-12 2.66405e-12 2.65499e-12 2.64601e-12 2.63703e-12 2.62805e-12 2.61907e-12 2.61042e-12 2.6018e-12 2.59317e-12 2.58454e-12 2.57591e-12 2.55918e-12 2.54238e-12 2.52558e-12 2.50879e-12 2.49199e-12 2.4785e-12 2.46503e-12 2.45157e-12 2.43811e-12 2.42465e-12 2.40925e-12 2.39384e-12 2.37842e-12 2.363e-12 2.34759e-12 2.32899e-12 2.31031e-12 2.29162e-12 2.27294e-12 2.25425e-12 2.25189e-12 2.24965e-12 2.24741e-12 2.24517e-12 2.24292e-12 2.23488e-12 2.22687e-12 2.21886e-12 2.21086e-12 2.20285e-12 2.18444e-12 2.16592e-12 2.14741e-12 2.1289e-12 2.11038e-12 2.10202e-12 2.0938e-12 2.08558e-12 2.07736e-12 2.06914e-12 2.05955e-12 2.04999e-12 2.04042e-12 2.03086e-12 2.0213e-12 2.00234e-12 1.98316e-12 1.96398e-12 1.9448e-12 1.92562e-12 1.90857e-12 1.89151e-12 1.87445e-12 1.85739e-12 1.84033e-12 1.83106e-12 1.82186e-12 1.81266e-12 1.80346e-12 1.79426e-12 1.78136e-12 1.76838e-12 1.7554e-12 1.74242e-12 1.72944e-12 1.70895e-12 1.68846e-12 1.66797e-12 1.64747e-12 1.62698e-12 1.60774e-12 1.58855e-12 1.56935e-12 1.55016e-12 1.53097e-12 1.52181e-12 1.51266e-12 1.50351e-12 1.49437e-12 1.48522e-12 1.4738e-12 1.46237e-12 1.45094e-12 1.43951e-12 1.42808e-12 1.41319e-12 1.39831e-12 1.38343e-12 1.36855e-12 1.35367e-12 1.3435e-12 1.33334e-12 1.32318e-12 1.31303e-12 1.30287e-12 1.29273e-12 1.28264e-12 1.27254e-12 1.26245e-12 1.25236e-12 1.23685e-12 1.2213e-12 1.20576e-12 1.19021e-12 1.17466e-12 1.15845e-12 1.14217e-12 1.1259e-12 1.10962e-12 1.09334e-12 1.07961e-12 1.06593e-12 1.05225e-12 1.03856e-12 1.02488e-12 1.00911e-12 9.93328e-13 9.77544e-13 9.61761e-13 9.45977e-13 9.37099e-13 9.28242e-13 9.19385e-13 9.10528e-13 9.0167e-13 9.00805e-13 9.00064e-13 8.99324e-13 8.98584e-13 8.97843e-13 8.9492e-13 8.92062e-13 8.89205e-13 8.86347e-13 8.8349e-13 8.75689e-13 8.67795e-13 8.59901e-13 8.52007e-13 8.44113e-13 8.33418e-13 8.22646e-13 8.11873e-13 8.01101e-13 7.90328e-13 7.8147e-13 7.72633e-13 7.63797e-13 7.5496e-13 7.46123e-13 7.36782e-13 7.27432e-13 7.18082e-13 7.08731e-13 6.99381e-13 6.88705e-13 6.78013e-13 6.6732e-13 6.56628e-13 6.45935e-13 6.35385e-13 6.24865e-13 6.14344e-13 6.03824e-13 5.93303e-13 5.80515e-13 5.6772e-13 5.54925e-13 5.4213e-13 5.29335e-13 5.20058e-13 5.10778e-13 5.01498e-13 4.92218e-13 4.82938e-13 4.75793e-13 4.68686e-13 4.61579e-13 4.54471e-13 4.47364e-13 4.36232e-13 4.25121e-13 4.1401e-13 4.02899e-13 3.91788e-13 3.7669e-13 3.61575e-13 3.46459e-13 3.31344e-13 3.16229e-13 3.00945e-13 2.85634e-13 2.70324e-13 2.55013e-13 2.39703e-13 2.27936e-13 2.1617e-13 2.04405e-13 1.9264e-13 1.80875e-13 1.72002e-13 1.63157e-13 1.54311e-13 1.45466e-13 1.36621e-13 1.27641e-13 1.18645e-13 1.09649e-13 1.00653e-13 9.16577e-14 7.94888e-14 6.72483e-14 5.50078e-14 4.27673e-14 3.05267e-14 2.39316e-14 1.73602e-14 1.07888e-14 4.21735e-15 -2.35405e-15
4.98837e-12 4.98836e-12 4.98836e-12 4.98836e-12 4.98835e-12 4.98835e-12 4.9995e-12 5.01122e-12 5.02386e-12 5.03649e-12 5.04913e-12 5.05214e-12 5.05486e-12 5.05714e-12 5.05941e-12 5.06169e-12 5.0536e-12 5.04534e-12 5.03682e-12 5.02831e-12 5.0198e-12 5.00664e-12 4.99451e-12 4.98397e-12 4.97344e-12 4.96291e-12 4.95265e-12 4.94275e-12 4.93341e-12 4.92406e-12 4.91471e-12 4.90702e-12 4.89833e-12 4.88805e-12 4.87777e-12 4.86749e-12 4.86099e-12 4.854e-12 4.84621e-12 4.83843e-12 4.83064e-12 4.82501e-12 4.81891e-12 4.81208e-12 4.80525e-12 4.79843e-12 4.79734e-12 4.7976e-12 4.79999e-12 4.80239e-12 4.80478e-12 4.81118e-12 4.81901e-12 4.82909e-12 4.83917e-12 4.84925e-12 4.85201e-12 4.85529e-12 4.85937e-12 4.86346e-12 4.86755e-12 4.86259e-12 4.85858e-12 4.85604e-12 4.8535e-12 4.85097e-12 4.84174e-12 4.83142e-12 4.81936e-12 4.80729e-12 4.79523e-12 4.78313e-12 4.76946e-12 4.75333e-12 4.73719e-12 4.72106e-12 4.71208e-12 4.70323e-12 4.6946e-12 4.68598e-12 4.67735e-12 4.67182e-12 4.66698e-12 4.66321e-12 4.65945e-12 4.65569e-12 4.65042e-12 4.64612e-12 4.64332e-12 4.64052e-12 4.63773e-12 4.63137e-12 4.62428e-12 4.61603e-12 4.60779e-12 4.59955e-12 4.58943e-12 4.57773e-12 4.56356e-12 4.54938e-12 4.53521e-12 4.52176e-12 4.50786e-12 4.49324e-12 4.47862e-12 4.464e-12 4.44981e-12 4.43548e-12 4.42093e-12 4.40637e-12 4.39181e-12 4.37954e-12 4.36882e-12 4.36054e-12 4.35226e-12 4.34398e-12 4.3337e-12 4.32458e-12 4.31726e-12 4.30995e-12 4.30263e-12 4.29272e-12 4.28076e-12 4.26556e-12 4.25036e-12 4.23516e-12 4.22097e-12 4.20634e-12 4.191e-12 4.17566e-12 4.16032e-12 4.1416e-12 4.12483e-12 4.11114e-12 4.09746e-12 4.08377e-12 4.07156e-12 4.05895e-12 4.0457e-12 4.03246e-12 4.01922e-12 4.00822e-12 3.99598e-12 3.98179e-12 3.96759e-12 3.9534e-12 3.9388e-12 3.92467e-12 3.9113e-12 3.89793e-12 3.88456e-12 3.87017e-12 3.85725e-12 3.84666e-12 3.83607e-12 3.82547e-12 3.81381e-12 3.8028e-12 3.79283e-12 3.78286e-12 3.77289e-12 3.7619e-12 3.74862e-12 3.73173e-12 3.71483e-12 3.69793e-12 3.68154e-12 3.66357e-12 3.64315e-12 3.62272e-12 3.60229e-12 3.58768e-12 3.57388e-12 3.56136e-12 3.54885e-12 3.53633e-12 3.53017e-12 3.52388e-12 3.51738e-12 3.51087e-12 3.50437e-12 3.49622e-12 3.48873e-12 3.48226e-12 3.4758e-12 3.46933e-12 3.4561e-12 3.44387e-12 3.43321e-12 3.42255e-12 3.4119e-12 3.40137e-12 3.39077e-12 3.38005e-12 3.36932e-12 3.3586e-12 3.35319e-12 3.34862e-12 3.3454e-12 3.34218e-12 3.33896e-12 3.32832e-12 3.31808e-12 3.30845e-12 3.29882e-12 3.28919e-12 3.27215e-12 3.25334e-12 3.23175e-12 3.21017e-12 3.18858e-12 3.17744e-12 3.16619e-12 3.15478e-12 3.14338e-12 3.13197e-12 3.12621e-12 3.12184e-12 3.11965e-12 3.11746e-12 3.11528e-12 3.10354e-12 3.09131e-12 3.07829e-12 3.06528e-12 3.05226e-12 3.03392e-12 3.0158e-12 2.99803e-12 2.98026e-12 2.9625e-12 2.9468e-12 2.93083e-12 2.91443e-12 2.89803e-12 2.88163e-12 2.87034e-12 2.85757e-12 2.84245e-12 2.82734e-12 2.81222e-12 2.8042e-12 2.79597e-12 2.78742e-12 2.77887e-12 2.77032e-12 2.76153e-12 2.75304e-12 2.74503e-12 2.73701e-12 2.72899e-12 2.71578e-12 2.70293e-12 2.69065e-12 2.67838e-12 2.6661e-12 2.65482e-12 2.64443e-12 2.63545e-12 2.62647e-12 2.61749e-12 2.60828e-12 2.5993e-12 2.59068e-12 2.58205e-12 2.57342e-12 2.55847e-12 2.54279e-12 2.526e-12 2.5092e-12 2.4924e-12 2.47805e-12 2.46404e-12 2.45058e-12 2.43712e-12 2.42366e-12 2.40888e-12 2.39385e-12 2.37844e-12 2.36302e-12 2.3476e-12 2.33168e-12 2.31468e-12 2.296e-12 2.27731e-12 2.25863e-12 2.25273e-12 2.24826e-12 2.24602e-12 2.24378e-12 2.24153e-12 2.23231e-12 2.22356e-12 2.21555e-12 2.20754e-12 2.19954e-12 2.18409e-12 2.16746e-12 2.14894e-12 2.13043e-12 2.11192e-12 2.0994e-12 2.08855e-12 2.08033e-12 2.07211e-12 2.06389e-12 2.05356e-12 2.04353e-12 2.03397e-12 2.02441e-12 2.01484e-12 2.00243e-12 1.98739e-12 1.96821e-12 1.94903e-12 1.92985e-12 1.9131e-12 1.89624e-12 1.87918e-12 1.86212e-12 1.84506e-12 1.83346e-12 1.82279e-12 1.8136e-12 1.8044e-12 1.7952e-12 1.78448e-12 1.77289e-12 1.75991e-12 1.74693e-12 1.73395e-12 1.71352e-12 1.69306e-12 1.67257e-12 1.65207e-12 1.63158e-12 1.61083e-12 1.59068e-12 1.57148e-12 1.55229e-12 1.5331e-12 1.5236e-12 1.51424e-12 1.50509e-12 1.49594e-12 1.4868e-12 1.47569e-12 1.46447e-12 1.45303e-12 1.4416e-12 1.43017e-12 1.41487e-12 1.39972e-12 1.38484e-12 1.36997e-12 1.35509e-12 1.34444e-12 1.33399e-12 1.32384e-12 1.31368e-12 1.30352e-12 1.29205e-12 1.28112e-12 1.27103e-12 1.26093e-12 1.25084e-12 1.23659e-12 1.22183e-12 1.20629e-12 1.19074e-12 1.17519e-12 1.16107e-12 1.14611e-12 1.12983e-12 1.11355e-12 1.09727e-12 1.08238e-12 1.06795e-12 1.05427e-12 1.04058e-12 1.0269e-12 1.01153e-12 9.95998e-13 9.80215e-13 9.64431e-13 9.48648e-13 9.39165e-13 9.29925e-13 9.21067e-13 9.1221e-13 9.03353e-13 8.98816e-13 8.95752e-13 8.95011e-13 8.94271e-13 8.93531e-13 8.88665e-13 8.84579e-13 8.81721e-13 8.78864e-13 8.76006e-13 8.70949e-13 8.64792e-13 8.56897e-13 8.49003e-13 8.41109e-13 8.32696e-13 8.23368e-13 8.12595e-13 8.01823e-13 7.9105e-13 7.81561e-13 7.72325e-13 7.63488e-13 7.54651e-13 7.45815e-13 7.36741e-13 7.2756e-13 7.1821e-13 7.0886e-13 6.9951e-13 6.8932e-13 6.78936e-13 6.68243e-13 6.57551e-13 6.46858e-13 6.35438e-13 6.24367e-13 6.13846e-13 6.03326e-13 5.92805e-13 5.80212e-13 5.6754e-13 5.54745e-13 5.4195e-13 5.29155e-13 5.19945e-13 5.10707e-13 5.01427e-13 4.92147e-13 4.82867e-13 4.74621e-13 4.66817e-13 4.5971e-13 4.52603e-13 4.45496e-13 4.33726e-13 4.22212e-13 4.11101e-13 3.9999e-13 3.88879e-13 3.74262e-13 3.59451e-13 3.44336e-13 3.29221e-13 3.14106e-13 2.99586e-13 2.8476e-13 2.69449e-13 2.54139e-13 2.38828e-13 2.27003e-13 2.15201e-13 2.03435e-13 1.9167e-13 1.79905e-13 1.7022e-13 1.60862e-13 1.52016e-13 1.43171e-13 1.34326e-13 1.25804e-13 1.17099e-13 1.08103e-13 9.91076e-14 9.01119e-14 8.00424e-14 6.91304e-14 5.68899e-14 4.46493e-14 3.24088e-14 2.51193e-14 1.81085e-14 1.15371e-14 4.96567e-15 -1.60573e-15
4.99313e-12 4.99313e-12 4.99313e-12 4.99312e-12 4.99312e-12 4.99312e-12 5.00427e-12 5.01542e-12 5.02656e-12 5.03892e-12 5.05155e-12 5.05456e-12 5.05757e-12 5.06059e-12 5.063e-12 5.06528e-12 5.05718e-12 5.04909e-12 5.04099e-12 5.03256e-12 5.02405e-12 5.01089e-12 4.99774e-12 4.98459e-12 4.97356e-12 4.96302e-12 4.95277e-12 4.94252e-12 4.93226e-12 4.92274e-12 4.9134e-12 4.90571e-12 4.89802e-12 4.89034e-12 4.88055e-12 4.87027e-12 4.86377e-12 4.85728e-12 4.85079e-12 4.84325e-12 4.83546e-12 4.82983e-12 4.8242e-12 4.81856e-12 4.81196e-12 4.80514e-12 4.80405e-12 4.80296e-12 4.80187e-12 4.8036e-12 4.80599e-12 4.81239e-12 4.81879e-12 4.82519e-12 4.83457e-12 4.84465e-12 4.84741e-12 4.85018e-12 4.85294e-12 4.85677e-12 4.86086e-12 4.85591e-12 4.85096e-12 4.84601e-12 4.84301e-12 4.84047e-12 4.83125e-12 4.82202e-12 4.8128e-12 4.80128e-12 4.78922e-12 4.77711e-12 4.76501e-12 4.75291e-12 4.73754e-12 4.72141e-12 4.71243e-12 4.70345e-12 4.69447e-12 4.68577e-12 4.67714e-12 4.67162e-12 4.66609e-12 4.66057e-12 4.65647e-12 4.6527e-12 4.64744e-12 4.64218e-12 4.63692e-12 4.63365e-12 4.63085e-12 4.62449e-12 4.61813e-12 4.61177e-12 4.60389e-12 4.59565e-12 4.58552e-12 4.5754e-12 4.56527e-12 4.55187e-12 4.5377e-12 4.52425e-12 4.5108e-12 4.49735e-12 4.48296e-12 4.46834e-12 4.45415e-12 4.43997e-12 4.42578e-12 4.41129e-12 4.39674e-12 4.38446e-12 4.37219e-12 4.35992e-12 4.35088e-12 4.3426e-12 4.33233e-12 4.32205e-12 4.31178e-12 4.3039e-12 4.29658e-12 4.28668e-12 4.27677e-12 4.26686e-12 4.25267e-12 4.23747e-12 4.22328e-12 4.20909e-12 4.1949e-12 4.17979e-12 4.16445e-12 4.14573e-12 4.12701e-12 4.10829e-12 4.09364e-12 4.07995e-12 4.06774e-12 4.05553e-12 4.04331e-12 4.03027e-12 4.01702e-12 4.00603e-12 3.99503e-12 3.98403e-12 3.97045e-12 3.95626e-12 3.94165e-12 3.92705e-12 3.91245e-12 3.89884e-12 3.88547e-12 3.87108e-12 3.85669e-12 3.84229e-12 3.83097e-12 3.82038e-12 3.80871e-12 3.79705e-12 3.78538e-12 3.77509e-12 3.76512e-12 3.75413e-12 3.74314e-12 3.73216e-12 3.71639e-12 3.69949e-12 3.6831e-12 3.6667e-12 3.6503e-12 3.63065e-12 3.61022e-12 3.5956e-12 3.58099e-12 3.56637e-12 3.55346e-12 3.54094e-12 3.53478e-12 3.52862e-12 3.52246e-12 3.51602e-12 3.50952e-12 3.50137e-12 3.49322e-12 3.48507e-12 3.47829e-12 3.47182e-12 3.45859e-12 3.44536e-12 3.43213e-12 3.42098e-12 3.41033e-12 3.3998e-12 3.38928e-12 3.37875e-12 3.36807e-12 3.35734e-12 3.35193e-12 3.34652e-12 3.3411e-12 3.33746e-12 3.33424e-12 3.3236e-12 3.31297e-12 3.30234e-12 3.29252e-12 3.28289e-12 3.26584e-12 3.24879e-12 3.23175e-12 3.21103e-12 3.18944e-12 3.1783e-12 3.16715e-12 3.15601e-12 3.14465e-12 3.13324e-12 3.12748e-12 3.12172e-12 3.11596e-12 3.1131e-12 3.11091e-12 3.09917e-12 3.08744e-12 3.0757e-12 3.06293e-12 3.04992e-12 3.03157e-12 3.01323e-12 2.99489e-12 2.97701e-12 2.95924e-12 2.94355e-12 2.92785e-12 2.91216e-12 2.89589e-12 2.87949e-12 2.8682e-12 2.85691e-12 2.84562e-12 2.83124e-12 2.81612e-12 2.8081e-12 2.80008e-12 2.79207e-12 2.78362e-12 2.77506e-12 2.76628e-12 2.75749e-12 2.7487e-12 2.74053e-12 2.73252e-12 2.7193e-12 2.70609e-12 2.69288e-12 2.68043e-12 2.66815e-12 2.65687e-12 2.64558e-12 2.6343e-12 2.62488e-12 2.6159e-12 2.6067e-12 2.5975e-12 2.5883e-12 2.57956e-12 2.57093e-12 2.55597e-12 2.54102e-12 2.52606e-12 2.50961e-12 2.49281e-12 2.47846e-12 2.46411e-12 2.44976e-12 2.43613e-12 2.42267e-12 2.40789e-12 2.39311e-12 2.37833e-12 2.36304e-12 2.34762e-12 2.3317e-12 2.31577e-12 2.29985e-12 2.28169e-12 2.263e-12 2.25711e-12 2.25122e-12 2.24533e-12 2.24239e-12 2.24015e-12 2.23092e-12 2.22169e-12 2.21247e-12 2.20423e-12 2.19622e-12 2.18078e-12 2.16533e-12 2.14989e-12 2.13196e-12 2.11345e-12 2.10093e-12 2.08842e-12 2.0759e-12 2.06686e-12 2.05864e-12 2.04831e-12 2.03799e-12 2.02766e-12 2.01795e-12 2.00839e-12 1.99597e-12 1.98356e-12 1.97114e-12 1.95325e-12 1.93407e-12 1.91733e-12 1.90059e-12 1.88384e-12 1.86685e-12 1.84979e-12 1.83819e-12 1.82659e-12 1.81499e-12 1.80533e-12 1.79613e-12 1.78542e-12 1.77471e-12 1.764e-12 1.75145e-12 1.73847e-12 1.71803e-12 1.69759e-12 1.67716e-12 1.65667e-12 1.63618e-12 1.61543e-12 1.59467e-12 1.57391e-12 1.55442e-12 1.53523e-12 1.52573e-12 1.51623e-12 1.50673e-12 1.49752e-12 1.48837e-12 1.47727e-12 1.46617e-12 1.45507e-12 1.4437e-12 1.43227e-12 1.41696e-12 1.40165e-12 1.38634e-12 1.37138e-12 1.3565e-12 1.34586e-12 1.33522e-12 1.32458e-12 1.31433e-12 1.30418e-12 1.29271e-12 1.28124e-12 1.26977e-12 1.25941e-12 1.24932e-12 1.23507e-12 1.22082e-12 1.20657e-12 1.19127e-12 1.17572e-12 1.1616e-12 1.14748e-12 1.13336e-12 1.11749e-12 1.10121e-12 1.08631e-12 1.07142e-12 1.05652e-12 1.0426e-12 1.02892e-12 1.01355e-12 9.98178e-13 9.82807e-13 9.67102e-13 9.51318e-13 9.41835e-13 9.32352e-13 9.2287e-13 9.13893e-13 9.05036e-13 9.00498e-13 8.95961e-13 8.91423e-13 8.89958e-13 8.89218e-13 8.84352e-13 8.79487e-13 8.74621e-13 8.7138e-13 8.68523e-13 8.63466e-13 8.58409e-13 8.53352e-13 8.46e-13 8.38105e-13 8.29693e-13 8.2128e-13 8.12867e-13 8.02545e-13 7.91772e-13 7.82283e-13 7.72793e-13 7.63304e-13 7.54343e-13 7.45506e-13 7.36433e-13 7.27359e-13 7.18286e-13 7.08989e-13 6.99638e-13 6.89449e-13 6.7926e-13 6.6907e-13 6.58474e-13 6.47781e-13 6.36361e-13 6.2494e-13 6.1352e-13 6.02827e-13 5.92307e-13 5.79714e-13 5.6712e-13 5.54527e-13 5.4177e-13 5.28975e-13 5.19765e-13 5.10554e-13 5.01343e-13 4.92077e-13 4.82797e-13 4.74551e-13 4.66305e-13 4.58059e-13 4.50735e-13 4.43628e-13 4.31857e-13 4.20087e-13 4.08317e-13 3.97081e-13 3.8597e-13 3.71353e-13 3.56735e-13 3.42118e-13 3.27098e-13 3.11983e-13 2.97463e-13 2.82943e-13 2.68424e-13 2.53264e-13 2.37954e-13 2.26128e-13 2.14303e-13 2.02477e-13 1.907e-13 1.78935e-13 1.69251e-13 1.59566e-13 1.49881e-13 1.40876e-13 1.32031e-13 1.23509e-13 1.14988e-13 1.06467e-13 9.75618e-14 8.85661e-14 7.84965e-14 6.8427e-14 5.83575e-14 4.65314e-14 3.42909e-14 2.70014e-14 1.97119e-14 1.24225e-14 5.71399e-15 -8.57403e-16