# vtk DataFile Version 2.0
track0
ASCII
DATASET POLYDATA
POINTS 9720 float
-1.001 1e-07 0.0011
-1.0008 1e-07 0.0011
-1.0006 1e-07 0.0011
-1.0004 1e-07 0.0011
-1.0002 1e-07 0.0011
-1 1e-07 0.0011
-0.966667 1e-07 0.0011
-0.933333 1e-07 0.0011
-0.9 1e-07 0.0011
-0.866667 1e-07 0.0011
-0.833333 1e-07 0.0011
-0.8 1e-07 0.0011
-0.766667 1e-07 0.0011
-0.733333 1e-07 0.0011
-0.7 1e-07 0.0011
-0.666667 1e-07 0.0011
-0.633333 1e-07 0.0011
-0.6 1e-07 0.0011
-0.566667 1e-07 0.0011
-0.533333 1e-07 0.0011
-0.5 1e-07 0.0011
-0.466667 1e-07 0.0011
-0.433333 1e-07 0.0011
-0.4 1e-07 0.0011
-0.366667 1e-07 0.0011
-0.333333 1e-07 0.0011
-0.3 1e-07 0.0011
-0.266667 1e-07 0.0011
-0.233333 1e-07 0.0011
-0.2 1e-07 0.0011
-0.166667 1e-07 0.0011
-0.133333 1e-07 0.0011
-0.1 1e-07 0.0011
-0.0666667 1e-07 0.0011
-0.0333333 1e-07 0.0011
-4.88405e-19 1e-07 0.0011
0.0333333 1e-07 0.0011
0.0666667 1e-07 0.0011
0.1 1e-07 0.0011
0.133333 1e-07 0.0011
0.166667 1e-07 0.0011
0.2 1e-07 0.0011
0.233333 1e-07 0.0011
0.266667 1e-07 0.0011
0.3 1e-07 0.0011
0.333333 1e-07 0.0011
0.366667 1e-07 0.0011
0.4 1e-07 0.0011
0.433333 1e-07 0.0011
0.466667 1e-07 0.0011
0.5 1e-07 0.0011
0.533333 1e-07 0.0011
0.566667 1e-07 0.0011
0.6 1e-07 0.0011
0.633333 1e-07 0.0011
0.666667 1e-07 0.0011
0.7 1e-07 0.0011
0.733333 1e-07 0.0011
0.766667 1e-07 0.0011
0.8 1e-07 0.0011
0.833333 1e-07 0.0011
0.866667 1e-07 0.0011
0.9 1e-07 0.0011
0.933333 1e-07 0.0011
0.966667 1e-07 0.0011
1 1e-07 0.0011
1.03333 1e-07 0.0011
1.06667 1e-07 0.0011
1.1 1e-07 0.0011
1.13333 1e-07 0.0011
1.16667 1e-07 0.0011
1.2 1e-07 0.0011
1.23333 1e-07 0.0011
1.26667 1e-07 0.0011
1.3 1e-07 0.0011
1.33333 1e-07 0.0011
1.36667 1e-07 0.0011
1.4 1e-07 0.0011
1.43333 1e-07 0.0011
1.46667 1e-07 0.0011
1.5 1e-07 0.0011
1.53333 1e-07 0.0011
1.56667 1e-07 0.0011
1.6 1e-07 0.0011
1.63333 1e-07 0.0011
1.66667 1e-07 0.0011
1.7 1e-07 0.0011
1.73333 1e-07 0.0011
1.76667 1e-07 0.0011
1.8 1e-07 0.0011
1.83333 1e-07 0.0011
1.86667 1e-07 0.0011
1.9 1e-07 0.0011
1.93333 1e-07 0.0011
1.96667 1e-07 0.0011
2 1e-07 0.0011
2.03333 1e-07 0.0011
2.06667 1e-07 0.0011
2.1 1e-07 0.0011
2.13333 1e-07 0.0011
2.16667 1e-07 0.0011
2.2 1e-07 0.0011
2.23333 1e-07 0.0011
2.26667 1e-07 0.0011
2.3 1e-07 0.0011
2.33333 1e-07 0.0011
2.36667 1e-07 0.0011
2.4 1e-07 0.0011
2.43333 1e-07 0.0011
2.46667 1e-07 0.0011
2.5 1e-07 0.0011
2.53333 1e-07 0.0011
2.56667 1e-07 0.0011
2.6 1e-07 0.0011
2.63333 1e-07 0.0011
2.66667 1e-07 0.0011
2.7 1e-07 0.0011
2.73333 1e-07 0.0011
2.76667 1e-07 0.0011
2.8 1e-07 0.0011
2.83333 1e-07 0.0011
2.86667 1e-07 0.0011
2.9 1e-07 0.0011
2.93333 1e-07 0.0011
2.96667 1e-07 0.0011
3 1e-07 0.0011
3.03333 1e-07 0.0011
3.06667 1e-07 0.0011
3.1 1e-07 0.0011
3.13333 1e-07 0.0011
3.16667 1e-07 0.0011
3.2 1e-07 0.0011
3.23333 1e-07 0.0011
3.26667 1e-07 0.0011
3.3 1e-07 0.0011
3.33333 1e-07 0.0011
3.36667 1e-07 0.0011
3.4 1e-07 0.0011
3.43333 1e-07 0.0011
3.46667 1e-07 0.0011
3.5 1e-07 0.0011
3.53333 1e-07 0.0011
3.56667 1e-07 0.0011
3.6 1e-07 0.0011
3.63333 1e-07 0.0011
3.66667 1e-07 0.0011
3.7 1e-07 0.0011
3.73333 1e-07 0.0011
3.76667 1e-07 0.0011
3.8 1e-07 0.0011
3.83333 1e-07 0.0011
3.86667 1e-07 0.0011
3.9 1e-07 0.0011
3.93333 1e-07 0.0011
3.96667 1e-07 0.0011
4 1e-07 0.0011
4.03333 1e-07 0.0011
4.06667 1e-07 0.0011
4.1 1e-07 0.0011
4.13333 1e-07 0.0011
4.16667 1e-07 0.0011
4.2 1e-07 0.0011
4.23333 1e-07 0.0011
4.26667 1e-07 0.0011
4.3 1e-07 0.0011
4.33333 1e-07 0.0011
4.36667 1e-07 0.0011
4.4 1e-07 0.0011
4.43333 1e-07 0.0011
4.46667 1e-07 0.0011
4.5 1e-07 0.0011
4.53333 1e-07 0.0011
4.56667 1e-07 0.0011
4.6 1e-07 0.0011
4.63333 1e-07 0.0011
4.66667 1e-07 0.0011
4.7 1e-07 0.0011
4.73333 1e-07 0.0011
4.76667 1e-07 0.0011
4.8 1e-07 0.0011
4.83333 1e-07 0.0011
4.86667 1e-07 0.0011
4.9 1e-07 0.0011
4.93333 1e-07 0.0011
4.96667 1e-07 0.0011
5 1e-07 0.0011
5.03333 1e-07 0.0011
5.06667 1e-07 0.0011
5.1 1e-07 0.0011
5.13333 1e-07 0.0011
5.16667 1e-07 0.0011
5.2 1e-07 0.0011
5.23333 1e-07 0.0011
5.26667 1e-07 0.0011
5.3 1e-07 0.0011
5.33333 1e-07 0.0011
5.36667 1e-07 0.0011
5.4 1e-07 0.0011
5.43333 1e-07 0.0011
5.46667 1e-07 0.0011
5.5 1e-07 0.0011
5.53333 1e-07 0.0011
5.56667 1e-07 0.0011
5.6 1e-07 0.0011
5.63333 1e-07 0.0011
5.66667 1e-07 0.0011
5.7 1e-07 0.0011
5.73333 1e-07 0.0011
5.76667 1e-07 0.0011
5.8 1e-07 0.0011
5.83333 1e-07 0.0011
5.86667 1e-07 0.0011
5.9 1e-07 0.0011
5.93333 1e-07 0.0011
5.96667 1e-07 0.0011
6 1e-07 0.0011
6.03333 1e-07 0.0011
6.06667 1e-07 0.0011
6.1 1e-07 0.0011
6.13333 1e-07 0.0011
6.16667 1e-07 0.0011
6.2 1e-07 0.0011
6.23333 1e-07 0.0011
6.26667 1e-07 0.0011
6.3 1e-07 0.0011
6.33333 1e-07 0.0011
6.36667 1e-07 0.0011
6.4 1e-07 0.0011
6.43333 1e-07 0.0011
6.46667 1e-07 0.0011
6.5 1e-07 0.0011
6.53333 1e-07 0.0011
6.56667 1e-07 0.0011
6.6 1e-07 0.0011
6.63333 1e-07 0.0011
6.66667 1e-07 0.0011
6.7 1e-07 0.0011
6.73333 1e-07 0.0011
6.76667 1e-07 0.0011
6.8 1e-07 0.0011
6.83333 1e-07 0.0011
6.86667 1e-07 0.0011
6.9 1e-07 0.0011
6.93333 1e-07 0.0011
6.96667 1e-07 0.0011
7 1e-07 0.0011
7.03333 1e-07 0.0011
7.06667 1e-07 0.0011
7.1 1e-07 0.0011
7.13333 1e-07 0.0011
7.16667 1e-07 0.0011
7.2 1e-07 0.0011
7.23333 1e-07 0.0011
7.26667 1e-07 0.0011
7.3 1e-07 0.0011
7.33333 1e-07 0.0011
7.36667 1e-07 0.0011
7.4 1e-07 0.0011
7.43333 1e-07 0.0011
7.46667 1e-07 0.0011
7.5 1e-07 0.0011
7.53333 1e-07 0.0011
7.56667 1e-07 0.0011
7.6 1e-07 0.0011
7.63333 1e-07 0.0011
7.66667 1e-07 0.0011
7.7 1e-07 0.0011
7.73333 1e-07 0.0011
7.76667 1e-07 0.0011
7.8 1e-07 0.0011
7.83333 1e-07 0.0011
7.86667 1e-07 0.0011
7.9 1e-07 0.0011
7.93333 1e-07 0.0011
7.96667 1e-07 0.0011
8 1e-07 0.0011
8.03333 1e-07 0.0011
8.06667 1e-07 0.0011
8.1 1e-07 0.0011
8.13333 1e-07 0.0011
8.16667 1e-07 0.0011
8.2 1e-07 0.0011
8.23333 1e-07 0.0011
8.26667 1e-07 0.0011
8.3 1e-07 0.0011
8.33333 1e-07 0.0011
8.36667 1e-07 0.0011
8.4 1e-07 0.0011
8.43333 1e-07 0.0011
8.46667 1e-07 0.0011
8.5 1e-07 0.0011
8.53333 1e-07 0.0011
8.56667 1e-07 0.0011
8.6 1e-07 0.0011
8.63333 1e-07 0.0011
8.66667 1e-07 0.0011
8.7 1e-07 0.0011
8.73333 1e-07 0.0011
8.76667 1e-07 0.0011
8.8 1e-07 0.0011
8.83333 1e-07 0.0011
8.86667 1e-07 0.0011
8.9 1e-07 0.0011
8.93333 1e-07 0.0011
8.96667 1e-07 0.0011
9 1e-07 0.0011
9.03333 1e-07 0.0011
9.06667 1e-07 0.0011
9.1 1e-07 0.0011
9.13333 1e-07 0.0011
9.16667 1e-07 0.0011
9.2 1e-07 0.0011
9.23333 1e-07 0.0011
9.26667 1e-07 0.0011
9.3 1e-07 0.0011
9.33333 1e-07 0.0011
9.36667 1e-07 0.0011
9.4 1e-07 0.0011
9.43333 1e-07 0.0011
9.46667 1e-07 0.0011
9.5 1e-07 0.0011
9.53333 1e-07 0.0011
9.56667 1e-07 0.0011
9.6 1e-07 0.0011
9.63333 1e-07 0.0011
9.66667 1e-07 0.0011
9.7 1e-07 0.0011
9.73333 1e-07 0.0011
9.76667 1e-07 0.0011
9.8 1e-07 0.0011
9.83333 1e-07 0.0011
9.86667 1e-07 0.0011
9.9 1e-07 0.0011
9.93333 1e-07 0.0011
9.96667 1e-07 0.0011
10 1e-07 0.0011
10.0333 1e-07 0.0011
10.0667 1e-07 0.0011
10.1 1e-07 0.0011
10.1333 1e-07 0.0011
10.1667 1e-07 0.0011
10.2 1e-07 0.0011
10.2333 1e-07 0.0011
10.2667 1e-07 0.0011
10.3 1e-07 0.0011
10.3333 1e-07 0.0011
10.3667 1e-07 0.0011
10.4 1e-07 0.0011
10.4333 1e-07 0.0011
10.4667 1e-07 0.0011
10.5 1e-07 0.0011
10.5333 1e-07 0.0011
10.5667 1e-07 0.0011
10.6 1e-07 0.0011
10.6333 1e-07 0.0011
10.6667 1e-07 0.0011
10.7 1e-07 0.0011
10.7333 1e-07 0.0011
10.7667 1e-07 0.0011
10.8 1e-07 0.0011
10.8333 1e-07 0.0011
10.8667 1e-07 0.0011
10.9 1e-07 0.0011
10.9333 1e-07 0.0011
10.9667 1e-07 0.0011
11 1e-07 0.0011
11.0333 1e-07 0.0011
11.0667 1e-07 0.0011
11.1 1e-07 0.0011
11.1333 1e-07 0.0011
11.1667 1e-07 0.0011
11.2 1e-07 0.0011
11.2333 1e-07 0.0011
11.2667 1e-07 0.0011
11.3 1e-07 0.0011
11.3333 1e-07 0.0011
11.3667 1e-07 0.0011
11.4 1e-07 0.0011
11.4333 1e-07 0.0011
11.4667 1e-07 0.0011
11.5 1e-07 0.0011
11.5333 1e-07 0.0011
11.5667 1e-07 0.0011
11.6 1e-07 0.0011
11.6333 1e-07 0.0011
11.6667 1e-07 0.0011
11.7 1e-07 0.0011
11.7333 1e-07 0.0011
11.7667 1e-07 0.0011
11.8 1e-07 0.0011
11.8333 1e-07 0.0011
11.8667 1e-07 0.0011
11.9 1e-07 0.0011
11.9333 1e-07 0.0011
11.9667 1e-07 0.0011
12 1e-07 0.0011
12.0333 1e-07 0.0011
12.0667 1e-07 0.0011
12.1 1e-07 0.0011
12.1333 1e-07 0.0011
12.1667 1e-07 0.0011
12.2 1e-07 0.0011
12.2333 1e-07 0.0011
12.2667 1e-07 0.0011
12.3 1e-07 0.0011
12.3333 1e-07 0.0011
12.3667 1e-07 0.0011
12.4 1e-07 0.0011
12.4333 1e-07 0.0011
12.4667 1e-07 0.0011
12.5 1e-07 0.0011
12.5333 1e-07 0.0011
12.5667 1e-07 0.0011
12.6 1e-07 0.0011
12.6333 1e-07 0.0011
12.6667 1e-07 0.0011
12.7 1e-07 0.0011
12.7333 1e-07 0.0011
12.7667 1e-07 0.0011
12.8 1e-07 0.0011
12.8333 1e-07 0.0011
12.8667 1e-07 0.0011
12.9 1e-07 0.0011
12.9333 1e-07 0.0011
12.9667 1e-07 0.0011
13 1e-07 0.0011
13.0333 1e-07 0.0011
13.0667 1e-07 0.0011
13.1 1e-07 0.0011
13.1333 1e-07 0.0011
13.1667 1e-07 0.0011
13.2 1e-07 0.0011
13.2333 1e-07 0.0011
13.2667 1e-07 0.0011
13.3 1e-07 0.0011
13.3333 1e-07 0.0011
13.3667 1e-07 0.0011
13.4 1e-07 0.0011
13.4333 1e-07 0.0011
13.4667 1e-07 0.0011
13.5 1e-07 0.0011
13.5333 1e-07 0.0011
13.5667 1e-07 0.0011
13.6 1e-07 0.0011
13.6333 1e-07 0.0011
13.6667 1e-07 0.0011
13.7 1e-07 0.0011
13.7333 1e-07 0.0011
13.7667 1e-07 0.0011
13.8 1e-07 0.0011
13.8333 1e-07 0.0011
13.8667 1e-07 0.0011
13.9 1e-07 0.0011
13.9333 1e-07 0.0011
13.9667 1e-07 0.0011
14 1e-07 0.0011
14.0333 1e-07 0.0011
14.0667 1e-07 0.0011
14.1 1e-07 0.0011
14.1333 1e-07 0.0011
14.1667 1e-07 0.0011
14.2 1e-07 0.0011
14.2333 1e-07 0.0011
14.2667 1e-07 0.0011
14.3 1e-07 0.0011
14.3333 1e-07 0.0011
14.3667 1e-07 0.0011
14.4 1e-07 0.0011
14.4333 1e-07 0.0011
14.4667 1e-07 0.0011
14.5 1e-07 0.0011
14.5333 1e-07 0.0011
14.5667 1e-07 0.0011
14.6 1e-07 0.0011
14.6333 1e-07 0.0011
14.6667 1e-07 0.0011
14.7 1e-07 0.0011
14.7333 1e-07 0.0011
14.7667 1e-07 0.0011
14.8 1e-07 0.0011
14.8333 1e-07 0.0011
14.8667 1e-07 0.0011
14.9 1e-07 0.0011
14.9333 1e-07 0.0011
14.9667 1e-07 0.0011
15 1e-07 0.0011
-1.001 1e-07 0.0537316
-1.0008 1e-07 0.0537316
-1.0006 1e-07 0.0537316
-1.0004 1e-07 0.0537316
-1.0002 1e-07 0.0537316
-1 1e-07 0.0537316
-0.966667 1e-07 0.0537316
-0.933333 1e-07 0.0537316
-0.9 1e-07 0.0537316
-0.866667 1e-07 0.0537316
[...]
POINT_DATA 9720
 FIELD attributes 1
U 3 9720 float
20 	-7.33731e-18 	-3.07999e-18 20 	-7.33731e-18 	-3.07999e-18 20 	-7.33731e-18 	-3.07999e-18 20 	-7.33731e-18 	-3.07999e-18 20 	-7.33731e-18 	-3.07999e-18 20 	-7.33615e-18 	-3.08169e-18 20 	-3.20128e-18 	-3.0781e-18 20 	-3.20128e-18 	-3.0781e-18 20 	-3.20128e-18 	-3.0781e-18 20 	-3.20128e-18 	-3.0781e-18 20 	-3.20024e-18 	-3.07904e-18 20 	-3.11437e-19 	-8.98186e-19 20 	-3.11437e-19 	-8.98186e-19 20 	-3.11437e-19 	-8.98186e-19 20 	-3.11437e-19 	-8.98186e-19 20 	-3.10517e-19 	-8.98497e-19 20 	2.91522e-19 	-6.89411e-18 20 	2.91522e-19 	-6.89411e-18 20 	2.91522e-19 	-6.89411e-18 20 	2.91522e-19 	-6.89411e-18 20 	2.91497e-19 	-6.89386e-18 20 	6.54207e-19 	-1.22309e-17 20 	6.54207e-19 	-1.22309e-17 20 	6.54207e-19 	-1.22309e-17 20 	6.54207e-19 	-1.22309e-17 20 	6.54865e-19 	-1.22288e-17 20 	3.51326e-18 	-9.26678e-18 20 	3.51326e-18 	-9.26678e-18 20 	3.51326e-18 	-9.26678e-18 20 	3.51326e-18 	-9.26678e-18 20 	3.51442e-18 	-9.26458e-18 20 	8.3407e-18 	-6.63808e-18 20 	8.3407e-18 	-6.63808e-18 20 	8.3407e-18 	-6.63808e-18 20 	8.3407e-18 	-6.63808e-18 20 	8.34204e-18 	-6.63677e-18 20 	1.30631e-17 	-8.4761e-18 20 	1.30631e-17 	-8.4761e-18 20 	1.30631e-17 	-8.4761e-18 20 	1.30631e-17 	-8.4761e-18 20 	1.30637e-17 	-8.47511e-18 20 	1.65758e-17 	-1.68625e-17 20 	1.65758e-17 	-1.68625e-17 20 	1.65758e-17 	-1.68625e-17 20 	1.65758e-17 	-1.68625e-17 20 	1.65754e-17 	-1.68612e-17 20 	2.07667e-17 	-2.31218e-17 20 	2.07667e-17 	-2.31218e-17 20 	2.07667e-17 	-2.31218e-17 20 	2.07667e-17 	-2.31218e-17 20 	2.07663e-17 	-2.31178e-17 20 	2.2692e-17 	-2.0956e-17 20 	2.2692e-17 	-2.0956e-17 20 	2.2692e-17 	-2.0956e-17 20 	2.2692e-17 	-2.0956e-17 20 	2.26909e-17 	-2.09525e-17 20 	2.0556e-17 	-1.53059e-17 20 	2.0556e-17 	-1.53059e-17 20 	2.0556e-17 	-1.53059e-17 20 	2.0556e-17 	-1.53059e-17 20 	2.05553e-17 	-1.53025e-17 20 	1.77845e-17 	-5.77641e-18 20 	1.77845e-17 	-5.77641e-18 20 	1.77845e-17 	-5.77641e-18 20 	1.77845e-17 	-5.77641e-18 20 	1.77844e-17 	-5.77381e-18 20 	1.35373e-17 	1.97662e-18 20 	1.35373e-17 	1.97662e-18 20 	1.35373e-17 	1.97662e-18 20 	1.35373e-17 	1.97662e-18 20 	1.35359e-17 	1.9768e-18 20 	9.23278e-18 	2.88137e-18 20 	9.23278e-18 	2.88137e-18 20 	9.23278e-18 	2.88137e-18 20 	9.23278e-18 	2.88137e-18 20 	9.23066e-18 	2.88114e-18 20 	7.90219e-18 	5.99467e-19 20 	7.90219e-18 	5.99467e-19 20 	7.90219e-18 	5.99467e-19 20 	7.90219e-18 	5.99467e-19 20 	7.90078e-18 	5.99413e-19 20 	8.05424e-18 	-2.16694e-18 20 	8.05424e-18 	-2.16694e-18 20 	8.05424e-18 	-2.16694e-18 20 	8.05424e-18 	-2.16694e-18 20 	8.05204e-18 	-2.16775e-18 20 	6.22624e-18 	-1.57011e-18 20 	6.22624e-18 	-1.57011e-18 20 	6.22624e-18 	-1.57011e-18 20 	6.22624e-18 	-1.57011e-18 20 	6.2241e-18 	-1.57165e-18 20 	6.07804e-19 	-4.55061e-19 20 	6.07804e-19 	-4.55061e-19 20 	6.07804e-19 	-4.55061e-19 20 	6.07804e-19 	-4.55061e-19 20 	6.05717e-19 	-4.59307e-19 20 	-3.93157e-18 	-2.13152e-18 20 	-3.93157e-18 	-2.13152e-18 20 	-3.93157e-18 	-2.13152e-18 20 	-3.93157e-18 	-2.13152e-18 20 	-3.93478e-18 	-2.13484e-18 20 	-6.02253e-18 	-3.65806e-18 20 	-6.02253e-18 	-3.65806e-18 20 	-6.02253e-18 	-3.65806e-18 20 	-6.02253e-18 	-3.65806e-18 20 	-6.02518e-18 	-3.66051e-18 20 	-6.84205e-18 	-4.69481e-18 20 	-6.84205e-18 	-4.69481e-18 20 	-6.84205e-18 	-4.69481e-18 20 	-6.84205e-18 	-4.69481e-18 20 	-6.84367e-18 	-4.69634e-18 20 	-6.85075e-18 	-8.79503e-19 20 	-6.85075e-18 	-8.79503e-19 20 	-6.85075e-18 	-8.79503e-19 20 	-6.85075e-18 	-8.79503e-19 20 	-6.85384e-18 	-8.8008e-19 20 	-1.1182e-17 	6.7569e-18 20 	-1.1182e-17 	6.7569e-18 20 	-1.1182e-17 	6.7569e-18 20 	-1.1182e-17 	6.7569e-18 20 	-1.11851e-17 	6.75566e-18 20 	-1.7547e-17 	6.54884e-18 20 	-1.7547e-17 	6.54884e-18 20 	-1.7547e-17 	6.54884e-18 20 	-1.7547e-17 	6.54884e-18 20 	-1.75478e-17 	6.54682e-18 20 	-2.05393e-17 	2.71518e-18 20 	-2.05393e-17 	2.71518e-18 20 	-2.05393e-17 	2.71518e-18 20 	-2.05393e-17 	2.71518e-18 20 	-2.05389e-17 	2.71515e-18 20 	-1.8408e-17 	4.27043e-18 20 	-1.8408e-17 	4.27043e-18 20 	-1.8408e-17 	4.27043e-18 20 	-1.8408e-17 	4.27043e-18 20 	-1.84079e-17 	4.27076e-18 20 	-1.45388e-17 	3.76642e-18 20 	-1.45388e-17 	3.76642e-18 20 	-1.45388e-17 	3.76642e-18 20 	-1.45388e-17 	3.76642e-18 20 	-1.45386e-17 	3.76488e-18 20 	-1.43068e-17 	1.48298e-19 20 	-1.43068e-17 	1.48298e-19 20 	-1.43068e-17 	1.48298e-19 20 	-1.43068e-17 	1.48298e-19 20 	-1.43075e-17 	1.46809e-19 20 	-1.78926e-17 	-9.75882e-19 20 	-1.78926e-17 	-9.75882e-19 20 	-1.78926e-17 	-9.75882e-19 20 	-1.78926e-17 	-9.75882e-19 20 	-1.78922e-17 	-9.76932e-19 20 	-1.66707e-17 	2.9597e-18 20 	-1.66707e-17 	2.9597e-18 20 	-1.66707e-17 	2.9597e-18 20 	-1.66707e-17 	2.9597e-18 20 	-1.66694e-17 	2.95984e-18 20 	-9.3249e-18 	1.1609e-17 20 	-9.3249e-18 	1.1609e-17 20 	-9.3249e-18 	1.1609e-17 20 	-9.3249e-18 	1.1609e-17 20 	-9.32565e-18 	1.16086e-17 20 	-3.73209e-18 	1.1845e-17 20 	-3.73209e-18 	1.1845e-17 20 	-3.73209e-18 	1.1845e-17 20 	-3.73209e-18 	1.1845e-17 20 	-3.73455e-18 	1.18424e-17 20 	-3.61089e-18 	5.70278e-18 20 	-3.61089e-18 	5.70278e-18 20 	-3.61089e-18 	5.70278e-18 20 	-3.61089e-18 	5.70278e-18 20 	-3.61297e-18 	5.70168e-18 20 	-4.31564e-18 	3.17313e-18 20 	-4.31564e-18 	3.17313e-18 20 	-4.31564e-18 	3.17313e-18 20 	-4.31564e-18 	3.17313e-18 20 	-4.31664e-18 	3.17249e-18 20 	-2.90544e-18 	-9.31566e-19 20 	-2.90544e-18 	-9.31566e-19 20 	-2.90544e-18 	-9.31566e-19 20 	-2.90544e-18 	-9.31566e-19 20 	-2.90575e-18 	-9.32077e-19 20 	-2.25658e-18 	-3.48027e-18 20 	-2.25658e-18 	-3.48027e-18 20 	-2.25658e-18 	-3.48027e-18 20 	-2.25658e-18 	-3.48027e-18 20 	-2.25554e-18 	-3.47954e-18 20 	-2.8435e-18 	-3.21833e-18 20 	-2.8435e-18 	-3.21833e-18 20 	-2.8435e-18 	-3.21833e-18 20 	-2.8435e-18 	-3.21833e-18 20 	-2.84342e-18 	-3.21856e-18 20 	-7.85645e-18 	-6.16321e-18 20 	-7.85645e-18 	-6.16321e-18 20 	-7.85645e-18 	-6.16321e-18 20 	-7.85645e-18 	-6.16321e-18 20 	-7.85714e-18 	-6.16403e-18 20 	-1.21362e-17 	-5.98949e-18 20 	-1.21362e-17 	-5.98949e-18 20 	-1.21362e-17 	-5.98949e-18 20 	-1.21362e-17 	-5.98949e-18 20 	-1.21351e-17 	-5.98949e-18 20 	-1.26052e-17 	1.94583e-18 20 	-1.26052e-17 	1.94583e-18 20 	-1.26052e-17 	1.94583e-18 20 	-1.26052e-17 	1.94583e-18 20 	-1.26047e-17 	1.94538e-18 20 	-1.50252e-17 	6.47819e-18 20 	-1.50252e-17 	6.47819e-18 20 	-1.50252e-17 	6.47819e-18 20 	-1.50252e-17 	6.47819e-18 20 	-1.50253e-17 	6.4768e-18 20 	-1.53561e-17 	1.0035e-17 20 	-1.53561e-17 	1.0035e-17 20 	-1.53561e-17 	1.0035e-17 20 	-1.53561e-17 	1.0035e-17 20 	-1.53549e-17 	1.00345e-17 20 	-1.16086e-17 	1.57867e-17 20 	-1.16086e-17 	1.57867e-17 20 	-1.16086e-17 	1.57867e-17 20 	-1.16086e-17 	1.57867e-17 20 	-1.16084e-17 	1.57856e-17 20 	-1.27468e-17 	1.46415e-17 20 	-1.27468e-17 	1.46415e-17 20 	-1.27468e-17 	1.46415e-17 20 	-1.27468e-17 	1.46415e-17 20 	-1.27482e-17 	1.46395e-17 20 	-1.68728e-17 	1.43818e-17 20 	-1.68728e-17 	1.43818e-17 20 	-1.68728e-17 	1.43818e-17 20 	-1.68728e-17 	1.43818e-17 20 	-1.68724e-17 	1.438e-17 20 	-1.78352e-17 	1.51012e-17 20 	-1.78352e-17 	1.51012e-17 20 	-1.78352e-17 	1.51012e-17 20 	-1.78352e-17 	1.51012e-17 20 	-1.78357e-17 	1.50977e-17 20 	-1.69216e-17 	1.10265e-17 20 	-1.69216e-17 	1.10265e-17 20 	-1.69216e-17 	1.10265e-17 20 	-1.69216e-17 	1.10265e-17 20 	-1.69222e-17 	1.10232e-17 20 	-1.60356e-17 	5.63221e-18 20 	-1.60356e-17 	5.63221e-18 20 	-1.60356e-17 	5.63221e-18 20 	-1.60356e-17 	5.63221e-18 20 	-1.60361e-17 	5.62863e-18 20 	-1.39358e-17 	-5.71046e-19 20 	-1.39358e-17 	-5.71046e-19 20 	-1.39358e-17 	-5.71046e-19 20 	-1.39358e-17 	-5.71046e-19 20 	-1.39367e-17 	-5.74463e-19 20 	-8.58507e-18 	-7.91225e-18 20 	-8.58507e-18 	-7.91225e-18 20 	-8.58507e-18 	-7.91225e-18 20 	-8.58507e-18 	-7.91225e-18 20 	-8.58637e-18 	-7.91447e-18 20 	1.03435e-19 	-1.05939e-17 20 	1.03435e-19 	-1.05939e-17 20 	1.03435e-19 	-1.05939e-17 20 	1.03435e-19 	-1.05939e-17 20 	1.03367e-19 	-1.05946e-17 20 	6.88175e-18 	-5.58987e-18 20 	6.88175e-18 	-5.58987e-18 20 	6.88175e-18 	-5.58987e-18 20 	6.88175e-18 	-5.58987e-18 20 	6.87865e-18 	-5.59048e-18 20 	9.77834e-18 	-8.61525e-19 20 	9.77834e-18 	-8.61525e-19 20 	9.77834e-18 	-8.61525e-19 20 	9.77834e-18 	-8.61525e-19 20 	9.77528e-18 	-8.61803e-19 20 	1.39806e-17 	4.79807e-18 20 	1.39806e-17 	4.79807e-18 20 	1.39806e-17 	4.79807e-18 20 	1.39806e-17 	4.79807e-18 20 	1.39781e-17 	4.79797e-18 20 	1.81242e-17 	8.19663e-18 20 	1.81242e-17 	8.19663e-18 20 	1.81242e-17 	8.19663e-18 20 	1.81242e-17 	8.19663e-18 20 	1.8121e-17 	8.19578e-18 20 	2.17629e-17 	3.79834e-18 20 	2.17629e-17 	3.79834e-18 20 	2.17629e-17 	3.79834e-18 20 	2.17629e-17 	3.79834e-18 20 	2.17597e-17 	3.79705e-18 20 	2.5241e-17 	4.79669e-18 20 	2.5241e-17 	4.79669e-18 20 	2.5241e-17 	4.79669e-18 20 	2.5241e-17 	4.79669e-18 20 	2.5239e-17 	4.79636e-18 20 	2.47966e-17 	8.89947e-18 20 	2.47966e-17 	8.89947e-18 20 	2.47966e-17 	8.89947e-18 20 	2.47966e-17 	8.89947e-18 20 	2.47922e-17 	8.8972e-18 20 	2.41128e-17 	6.95816e-18 20 	2.41128e-17 	6.95816e-18 20 	2.41128e-17 	6.95816e-18 20 	2.41128e-17 	6.95816e-18 20 	2.41094e-17 	6.95638e-18 20 	2.68613e-17 	9.25271e-18 20 	2.68613e-17 	9.25271e-18 20 	2.68613e-17 	9.25271e-18 20 	2.68613e-17 	9.25271e-18 20 	2.68582e-17 	9.2523e-18 20 	2.98341e-17 	1.62063e-17 20 	2.98341e-17 	1.62063e-17 20 	2.98341e-17 	1.62063e-17 20 	2.98341e-17 	1.62063e-17 20 	2.98313e-17 	1.62041e-17 20 	3.06208e-17 	1.53577e-17 20 	3.06208e-17 	1.53577e-17 20 	3.06208e-17 	1.53577e-17 20 	3.06208e-17 	1.53577e-17 20 	3.06177e-17 	1.53537e-17 20 	3.04328e-17 	1.0975e-17 20 	3.04328e-17 	1.0975e-17 20 	3.04328e-17 	1.0975e-17 20 	3.04328e-17 	1.0975e-17 20 	3.04292e-17 	1.09728e-17 20 	3.11573e-17 	9.16239e-18 20 	3.11573e-17 	9.16239e-18 20 	3.11573e-17 	9.16239e-18 20 	3.11573e-17 	9.16239e-18 20 	3.11529e-17 	9.15982e-18 20 	3.1656e-17 	3.56343e-18 20 	3.1656e-17 	3.56343e-18 20 	3.1656e-17 	3.56343e-18 20 	3.1656e-17 	3.56343e-18 20 	3.1652e-17 	3.56129e-18 20 	3.50747e-17 	-2.23108e-18 20 	3.50747e-17 	-2.23108e-18 20 	3.50747e-17 	-2.23108e-18 20 	3.50747e-17 	-2.23108e-18 20 	3.50725e-17 	-2.23153e-18 20 	3.744e-17 	-5.20592e-18 20 	3.744e-17 	-5.20592e-18 20 	3.744e-17 	-5.20592e-18 20 	3.744e-17 	-5.20592e-18 20 	3.74386e-17 	-5.20537e-18 20 	3.49716e-17 	-6.94377e-18 20 	3.49716e-17 	-6.94377e-18 20 	3.49716e-17 	-6.94377e-18 20 	3.49716e-17 	-6.94377e-18 20 	3.49707e-17 	-6.94269e-18 20 	3.17347e-17 	-7.40229e-18 20 	3.17347e-17 	-7.40229e-18 20 	3.17347e-17 	-7.40229e-18 20 	3.17347e-17 	-7.40229e-18 20 	3.17334e-17 	-7.40052e-18 20 	2.96337e-17 	-7.74807e-18 20 	2.96337e-17 	-7.74807e-18 20 	2.96337e-17 	-7.74807e-18 20 	2.96337e-17 	-7.74807e-18 20 	2.96338e-17 	-7.74596e-18 20 	2.85845e-17 	-7.78427e-18 20 	2.85845e-17 	-7.78427e-18 20 	2.85845e-17 	-7.78427e-18 20 	2.85845e-17 	-7.78427e-18 20 	2.85842e-17 	-7.78333e-18 20 	3.08506e-17 	-4.44422e-18 20 	3.08506e-17 	-4.44422e-18 20 	3.08506e-17 	-4.44422e-18 20 	3.08506e-17 	-4.44422e-18 20 	3.08508e-17 	-4.44316e-18 20 	3.39138e-17 	-1.36321e-18 20 	3.39138e-17 	-1.36321e-18 20 	3.39138e-17 	-1.36321e-18 20 	3.39138e-17 	-1.36321e-18 20 	3.39139e-17 	-1.36322e-18 20 	3.10194e-17 	-1.76815e-18 20 	3.10194e-17 	-1.76815e-18 20 	3.10194e-17 	-1.76815e-18 20 	3.10194e-17 	-1.76815e-18 20 	3.10197e-17 	-1.76719e-18 20 	2.71814e-17 	5.26058e-19 20 	2.71814e-17 	5.26058e-19 20 	2.71814e-17 	5.26058e-19 20 	2.71814e-17 	5.26058e-19 20 	2.71822e-17 	5.27268e-19 20 	2.38294e-17 	-4.45647e-19 20 	2.38294e-17 	-4.45647e-19 20 	2.38294e-17 	-4.45647e-19 20 	2.38294e-17 	-4.45647e-19 20 	2.38288e-17 	-4.45172e-19 20 	2.26493e-17 	-5.77927e-18 20 	2.26493e-17 	-5.77927e-18 20 	2.26493e-17 	-5.77927e-18 20 	2.26493e-17 	-5.77927e-18 20 	2.26484e-17 	-5.77702e-18 20 	2.51229e-17 	-7.69103e-18 20 	2.51229e-17 	-7.69103e-18 20 	2.51229e-17 	-7.69103e-18 20 	2.51229e-17 	-7.69103e-18 20 	2.51235e-17 	-7.68946e-18 20 	2.57501e-17 	-5.09193e-18 20 	2.57501e-17 	-5.09193e-18 20 	2.57501e-17 	-5.09193e-18 20 	2.57501e-17 	-5.09193e-18 20 	2.57492e-17 	-5.09104e-18 20 	2.33261e-17 	-3.13937e-18 20 	2.33261e-17 	-3.13937e-18 20 	2.33261e-17 	-3.13937e-18 20 	2.33261e-17 	-3.13937e-18 20 	2.33245e-17 	-3.13991e-18 20 	2.07549e-17 	-4.20073e-18 20 	2.07549e-17 	-4.20073e-18 20 	2.07549e-17 	-4.20073e-18 20 	2.07549e-17 	-4.20073e-18 20 	2.07545e-17 	-4.20074e-18 20 	1.58781e-17 	-2.80103e-18 20 	1.58781e-17 	-2.80103e-18 20 	1.58781e-17 	-2.80103e-18 20 	1.58781e-17 	-2.80103e-18 20 	1.58774e-17 	-2.80081e-18 20 	5.80672e-18 	-1.08586e-18 20 	5.80672e-18 	-1.08586e-18 20 	5.80672e-18 	-1.08586e-18 20 	5.80672e-18 	-1.08586e-18 20 	5.80694e-18 	-1.08596e-18 20 	-5.99797e-18 	-2.93406e-18 20 	-5.99797e-18 	-2.93406e-18 20 	-5.99797e-18 	-2.93406e-18 20 	-5.99797e-18 	-2.93406e-18 20 	-5.99461e-18 	-2.93294e-18 20 	-1.36649e-17 	-4.11594e-18 20 	-1.36649e-17 	-4.11594e-18 20 	-1.36649e-17 	-4.11594e-18 20 	-1.36649e-17 	-4.11594e-18 20 	-1.36608e-17 	-4.11451e-18 20 	-1.58435e-17 	-5.82264e-18 20 	-1.58435e-17 	-5.82264e-18 20 	-1.58435e-17 	-5.82264e-18 20 	-1.58435e-17 	-5.82264e-18 20 	-1.584e-17 	-5.822e-18 20 	-1.66139e-17 	-6.82445e-18 20 	-1.66139e-17 	-6.82445e-18 20 	-1.66139e-17 	-6.82445e-18 20 	-1.66139e-17 	-6.82445e-18 20 	-1.66094e-17 	-6.82363e-18 20 	-1.79242e-17 	-3.0583e-18 20 	-1.79242e-17 	-3.0583e-18 20 	-1.79242e-17 	-3.0583e-18 20 	-1.79242e-17 	-3.0583e-18 20 	-1.79194e-17 	-3.05761e-18 20 	-2.5385e-17 	1.72651e-18 20 	-2.5385e-17 	1.72651e-18 20 	-2.5385e-17 	1.72651e-18 20 	-2.5385e-17 	1.72651e-18 20 	-2.53803e-17 	1.72701e-18 20 	-3.38713e-17 	3.81679e-18 20 	-3.38713e-17 	3.81679e-18 20 	-3.38713e-17 	3.81679e-18 20 	-3.38713e-17 	3.81679e-18 20 	-3.38666e-17 	3.81678e-18 20 	-3.77641e-17 	2.40243e-18 20 	-3.77641e-17 	2.40243e-18 20 	-3.77641e-17 	2.40243e-18 20 	-3.77641e-17 	2.40243e-18 20 	-3.7759e-17 	2.40197e-18 20 	-4.20218e-17 	2.10845e-18 20 	-4.20218e-17 	2.10845e-18 20 	-4.20218e-17 	2.10845e-18 20 	-4.20218e-17 	2.10845e-18 20 	-4.20162e-17 	2.10751e-18 20 	-4.65791e-17 	3.83952e-18 20 	-4.65791e-17 	3.83952e-18 20 	-4.65791e-17 	3.83952e-18 20 	-4.65791e-17 	3.83952e-18 20 	-4.65733e-17 	3.83922e-18 20 	-4.94265e-17 	4.67581e-18 20 	-4.94265e-17 	4.67581e-18 20 	-4.94265e-17 	4.67581e-18 20 	-4.94265e-17 	4.67581e-18 20 	-4.942e-17 	4.67524e-18 20 	-5.19601e-17 	2.85454e-18 20 	-5.19601e-17 	2.85454e-18 20 	-5.19601e-17 	2.85454e-18 20 	-5.19601e-17 	2.85454e-18 20 	-5.19535e-17 	2.85364e-18 20 	-8.68058e-16 	-1.4582e-17 20 	-1.7102e-15 	-3.10762e-17 20 	-2.55234e-15 	-4.75703e-17 20 	-3.39448e-15 	-6.40644e-17 20 	-4.23662e-15 	-8.05587e-17