/*--------------------------------*- C++ -*----------------------------------*\
| =========                 |                                                 |
| \\      /  F ield         | OpenFOAM: The Open Source CFD Toolbox           |
|  \\    /   O peration     | Version:  3.0.0                                 |
|   \\  /    A nd           | Web:      www.OpenFOAM.org                      |
|    \\/     M anipulation  |                                                 |
\*---------------------------------------------------------------------------*/
FoamFile
{
    version     2.0;
    format      ascii;
    class       volScalarField;
    location    "4";
    object      k;
}
// * * * * * * * * * * * * * * * * * * * * * * * * * * * * * * * * * * * * * //

dimensions      [0 2 -2 0 0 0 0];

internalField   nonuniform List<scalar> 
400
(
1.3141e-07
4.46133e-07
1.31832e-06
9.02981e-06
7.03218e-05
0.000222556
0.000341555
0.000406122
0.000437204
0.000447051
0.000447209
0.000417698
0.000388968
0.000343144
0.000301447
0.000252416
0.000207096
0.000160771
0.000108409
6.52705e-05
4.70586e-07
2.55261e-06
1.14599e-05
4.15584e-05
0.000113392
0.000182409
0.000214303
0.000228838
0.000236405
0.000244414
0.000254874
0.000269155
0.000291089
0.000312052
0.000336164
0.000355181
0.000364481
0.000365999
0.00033238
0.000316953
1.49628e-06
1.35646e-05
4.2185e-05
8.88255e-05
0.000140424
0.000195372
0.000232837
0.000276811
0.00033501
0.00040295
0.000455522
0.000497513
0.000524451
0.000538538
0.000547561
0.000552233
0.000554601
0.000551549
0.000554318
0.000661063
7.57678e-06
3.37415e-05
6.87847e-05
0.00011147
0.000170203
0.00024301
0.000332297
0.000440118
0.000523356
0.000577097
0.000626167
0.000655895
0.00068665
0.000713683
0.000740014
0.000750814
0.000736819
0.000705334
0.000690586
0.000898741
2.06816e-05
4.79698e-05
8.8346e-05
0.00014329
0.000232194
0.000338987
0.000435743
0.000513806
0.00056169
0.000603564
0.000639718
0.000671974
0.000706556
0.000750703
0.000809414
0.000881874
0.000913537
0.00088292
0.000828404
0.00108917
3.64377e-05
6.01184e-05
0.000109416
0.000180325
0.00028715
0.000389613
0.000461854
0.000510445
0.000543567
0.000565186
0.000581974
0.000606707
0.000649226
0.000711119
0.000799679
0.000916689
0.00102082
0.00103923
0.000959931
0.00124199
5.95889e-05
6.61003e-05
0.00012241
0.000203126
0.000316491
0.000407664
0.000457262
0.000480491
0.000482269
0.000474559
0.000472744
0.000491941
0.000530961
0.000598989
0.000705541
0.000863583
0.00106282
0.00116304
0.00109628
0.00137822
8.14805e-05
6.77207e-05
0.000131311
0.000220384
0.000334674
0.00040431
0.000431053
0.000421002
0.000390984
0.00036202
0.000349257
0.000353105
0.000385857
0.000453837
0.000570334
0.00075793
0.00104556
0.00123551
0.00123569
0.00150172
0.000106197
6.68412e-05
0.000130332
0.000221478
0.000334416
0.00038855
0.000391907
0.000352456
0.000294208
0.000245801
0.00022027
0.000210857
0.000232528
0.000292195
0.000411606
0.00060768
0.000927969
0.00126432
0.00137465
0.00162268
0.000128098
6.38689e-05
0.000126208
0.000217604
0.000327463
0.000365684
0.000352408
0.000289094
0.000211033
0.00015899
0.000135406
0.000128601
0.000138466
0.000167254
0.00024988
0.000445543
0.000795885
0.0012678
0.00151078
0.0017444
0.000146038
6.27595e-05
0.000116588
0.000207039
0.000310289
0.000341992
0.000315611
0.000238539
0.000160914
0.000119784
0.000106158
0.000106384
0.000111896
0.000123756
0.000161207
0.000299835
0.00065166
0.00122253
0.00163343
0.00187393
0.000145847
6.33873e-05
0.0001005
0.000185724
0.000286908
0.000318352
0.000293515
0.00022029
0.000151637
0.00011578
0.000105941
0.000107299
0.000110201
0.000116065
0.000133691
0.000211054
0.000496369
0.00114717
0.0017537
0.0020172
0.000136677
6.32734e-05
8.467e-05
0.000156627
0.000251064
0.000286971
0.000274793
0.000223232
0.000158606
0.000122218
0.000115015
0.000120213
0.000125057
0.000124285
0.000130545
0.000180547
0.000392283
0.00106406
0.00185004
0.00218296
0.000109881
6.06176e-05
7.2289e-05
0.000120274
0.000216525
0.000262554
0.000259634
0.000234125
0.000180558
0.000143243
0.000134569
0.000137117
0.000140253
0.000138913
0.00014002
0.000174351
0.000346176
0.00097699
0.00194032
0.00238297
6.09293e-05
5.13794e-05
5.95137e-05
8.79681e-05
0.000161645
0.000217021
0.000230209
0.000226117
0.000206686
0.000178414
0.0001619
0.000158023
0.000150877
0.000148388
0.000150913
0.000179249
0.000331196
0.0009378
0.00203568
0.00263383
2.78373e-05
3.53518e-05
4.78891e-05
7.01222e-05
0.000123038
0.000183835
0.000207258
0.000209407
0.000203688
0.000190168
0.000174485
0.000167854
0.000154332
0.000153074
0.000160519
0.000198007
0.000340341
0.000928563
0.00218038
0.00296599
9.57155e-06
1.83341e-05
3.03888e-05
4.32945e-05
6.94539e-05
0.000111221
0.000145435
0.000159358
0.000167101
0.000165618
0.000160976
0.000151469
0.000145914
0.000153369
0.000181174
0.000258087
0.000444426
0.00104326
0.00238949
0.00342414
1.93148e-05
2.52446e-05
3.79549e-05
5.09846e-05
7.29984e-05
0.000107034
0.000138649
0.000160784
0.000174049
0.000183053
0.000190242
0.000201314
0.000223818
0.00027098
0.000361923
0.000548204
0.000818305
0.00148876
0.00294569
0.00412786
0.000116637
0.00035607
0.000451337
0.000507096
0.00054123
0.000584534
0.000632553
0.000695101
0.000755573
0.000840102
0.000931741
0.00105938
0.00120629
0.0014209
0.00165876
0.00196752
0.00233959
0.00309734
0.00463584
0.00540358
0.00277405
0.00563278
0.0068567
0.007248
0.00727157
0.00723844
0.00716316
0.00710493
0.00705758
0.00703919
0.00704211
0.00705827
0.0070857
0.00714762
0.00721257
0.00731902
0.00743345
0.00756663
0.00805041
0.00694261
)
;

boundaryField
{
    movingWall
    {
        type            kqRWallFunction;
        value           nonuniform List<scalar> 
20
(
0.00277405
0.00563278
0.0068567
0.007248
0.00727157
0.00723844
0.00716316
0.00710493
0.00705758
0.00703919
0.00704211
0.00705827
0.0070857
0.00714762
0.00721257
0.00731902
0.00743345
0.00756663
0.00805041
0.00694261
)
;
    }
    fixedWalls
    {
        type            kqRWallFunction;
        value           nonuniform List<scalar> 
60
(
1.3141e-07
4.70586e-07
1.49628e-06
7.57678e-06
2.06816e-05
3.64377e-05
5.95889e-05
8.14805e-05
0.000106197
0.000128098
0.000146038
0.000145847
0.000136677
0.000109881
6.09293e-05
2.78373e-05
9.57155e-06
1.93148e-05
0.000116637
0.00277405
6.52705e-05
0.000316953
0.000661063
0.000898741
0.00108917
0.00124199
0.00137822
0.00150172
0.00162268
0.0017444
0.00187393
0.0020172
0.00218296
0.00238297
0.00263383
0.00296599
0.00342414
0.00412786
0.00540358
0.00694261
1.3141e-07
4.46133e-07
1.31832e-06
9.02981e-06
7.03218e-05
0.000222556
0.000341555
0.000406122
0.000437204
0.000447051
0.000447209
0.000417698
0.000388968
0.000343144
0.000301447
0.000252416
0.000207096
0.000160771
0.000108409
6.52705e-05
)
;
    }
    frontAndBack
    {
        type            empty;
    }
}


// ************************************************************************* //
