/*--------------------------------*- C++ -*----------------------------------*\
| =========                 |                                                 |
| \\      /  F ield         | OpenFOAM: The Open Source CFD Toolbox           |
|  \\    /   O peration     | Version:  3.0.0                                 |
|   \\  /    A nd           | Web:      www.OpenFOAM.org                      |
|    \\/     M anipulation  |                                                 |
\*---------------------------------------------------------------------------*/
FoamFile
{
    version     2.0;
    format      ascii;
    class       volScalarField;
    location    "4";
    object      nut;
}
// * * * * * * * * * * * * * * * * * * * * * * * * * * * * * * * * * * * * * //

dimensions      [0 2 -1 0 0 0 0];

internalField   nonuniform List<scalar> 
400
(
1.02663e-09
3.48527e-09
1.02981e-08
7.04842e-08
5.45701e-07
1.70251e-06
2.5844e-06
3.05511e-06
3.27978e-06
3.3507e-06
3.35184e-06
3.1389e-06
2.93055e-06
2.59603e-06
2.28925e-06
1.92555e-06
1.58647e-06
1.23694e-06
8.38201e-07
5.06737e-07
3.67629e-09
7.23868e-08
2.30604e-07
5.89236e-07
1.47862e-06
2.4522e-06
3.35544e-06
4.1477e-06
5.16429e-06
6.12943e-06
7.21087e-06
8.05173e-06
8.83204e-06
8.75225e-06
8.80524e-06
8.22144e-06
7.20038e-06
5.79921e-06
3.79767e-06
2.40361e-06
1.1688e-08
3.87727e-07
9.24056e-07
1.77157e-06
2.91355e-06
5.12783e-06
7.62684e-06
1.09078e-05
1.48796e-05
1.89648e-05
2.18679e-05
2.37045e-05
2.35233e-05
2.23721e-05
2.00693e-05
1.71148e-05
1.3592e-05
9.92488e-06
6.48106e-06
4.86294e-06
5.91504e-08
9.40691e-07
1.78775e-06
2.91986e-06
5.50402e-06
1.06217e-05
1.74418e-05
2.659e-05
3.40245e-05
3.88981e-05
4.26915e-05
4.43109e-05
4.39612e-05
4.22263e-05
3.83215e-05
3.20114e-05
2.3782e-05
1.55317e-05
8.90389e-06
6.48053e-06
1.61254e-07
1.37729e-06
2.69293e-06
4.91576e-06
1.09893e-05
2.09854e-05
3.15419e-05
4.21226e-05
4.92504e-05
5.48981e-05
5.89487e-05
6.13491e-05
6.08222e-05
5.86983e-05
5.42428e-05
4.72845e-05
3.58804e-05
2.27082e-05
1.16942e-05
7.73315e-06
2.83674e-07
1.84214e-06
3.93256e-06
7.8778e-06
1.81748e-05
3.11306e-05
4.26246e-05
5.32701e-05
6.07001e-05
6.55724e-05
6.84487e-05
7.07111e-05
7.14194e-05
7.04764e-05
6.70185e-05
6.01567e-05
4.76075e-05
3.05663e-05
1.47598e-05
8.71242e-06
4.62884e-07
2.17799e-06
5.07244e-06
1.08542e-05
2.45714e-05
3.92615e-05
5.08071e-05
5.99405e-05
6.39677e-05
6.48272e-05
6.50909e-05
6.63785e-05
6.79426e-05
7.00386e-05
6.98887e-05
6.60238e-05
5.62803e-05
3.7897e-05
1.79708e-05
9.56685e-06
6.31618e-07
2.34139e-06
6.18507e-06
1.37636e-05
3.00303e-05
4.4529e-05
5.4692e-05
5.88354e-05
5.70978e-05
5.3596e-05
5.1333e-05
5.02143e-05
5.24728e-05
5.78118e-05
6.39179e-05
6.61082e-05
6.18247e-05
4.35431e-05
2.1423e-05
1.03271e-05
8.2129e-07
2.42472e-06
6.70867e-06
1.53827e-05
3.28415e-05
4.6793e-05
5.39091e-05
5.2027e-05
4.44446e-05
3.719e-05
3.2546e-05
3.01398e-05
3.20118e-05
3.82515e-05
4.93148e-05
5.88225e-05
6.03409e-05
4.75447e-05
2.46169e-05
1.1059e-05
9.88618e-07
2.28822e-06
7.00527e-06
1.6219e-05
3.41526e-05
4.6391e-05
5.02336e-05
4.35998e-05
3.23935e-05
2.44765e-05
2.03767e-05
1.86915e-05
1.92251e-05
2.20446e-05
3.08565e-05
4.63403e-05
5.64879e-05
5.05796e-05
2.80846e-05
1.17833e-05
1.12518e-06
2.08406e-06
6.62875e-06
1.60217e-05
3.2791e-05
4.42127e-05
4.60515e-05
3.67581e-05
2.54607e-05
1.92977e-05
1.71411e-05
1.6755e-05
1.63771e-05
1.64963e-05
2.00871e-05
3.22741e-05
4.98857e-05
5.13036e-05
3.10076e-05
1.25411e-05
1.12373e-06
1.79943e-06
5.59793e-06
1.43008e-05
2.99899e-05
4.09122e-05
4.2825e-05
3.46796e-05
2.50263e-05
1.97603e-05
1.83327e-05
1.8307e-05
1.76606e-05
1.60352e-05
1.64012e-05
2.29073e-05
3.96024e-05
5.01734e-05
3.43987e-05
1.33646e-05
1.05399e-06
1.45957e-06
4.39942e-06
1.17421e-05
2.54301e-05
3.60298e-05
3.96225e-05
3.5014e-05
2.63593e-05
2.12484e-05
2.0331e-05
2.10524e-05
2.08598e-05
1.81286e-05
1.58266e-05
1.90175e-05
3.17245e-05
4.74931e-05
3.69484e-05
1.42986e-05
8.49499e-07
1.14684e-06
3.24478e-06
8.4454e-06
2.05908e-05
3.1357e-05
3.61598e-05
3.59272e-05
2.95715e-05
2.46595e-05
2.36151e-05
2.39181e-05
2.35598e-05
2.07378e-05
1.66444e-05
1.7639e-05
2.77529e-05
4.3908e-05
3.90665e-05
1.54003e-05
4.73238e-07
8.62029e-07
2.22563e-06
5.50423e-06
1.38992e-05
2.35275e-05
2.9701e-05
3.27663e-05
3.2282e-05
2.95341e-05
2.73899e-05
2.65456e-05
2.44469e-05
2.16485e-05
1.73616e-05
1.70615e-05
2.52912e-05
4.08911e-05
3.8969e-05
1.67453e-05
2.16896e-07
5.99189e-07
1.49619e-06
3.61463e-06
9.17302e-06
1.75088e-05
2.36627e-05
2.71672e-05
2.87426e-05
2.87235e-05
2.70254e-05
2.57955e-05
2.28682e-05
2.04943e-05
1.70814e-05
1.73166e-05
2.39969e-05
3.76382e-05
3.93149e-05
1.84676e-05
7.47083e-08
3.46054e-07
9.21957e-07
1.86363e-06
4.03744e-06
8.2628e-06
1.31557e-05
1.67789e-05
1.94126e-05
2.08705e-05
2.10186e-05
1.96432e-05
1.82594e-05
1.73895e-05
1.65823e-05
1.95534e-05
2.66111e-05
3.62073e-05
3.85075e-05
2.07435e-05
1.50615e-07
6.63084e-07
1.22286e-06
2.03757e-06
3.56086e-06
6.20424e-06
9.3226e-06
1.21833e-05
1.43157e-05
1.61477e-05
1.70416e-05
1.7725e-05
1.87072e-05
2.04436e-05
2.25233e-05
2.83657e-05
3.30653e-05
3.71493e-05
3.86709e-05
2.40407e-05
9.01127e-07
8.75101e-06
1.21035e-05
1.43547e-05
1.61408e-05
1.82605e-05
2.05055e-05
2.27511e-05
2.45586e-05
2.67389e-05
2.84375e-05
3.02838e-05
3.19187e-05
3.41914e-05
3.59259e-05
3.89305e-05
3.9381e-05
3.82485e-05
3.94019e-05
2.95092e-05
1.74819e-05
3.04393e-05
3.51114e-05
3.65238e-05
3.66053e-05
3.64869e-05
3.62175e-05
3.60076e-05
3.58376e-05
3.5771e-05
3.57815e-05
3.58397e-05
3.59384e-05
3.61598e-05
3.63929e-05
3.67722e-05
3.71774e-05
3.76453e-05
3.93131e-05
3.54216e-05
)
;

boundaryField
{
    movingWall
    {
        type            nutkWallFunction;
        Cmu             0.09;
        kappa           0.41;
        E               9.8;
        value           nonuniform List<scalar> 
20
(
0
0
0
8.71185e-08
1.00048e-07
8.18695e-08
4.03871e-08
8.12499e-09
0
0
0
0
0
3.17908e-08
6.76406e-08
1.26002e-07
1.88188e-07
2.5988e-07
5.14335e-07
0
)
;
    }
    fixedWalls
    {
        type            nutkWallFunction;
        Cmu             0.09;
        kappa           0.41;
        E               9.8;
        value           uniform 0;
    }
    frontAndBack
    {
        type            empty;
    }
}


// ************************************************************************* //
