/*--------------------------------*- C++ -*----------------------------------*\
| =========                 |                                                 |
| \\      /  F ield         | OpenFOAM: The Open Source CFD Toolbox           |
|  \\    /   O peration     | Version:  3.0.0                                 |
|   \\  /    A nd           | Web:      www.OpenFOAM.org                      |
|    \\/     M anipulation  |                                                 |
\*---------------------------------------------------------------------------*/
FoamFile
{
    version     2.0;
    format      ascii;
    class       volScalarField;
    location    "4";
    object      omega;
}
// * * * * * * * * * * * * * * * * * * * * * * * * * * * * * * * * * * * * * //

dimensions      [0 0 -1 0 0 0 0];

internalField   nonuniform List<scalar> 
400
(
128.002
128.005
128.016
128.111
128.865
130.722
132.16
132.932
133.303
133.42
133.422
133.071
132.729
132.18
131.679
131.088
130.539
129.975
129.335
128.805
128.006
35.2635
49.6949
70.5293
76.6877
74.3858
63.8674
55.1723
45.7769
39.8755
35.3458
33.4283
32.9583
35.6539
38.1777
43.2018
50.6197
63.112
87.522
131.866
128.018
34.985
45.652
50.1393
48.1967
38.1002
30.5286
25.3773
22.5148
21.2472
20.8306
20.9881
22.295
24.0719
27.2834
32.2663
40.8036
55.5724
85.529
135.939
128.093
35.8688
38.4756
38.1764
30.9234
22.8786
19.0517
16.552
15.3817
14.8361
14.6672
14.8021
15.6195
16.9014
19.3107
23.4546
30.9823
45.4126
77.56
138.683
128.255
34.8291
32.8067
29.149
21.1291
16.1535
13.8147
12.1979
11.4048
10.9943
10.8521
10.9533
11.6167
12.7892
14.9221
18.6504
25.4606
38.8811
70.8389
140.844
128.449
32.6352
27.823
22.8903
15.7994
12.5154
10.8354
9.58221
8.95496
8.61927
8.50233
8.58007
9.09033
10.0902
11.9322
15.2383
21.4425
33.9991
65.0367
142.554
128.734
30.3492
24.1324
18.714
12.8804
10.3833
8.99996
8.01613
7.53927
7.32037
7.26282
7.41116
7.81485
8.55227
10.0952
13.0799
18.8845
30.6895
61.0031
144.062
129.003
28.9233
21.2304
16.0121
11.1445
9.07972
7.88146
7.15559
6.84763
6.75461
6.80376
7.03196
7.35346
7.85024
8.92292
11.465
16.9117
28.3744
57.6805
145.416
129.305
27.5666
19.4275
14.3979
10.1827
8.30358
7.26978
6.77449
6.61964
6.60933
6.76795
6.99597
7.26383
7.63879
8.34651
10.3307
15.3788
26.5922
55.8418
146.73
129.573
27.9121
18.0162
13.4167
9.58823
7.88264
7.01538
6.63063
6.51469
6.49559
6.64513
6.88015
7.20237
7.58709
8.09815
9.6146
14.0895
25.0654
53.794
148.04
129.791
30.1141
17.5883
12.9224
9.46265
7.73514
6.85343
6.48943
6.32011
6.20716
6.19322
6.34941
6.83247
7.50208
8.02543
9.29027
13.0631
23.8294
52.6782
149.422
129.789
35.2263
17.9531
12.9869
9.56683
7.78135
6.85382
6.35215
6.0591
5.85922
5.77882
5.86108
6.23996
7.23812
8.15129
9.2134
12.5338
22.8641
50.9814
150.936
129.676
43.3507
19.2457
13.3389
9.87273
7.96482
6.93527
6.37551
6.01706
5.7519
5.65716
5.71017
5.99514
6.85573
8.24848
9.49376
12.3653
22.4046
50.0709
152.67
129.348
52.856
22.2786
14.2414
10.5157
8.37305
7.1802
6.51666
6.10582
5.80884
5.69843
5.73279
5.95307
6.69852
8.41242
9.88439
12.4735
22.2508
49.6671
154.735
128.75
59.6029
26.7402
15.9819
11.6299
9.22415
7.75088
6.90091
6.4025
6.04093
5.91093
5.9529
6.17164
6.85442
8.69234
10.506
13.0953
22.9341
52.2384
157.288
128.344
58.9994
32.0074
19.3995
13.413
10.4996
8.75882
7.70806
7.08662
6.62065
6.45635
6.50711
6.74873
7.46914
9.39732
11.4345
14.1827
24.6707
55.4594
160.605
128.119
52.9804
32.9612
23.2313
17.2024
13.4605
11.0549
9.49753
8.60789
7.93549
7.65871
7.71101
7.99119
8.81962
10.9258
13.1991
16.7008
28.8135
62.0526
165.071
128.24
38.0715
31.0378
25.0223
20.5002
17.2518
14.8724
13.1971
12.1579
11.3361
11.1634
11.3576
11.9642
13.255
16.0688
19.3263
24.7481
40.0751
76.1733
171.703
129.434
40.689
37.2898
35.3262
33.5318
32.0108
30.848
30.5524
30.7661
31.4187
32.7645
34.9818
37.7926
41.5572
46.1716
50.5394
59.4091
80.9794
117.655
183.115
158.681
185.05
195.284
198.446
198.648
198.384
197.782
197.318
196.932
196.785
196.809
196.94
197.163
197.668
198.186
199.037
199.945
200.998
204.777
195.999
)
;

boundaryField
{
    movingWall
    {
        Cmu             0.09;
        kappa           0.41;
        E               9.8;
        beta1           0.075;
        type            omegaWallFunction;
        value           nonuniform List<scalar> 
20
(
158.681
185.05
195.284
198.446
198.648
198.384
197.782
197.318
196.932
196.785
196.809
196.94
197.163
197.668
198.186
199.037
199.945
200.998
204.777
195.999
)
;
    }
    fixedWalls
    {
        Cmu             0.09;
        kappa           0.41;
        E               9.8;
        beta1           0.075;
        type            omegaWallFunction;
        value           nonuniform List<scalar> 
60
(
128.002
128.006
128.018
128.093
128.255
128.449
128.734
129.003
129.305
129.573
129.791
129.789
129.676
129.348
128.75
128.344
128.119
128.24
129.434
158.681
128.805
131.866
135.939
138.683
140.844
142.554
144.062
145.416
146.73
148.04
149.422
150.936
152.67
154.735
157.288
160.605
165.071
171.703
183.115
195.999
128.002
128.005
128.016
128.111
128.865
130.722
132.16
132.932
133.303
133.42
133.422
133.071
132.729
132.18
131.679
131.088
130.539
129.975
129.335
128.805
)
;
    }
    frontAndBack
    {
        type            empty;
    }
}


// ************************************************************************* //
