/*--------------------------------*- C++ -*----------------------------------*\
| =========                 |                                                 |
| \\      /  F ield         | OpenFOAM: The Open Source CFD Toolbox           |
|  \\    /   O peration     | Version:  3.0.0                                 |
|   \\  /    A nd           | Web:      www.OpenFOAM.org                      |
|    \\/     M anipulation  |                                                 |
\*---------------------------------------------------------------------------*/
FoamFile
{
    version     2.0;
    format      ascii;
    class       volScalarField;
    location    "4";
    object      p;
}
// * * * * * * * * * * * * * * * * * * * * * * * * * * * * * * * * * * * * * //

dimensions      [0 2 -2 0 0 0 0];

internalField   nonuniform List<scalar> 
400
(
1.81106e-07
-4.98161e-05
-9.91569e-05
-0.000240549
-0.000192185
-0.000482366
-0.00134704
-0.00246051
-0.00348195
-0.00425182
-0.00467614
-0.00470115
-0.00423519
-0.00322982
-0.00164828
0.000499005
0.00303426
0.00551986
0.00714086
0.0075621
3.36423e-05
-1.48138e-05
-5.96969e-05
-0.000186916
-0.000568953
-0.00123762
-0.00218801
-0.00319351
-0.00413613
-0.00484032
-0.0052312
-0.00525091
-0.00485827
-0.00399626
-0.0025982
-0.000664389
0.00172101
0.00418691
0.00609852
0.00704667
0.000126394
5.1605e-05
-0.000165278
-0.000608299
-0.00134413
-0.00232057
-0.0033604
-0.00437165
-0.00526845
-0.00588751
-0.00619992
-0.00618449
-0.00582515
-0.00509785
-0.00396933
-0.00240903
-0.00042808
0.00184185
0.00401766
0.0053604
0.00019878
1.36995e-05
-0.000486221
-0.00132506
-0.00240884
-0.00356952
-0.00466673
-0.00561277
-0.00631397
-0.00677997
-0.00700717
-0.00697916
-0.00668418
-0.00610918
-0.00523825
-0.00404763
-0.00250336
-0.00060362
0.00145623
0.00283766
2.56428e-05
-0.000311003
-0.00108894
-0.00225272
-0.00352349
-0.0047194
-0.00573633
-0.00654867
-0.00712871
-0.00750888
-0.00768629
-0.00765875
-0.00741942
-0.00696517
-0.00629473
-0.00539976
-0.00424592
-0.00277624
-0.0010372
0.000227127
-0.000490048
-0.000930594
-0.00191168
-0.0032117
-0.00451636
-0.00565349
-0.00656051
-0.00726684
-0.00777198
-0.00810416
-0.00825898
-0.00823834
-0.0080411
-0.00767311
-0.00714405
-0.00645792
-0.00559635
-0.0045061
-0.00324085
-0.00208697
-0.00128204
-0.00176209
-0.00281387
-0.00409443
-0.00534707
-0.00639172
-0.00720682
-0.00784136
-0.00829967
-0.00860275
-0.00874551
-0.00872872
-0.00855682
-0.00824493
-0.00781078
-0.00726595
-0.00661195
-0.00580449
-0.00493693
-0.0039685
-0.00214983
-0.00260979
-0.00364334
-0.00484341
-0.00601355
-0.00696987
-0.00771877
-0.00830766
-0.00874145
-0.00903183
-0.00916955
-0.0091519
-0.00898966
-0.00870666
-0.00833035
-0.00787578
-0.00736299
-0.00674576
-0.00618145
-0.0053803
-0.00288834
-0.00332337
-0.0043071
-0.0054213
-0.00651471
-0.00740279
-0.0081117
-0.00868059
-0.00911516
-0.00941743
-0.00956647
-0.00955295
-0.00938889
-0.00910465
-0.00874566
-0.00833044
-0.00789934
-0.00737814
-0.00703442
-0.00636247
-0.00341795
-0.0038102
-0.00474006
-0.00579749
-0.00683922
-0.00768921
-0.00838784
-0.00896637
-0.00943334
-0.00978215
-0.0099694
-0.00997046
-0.00979282
-0.00947155
-0.00908276
-0.00865675
-0.00826656
-0.00774951
-0.00756842
-0.00693121
-0.0036881
-0.00406752
-0.00493311
-0.00595898
-0.00697305
-0.00782069
-0.00853899
-0.00915618
-0.00968277
-0.0101045
-0.0103515
-0.0103758
-0.0101716
-0.00977642
-0.00931056
-0.00882495
-0.00846652
-0.00785142
-0.00782313
-0.00709886
-0.00369837
-0.00409284
-0.00489738
-0.00588807
-0.00690218
-0.0077726
-0.00853155
-0.00920223
-0.00978948
-0.0102684
-0.0105635
-0.0106081
-0.0103846
-0.00991374
-0.00934643
-0.00877276
-0.00843439
-0.00767351
-0.00783293
-0.00685263
-0.00353313
-0.00392316
-0.00466361
-0.00559501
-0.00660996
-0.00751118
-0.00831825
-0.00904285
-0.00967813
-0.0101903
-0.0105064
-0.0105588
-0.0103204
-0.00979681
-0.00913063
-0.00847464
-0.00807274
-0.00725346
-0.00755819
-0.00621525
-0.00333172
-0.00365512
-0.00426771
-0.00507812
-0.00606525
-0.00700078
-0.00786443
-0.00864693
-0.00932553
-0.00985878
-0.0101817
-0.0102313
-0.0099763
-0.00940817
-0.00865542
-0.00791197
-0.00741457
-0.00661166
-0.00693348
-0.00525767
-0.00321523
-0.00339005
-0.00378475
-0.00439945
-0.00526712
-0.00622627
-0.00715706
-0.00801106
-0.0087444
-0.00930582
-0.00963503
-0.00967093
-0.00939835
-0.0087866
-0.0079586
-0.00712395
-0.00652849
-0.00572749
-0.0059824
-0.00404645
-0.0031498
-0.00310837
-0.00318599
-0.00356152
-0.00426297
-0.00520119
-0.00620453
-0.00715306
-0.00796781
-0.0085832
-0.00894039
-0.0089817
-0.00868535
-0.00802857
-0.00713535
-0.00620807
-0.00549367
-0.00459425
-0.00471523
-0.00235832
-0.00316899
-0.00282959
-0.00253533
-0.00260105
-0.00311047
-0.00399713
-0.00505964
-0.00611312
-0.00703376
-0.0077311
-0.00814277
-0.00821278
-0.00792316
-0.00725019
-0.00631773
-0.00528681
-0.00437476
-0.00317192
-0.00283237
0.000962027
-0.00259557
-0.0023004
-0.00182726
-0.00156744
-0.00191545
-0.00277362
-0.00389486
-0.00504417
-0.0060696
-0.00686419
-0.00735523
-0.00747944
-0.00721951
-0.00658337
-0.00564752
-0.00446734
-0.00319707
-0.00131232
0.000499641
0.00842714
-0.00350092
-0.00266171
-0.00148572
-0.000877239
-0.00109549
-0.00192591
-0.00308497
-0.00431064
-0.00542283
-0.00630465
-0.00687863
-0.00708885
-0.00689923
-0.00629371
-0.00525259
-0.00379418
-0.00190017
0.00138052
0.00644371
0.0208907
-0.00178661
0.000672832
0.000792171
0.000398868
-0.000297714
-0.00130082
-0.00252623
-0.00381387
-0.00498163
-0.00590359
-0.00649706
-0.00671095
-0.00650155
-0.00583358
-0.00467313
-0.00291741
-1.30085e-05
0.00551028
0.0152891
0.0327281
)
;

boundaryField
{
    movingWall
    {
        type            zeroGradient;
    }
    fixedWalls
    {
        type            zeroGradient;
    }
    frontAndBack
    {
        type            empty;
    }
}


// ************************************************************************* //
