/*--------------------------------*- C++ -*----------------------------------*\
| =========                 |                                                 |
| \\      /  F ield         | OpenFOAM: The Open Source CFD Toolbox           |
|  \\    /   O peration     | Version:  3.0.0                                 |
|   \\  /    A nd           | Web:      www.OpenFOAM.org                      |
|    \\/     M anipulation  |                                                 |
\*---------------------------------------------------------------------------*/
FoamFile
{
    version     2.0;
    format      ascii;
    class       surfaceScalarField;
    location    "4";
    object      phi;
}
// * * * * * * * * * * * * * * * * * * * * * * * * * * * * * * * * * * * * * //

dimensions      [0 3 -1 0 0 0 0];

internalField   nonuniform List<scalar> 
760
(
1.20908e-07
-1.20926e-07
1.7835e-07
-5.74428e-08
3.58917e-08
1.42458e-07
-4.87443e-07
5.23334e-07
-1.58868e-06
1.10124e-06
-2.949e-06
1.36032e-06
-4.12251e-06
1.17351e-06
-5.09906e-06
9.76544e-07
-5.81905e-06
7.19991e-07
-6.34768e-06
5.28632e-07
-6.67945e-06
3.31765e-07
-6.83466e-06
1.55212e-07
-6.81063e-06
-2.40259e-08
-6.57843e-06
-2.32198e-07
-6.13054e-06
-4.47891e-07
-5.35974e-06
-7.70807e-07
-4.23149e-06
-1.12825e-06
-2.7081e-06
-1.52339e-06
-1.01311e-06
-1.69499e-06
-1.01311e-06
-3.16063e-08
-8.93195e-08
-3.54898e-07
2.65848e-07
-1.22413e-06
1.01169e-06
-2.61512e-06
1.91432e-06
-3.93841e-06
2.42453e-06
-4.80645e-06
2.22836e-06
-5.56858e-06
1.93565e-06
-6.14631e-06
1.55427e-06
-6.61735e-06
1.19103e-06
-6.93817e-06
8.49454e-07
-7.10604e-06
4.99641e-07
-7.12855e-06
1.77717e-07
-7.00237e-06
-1.50209e-07
-6.75759e-06
-4.76979e-07
-6.31798e-06
-8.87496e-07
-5.67444e-06
-1.41435e-06
-4.71573e-06
-2.08696e-06
-3.36513e-06
-2.87399e-06
-1.65745e-06
-3.40267e-06
-2.67056e-06
-3.66863e-07
2.77544e-07
-1.21803e-06
1.11702e-06
-2.492e-06
2.28566e-06
-3.63398e-06
3.05631e-06
-4.38755e-06
3.17809e-06
-4.9656e-06
2.8064e-06
-5.40423e-06
2.37428e-06
-5.6816e-06
1.83164e-06
-5.84528e-06
1.3547e-06
-5.88319e-06
8.87365e-07
-5.86814e-06
4.8459e-07
-5.80112e-06
1.10695e-07
-5.68339e-06
-2.67934e-07
-5.47795e-06
-6.82424e-07
-5.17711e-06
-1.18833e-06
-4.74806e-06
-1.84341e-06
-4.11623e-06
-2.71878e-06
-3.17268e-06
-3.81754e-06
-1.80411e-06
-4.77123e-06
-4.47468e-06
-7.13429e-07
9.90973e-07
-1.82286e-06
2.22645e-06
-2.91366e-06
3.37646e-06
-3.66975e-06
3.8124e-06
-4.1269e-06
3.63524e-06
-4.402e-06
3.0815e-06
-4.51835e-06
2.49063e-06
-4.5556e-06
1.86889e-06
-4.55698e-06
1.35609e-06
-4.54952e-06
8.79907e-07
-4.51498e-06
4.5005e-07
-4.44155e-06
3.72607e-08
-4.3217e-06
-3.87779e-07
-4.14736e-06
-8.56771e-07
-3.9156e-06
-1.42009e-06
-3.61498e-06
-2.14404e-06
-3.21767e-06
-3.11608e-06
-2.60134e-06
-4.43387e-06
-1.53966e-06
-5.83292e-06
-6.01434e-06
-8.76482e-07
1.86746e-06
-1.92051e-06
3.27047e-06
-2.69336e-06
4.14931e-06
-3.17913e-06
4.29816e-06
-3.41672e-06
3.87284e-06
-3.51049e-06
3.17527e-06
-3.54001e-06
2.52014e-06
-3.55858e-06
1.88746e-06
-3.5561e-06
1.3536e-06
-3.53537e-06
8.59179e-07
-3.48582e-06
4.00505e-07
-3.39992e-06
-4.8641e-08
-3.27445e-06
-5.13246e-07
-3.10932e-06
-1.02191e-06
-2.90829e-06
-1.62112e-06
-2.67414e-06
-2.37818e-06
-2.39406e-06
-3.39617e-06
-2.00388e-06
-4.82404e-06
-1.25353e-06
-6.58327e-06
-7.26786e-06
-8.13539e-07
2.68099e-06
-1.64513e-06
4.10206e-06
-2.19051e-06
4.6947e-06
-2.52419e-06
4.63184e-06
-2.65628e-06
4.00493e-06
-2.71368e-06
3.23268e-06
-2.74027e-06
2.54674e-06
-2.7634e-06
1.91059e-06
-2.7687e-06
1.3589e-06
-2.75145e-06
8.41929e-07
-2.7016e-06
3.50651e-07
-2.61398e-06
-1.36254e-07
-2.48873e-06
-6.38498e-07
-2.33192e-06
-1.17872e-06
-2.15262e-06
-1.80041e-06
-1.95993e-06
-2.57088e-06
-1.761e-06
-3.5951e-06
-1.51956e-06
-5.06548e-06
-9.72996e-07
-7.12983e-06
-8.24086e-06
-6.47654e-07
3.32865e-06
-1.24482e-06
4.69923e-06
-1.63722e-06
5.08709e-06
-1.86913e-06
4.86374e-06
-1.96723e-06
4.10303e-06
-2.02956e-06
3.29501e-06
-2.07604e-06
2.59321e-06
-2.11745e-06
1.952e-06
-2.14055e-06
1.38201e-06
-2.1385e-06
8.39882e-07
-2.09883e-06
3.10976e-07
-2.0148e-06
-2.20283e-07
-1.89058e-06
-7.62717e-07
-1.74055e-06
-1.32875e-06
-1.58015e-06
-1.96081e-06
-1.41925e-06
-2.73178e-06
-1.26483e-06
-3.74952e-06
-1.08051e-06
-5.24981e-06
-7.83668e-07
-7.42667e-06
-9.02453e-06
-4.1594e-07
3.74459e-06
-8.19338e-07
5.10263e-06
-1.10033e-06
5.36808e-06
-1.26678e-06
5.03019e-06
-1.35928e-06
4.19554e-06
-1.4372e-06
3.37293e-06
-1.50786e-06
2.66387e-06
-1.57605e-06
2.02019e-06
-1.63121e-06
1.43716e-06
-1.6614e-06
8.7007e-07
-1.64424e-06
2.93817e-07
-1.56749e-06
-2.97026e-07
-1.44094e-06
-8.89265e-07
-1.29023e-06
-1.47946e-06
-1.14374e-06
-2.1073e-06
-1.01267e-06
-2.86285e-06
-9.05774e-07
-3.85641e-06
-7.85503e-07
-5.37008e-06
-5.92224e-07
-7.61995e-06
-9.61675e-06
-2.01683e-07
3.94627e-06
-4.23495e-07
5.32444e-06
-6.01481e-07
5.54607e-06
-7.1801e-07
5.14672e-06
-8.12726e-07
4.29026e-06
-9.06686e-07
3.46689e-06
-1.00306e-06
2.76024e-06
-1.10691e-06
2.12405e-06
-1.21094e-06
1.54119e-06
-1.29414e-06
9.53266e-07
-1.31353e-06
3.1321e-07
-1.25194e-06
-3.58617e-07
-1.11935e-06
-1.02185e-06
-9.52108e-07
-1.64671e-06
-8.05189e-07
-2.25422e-06
-6.95955e-07
-2.97208e-06
-6.30667e-07
-3.9217e-06
-5.71831e-07
-5.42891e-06
-4.87101e-07
-7.70468e-06
-1.01039e-05
4.81574e-08
3.89812e-06
-6.3728e-08
5.43633e-06
-1.45131e-07
5.62747e-06
-2.19988e-07
5.22158e-06
-3.05665e-07
4.37593e-06
-4.08926e-07
3.57015e-06
-5.26739e-07
2.87806e-06
-6.6524e-07
2.26255e-06
-8.15083e-07
1.69103e-06
-9.45267e-07
1.08345e-06
-1.00689e-06
3.7483e-07
-9.77508e-07
-3.87995e-07
-8.58752e-07
-1.14061e-06
-6.77305e-07
-1.82815e-06
-5.19736e-07
-2.41179e-06
-4.27825e-07
-3.06399e-06
-4.10941e-07
-3.93858e-06
-4.1018e-07
-5.42967e-06
-3.82701e-07
-7.73216e-06
-1.04866e-05
2.34866e-07
3.66325e-06
3.16183e-07
5.35501e-06
3.27093e-07
5.61656e-06
2.85077e-07
5.2636e-06
2.07393e-07
4.45362e-06
1.08564e-07
3.66898e-06
-8.94807e-09
2.99557e-06
-1.4606e-07
2.39966e-06
-2.89514e-07
1.83449e-06
-4.12375e-07
1.20631e-06
-4.99907e-07
4.62362e-07
-5.29713e-07
-3.5819e-07
-4.84084e-07
-1.18623e-06
-3.56343e-07
-1.95589e-06
-2.18775e-07
-2.54936e-06
-1.67413e-07
-3.11535e-06
-1.95684e-07
-3.91031e-06
-2.63505e-07
-5.36185e-06
-3.26456e-07
-7.66921e-06
-1.0813e-05
4.27281e-07
3.23597e-06
6.56056e-07
5.12624e-06
7.66172e-07
5.50645e-06
7.84327e-07
5.24544e-06
7.20281e-07
4.51766e-06
6.51582e-07
3.73768e-06
5.77034e-07
3.07012e-06
4.93394e-07
2.4833e-06
4.09278e-07
1.9186e-06
3.32478e-07
1.28311e-06
2.55406e-07
5.39434e-07
1.81364e-07
-2.84147e-07
1.34112e-07
-1.13898e-06
1.31087e-07
-1.95287e-06
1.68118e-07
-2.58639e-06
1.27297e-07
-3.07453e-06
5.08478e-08
-3.83386e-06
-1.29993e-07
-5.18101e-06
-2.5095e-07
-7.54825e-06
-1.1064e-05
6.17951e-07
2.61802e-06
9.68736e-07
4.77545e-06
1.18298e-06
5.2922e-06
1.30051e-06
5.1279e-06
1.29055e-06
4.52763e-06
1.26424e-06
3.76399e-06
1.23891e-06
3.09545e-06
1.21888e-06
2.50333e-06
1.20198e-06
1.93551e-06
1.1721e-06
1.31299e-06
1.1085e-06
6.03034e-07
1.00304e-06
-1.78685e-07
8.74775e-07
-1.01072e-06
7.53031e-07
-1.83112e-06
6.47955e-07
-2.48131e-06
4.99061e-07
-2.92564e-06
2.81489e-07
-3.61629e-06
-1.94461e-09
-4.89757e-06
-1.6453e-07
-7.38566e-06
-1.12285e-05
7.46853e-07
1.87117e-06
1.23557e-06
4.28673e-06
1.53188e-06
4.99589e-06
1.73531e-06
4.92448e-06
1.82315e-06
4.43979e-06
1.86818e-06
3.71896e-06
1.91003e-06
3.0536e-06
1.95651e-06
2.45685e-06
2.00015e-06
1.89187e-06
2.01605e-06
1.29709e-06
1.97569e-06
6.43394e-07
1.85877e-06
-6.17603e-08
1.67752e-06
-8.29469e-07
1.45241e-06
-1.60601e-06
1.21011e-06
-2.23901e-06
9.1614e-07
-2.63167e-06
5.61858e-07
-3.26201e-06
2.17713e-07
-4.55343e-06
3.8436e-09
-7.17179e-06
-1.12246e-05
6.92912e-07
1.17825e-06
1.3433e-06
3.63634e-06
1.82456e-06
4.51463e-06
2.1878e-06
4.56124e-06
2.41789e-06
4.2097e-06
2.55713e-06
3.57971e-06
2.66506e-06
2.94567e-06
2.76072e-06
2.36119e-06
2.83837e-06
1.81422e-06
2.87541e-06
1.26005e-06
2.8424e-06
6.76402e-07
2.72039e-06
6.02474e-08
2.50198e-06
-6.11052e-07
2.19012e-06
-1.29415e-06
1.80991e-06
-1.8588e-06
1.36053e-06
-2.18229e-06
8.74669e-07
-2.77615e-06
4.4539e-07
-4.12415e-06
1.27953e-07
-6.85436e-06
-1.10967e-05
4.68568e-07
7.09686e-07
1.21385e-06
2.89106e-06
1.82061e-06
3.90787e-06
2.35691e-06
4.02493e-06
2.79562e-06
3.771e-06
3.10482e-06
3.27051e-06
3.33394e-06
2.71655e-06
3.51338e-06
2.18175e-06
3.64536e-06
1.68223e-06
3.71724e-06
1.18817e-06
3.70359e-06
6.90049e-07
3.58332e-06
1.80521e-07
3.33384e-06
-3.61575e-07
2.94245e-06
-9.02767e-07
2.42372e-06
-1.34006e-06
1.8299e-06
-1.58848e-06
1.22562e-06
-2.17187e-06
6.95877e-07
-3.59441e-06
2.79982e-07
-6.43846e-06
-1.08167e-05
8.76434e-08
6.22043e-07
9.38585e-07
2.04012e-06
1.75948e-06
3.08698e-06
2.52022e-06
3.26419e-06
3.18079e-06
3.11043e-06
3.70164e-06
2.74965e-06
4.09039e-06
2.32781e-06
4.37489e-06
1.89725e-06
4.56441e-06
1.49272e-06
4.65577e-06
1.09681e-06
4.63599e-06
7.09831e-07
4.49116e-06
3.25348e-07
4.1749e-06
-4.53113e-08
3.69534e-06
-4.23205e-07
3.05581e-06
-7.00534e-07
2.38088e-06
-9.1354e-07
1.70569e-06
-1.49668e-06
1.06908e-06
-2.9578e-06
4.79332e-07
-5.84872e-06
-1.03374e-05
-4.25873e-07
1.04792e-06
1.34356e-07
1.47989e-06
1.01131e-06
2.21002e-06
1.98957e-06
2.28593e-06
2.90408e-06
2.19591e-06
3.67586e-06
1.97788e-06
4.28285e-06
1.72082e-06
4.7337e-06
1.4464e-06
5.03764e-06
1.18877e-06
5.20123e-06
9.33222e-07
5.21916e-06
6.91893e-07
5.0939e-06
4.50608e-07
4.81601e-06
2.32579e-07
4.39751e-06
-4.70401e-09
3.84549e-06
-1.48512e-07
3.30122e-06
-3.69272e-07
2.67152e-06
-8.66982e-07
1.94396e-06
-2.23024e-06
9.53381e-07
-4.85813e-06
-9.384e-06
-9.11896e-07
1.95981e-06
-6.08442e-07
1.17644e-06
5.05341e-07
1.09624e-06
1.73369e-06
1.05758e-06
2.86846e-06
1.06114e-06
3.83561e-06
1.01073e-06
4.63449e-06
9.21935e-07
5.27344e-06
8.07453e-07
5.76314e-06
6.99066e-07
6.11092e-06
5.85448e-07
6.31933e-06
4.83484e-07
6.39541e-06
3.7452e-07
6.34448e-06
2.83512e-07
6.15598e-06
1.838e-07
5.91203e-06
9.54359e-08
5.61137e-06
-6.86109e-08
5.14501e-06
-4.00627e-07
4.29875e-06
-1.38398e-06
2.47339e-06
-3.03277e-06
-6.91061e-06
1.95981e-06
3.13625e-06
4.23249e-06
5.29007e-06
6.35121e-06
7.36194e-06
8.28388e-06
9.09133e-06
9.7904e-06
1.03758e-05
1.08593e-05
1.12338e-05
1.15174e-05
1.17012e-05
1.17966e-05
1.1728e-05
1.13274e-05
9.94338e-06
6.91061e-06
)
;

boundaryField
{
    movingWall
    {
        type            calculated;
        value           uniform 0;
    }
    fixedWalls
    {
        type            calculated;
        value           uniform 0;
    }
    frontAndBack
    {
        type            empty;
        value           nonuniform 0();
    }
}


// ************************************************************************* //
