/*--------------------------------*- C++ -*----------------------------------*\
| =========                 |                                                 |
| \\      /  F ield         | OpenFOAM: The Open Source CFD Toolbox           |
|  \\    /   O peration     | Version:  3.0.0                                 |
|   \\  /    A nd           | Web:      www.OpenFOAM.org                      |
|    \\/     M anipulation  |                                                 |
\*---------------------------------------------------------------------------*/
FoamFile
{
    version     2.0;
    format      ascii;
    class       volVectorField;
    location    "4";
    object      U;
}
// * * * * * * * * * * * * * * * * * * * * * * * * * * * * * * * * * * * * * //

dimensions      [0 1 -1 0 0 0 0];

internalField   nonuniform List<vector> 
400
(
(0.00132248 -0.00154723 0)
(0.00321527 -0.00155618 0)
(0.00443108 -0.00103665 0)
(-0.00343181 0.000358312 0)
(-0.0139467 0.00616868 0)
(-0.0471204 0.0149101 0)
(-0.0744914 0.0115241 0)
(-0.0948453 0.0105226 0)
(-0.11207 0.00831965 0)
(-0.122871 0.00646881 0)
(-0.131934 0.00473696 0)
(-0.136102 0.00276038 0)
(-0.137747 0.00136787 0)
(-0.135461 -0.00221585 0)
(-0.127606 -0.00404675 0)
(-0.114655 -0.00816322 0)
(-0.0944615 -0.0108628 0)
(-0.0675681 -0.0141049 0)
(-0.0370674 -0.0143664 0)
(-0.00718742 -0.0033255 0)
(0.000624442 -0.00348451 0)
(-0.00206221 -0.000671711 0)
(-0.0114923 0.00741897 0)
(-0.0356726 0.0227746 0)
(-0.0679027 0.0387479 0)
(-0.0893232 0.0364083 0)
(-0.106568 0.0322223 0)
(-0.118381 0.0264805 0)
(-0.129825 0.019098 0)
(-0.13632 0.0136788 0)
(-0.142045 0.00770344 0)
(-0.143181 0.00286663 0)
(-0.143077 -0.00267033 0)
(-0.138501 -0.00841395 0)
(-0.131782 -0.0158848 0)
(-0.119512 -0.025401 0)
(-0.102827 -0.0371993 0)
(-0.0794125 -0.049618 0)
(-0.050675 -0.0537413 0)
(-0.0159021 -0.0338007 0)
(-0.0016127 0.000256275 0)
(-0.0124235 0.0120897 0)
(-0.0351125 0.0341236 0)
(-0.0632286 0.0516649 0)
(-0.0830831 0.056293 0)
(-0.0953428 0.050559 0)
(-0.105098 0.043001 0)
(-0.112228 0.0331318 0)
(-0.116901 0.0255049 0)
(-0.11732 0.0175068 0)
(-0.11825 0.0101284 0)
(-0.116699 0.00295998 0)
(-0.115626 -0.00443862 0)
(-0.112253 -0.0124705 0)
(-0.107416 -0.0222768 0)
(-0.0996196 -0.0350104 0)
(-0.0883848 -0.0516929 0)
(-0.0720017 -0.0717707 0)
(-0.0489449 -0.0877388 0)
(-0.0193931 -0.0766384 0)
(-0.0043004 0.0118992 0)
(-0.0229974 0.0343587 0)
(-0.0491777 0.058377 0)
(-0.0687462 0.0691047 0)
(-0.0807158 0.0676445 0)
(-0.0867193 0.0587123 0)
(-0.0907259 0.0488554 0)
(-0.0911756 0.0375927 0)
(-0.0909825 0.0274508 0)
(-0.0912734 0.0179229 0)
(-0.0908754 0.00958928 0)
(-0.0898014 0.00163847 0)
(-0.0879698 -0.00642207 0)
(-0.0850531 -0.0153909 0)
(-0.0811267 -0.0262569 0)
(-0.0759799 -0.0404289 0)
(-0.0688286 -0.0596983 0)
(-0.0577092 -0.0849646 0)
(-0.0406753 -0.108992 0)
(-0.0167186 -0.109371 0)
(-0.00586028 0.0288569 0)
(-0.0279544 0.0552634 0)
(-0.0495686 0.0756139 0)
(-0.0610233 0.0808133 0)
(-0.0686123 0.0751717 0)
(-0.0697288 0.0629451 0)
(-0.0710948 0.0506635 0)
(-0.0708324 0.0380528 0)
(-0.0711808 0.0273902 0)
(-0.0710441 0.017575 0)
(-0.0703782 0.00861038 0)
(-0.0690677 -7.05757e-05 0)
(-0.066939 -0.00898694 0)
(-0.0640318 -0.0187927 0)
(-0.0604145 -0.030455 0)
(-0.0562695 -0.045357 0)
(-0.0513764 -0.0656446 0)
(-0.0440048 -0.0945025 0)
(-0.0318502 -0.127174 0)
(-0.0145466 -0.135861 0)
(-0.00488698 0.0448057 0)
(-0.0265209 0.0739667 0)
(-0.0413403 0.0883945 0)
(-0.049206 0.0893346 0)
(-0.0538418 0.0789741 0)
(-0.0534024 0.0644021 0)
(-0.0547554 0.0509094 0)
(-0.0548558 0.0381351 0)
(-0.0554295 0.0272283 0)
(-0.0553255 0.0170869 0)
(-0.0546983 0.00756325 0)
(-0.0533337 -0.00181257 0)
(-0.0511609 -0.0114802 0)
(-0.048303 -0.021982 0)
(-0.0449392 -0.0341771 0)
(-0.0413338 -0.0493614 0)
(-0.0375715 -0.0695572 0)
(-0.0324614 -0.0982405 0)
(-0.0261933 -0.138699 0)
(-0.008738 -0.156855 0)
(-0.00360053 0.0598445 0)
(-0.021357 0.087408 0)
(-0.0308731 0.0971769 0)
(-0.0369969 0.0947523 0)
(-0.0396482 0.081086 0)
(-0.0394633 0.0653425 0)
(-0.0411928 0.0514028 0)
(-0.0418197 0.0386089 0)
(-0.0427048 0.0273816 0)
(-0.0429392 0.0168094 0)
(-0.0425592 0.00663227 0)
(-0.0413007 -0.00350274 0)
(-0.0391473 -0.0138926 0)
(-0.0363365 -0.0249804 0)
(-0.0331955 -0.0375821 0)
(-0.0300179 -0.053067 0)
(-0.0271157 -0.0735964 0)
(-0.0228097 -0.103463 0)
(-0.0208494 -0.145692 0)
(-0.00681939 -0.173454 0)
(-0.00109281 0.0703938 0)
(-0.0146801 0.0982938 0)
(-0.0203429 0.104731 0)
(-0.025373 0.0990164 0)
(-0.0269099 0.0829765 0)
(-0.0274914 0.0666351 0)
(-0.0295366 0.0524827 0)
(-0.0307619 0.039619 0)
(-0.0322034 0.0280795 0)
(-0.0331202 0.0170294 0)
(-0.0332779 0.00605864 0)
(-0.0322861 -0.00502775 0)
(-0.0301484 -0.0162616 0)
(-0.0272628 -0.027852 0)
(-0.0242226 -0.040561 0)
(-0.0213965 -0.0558993 0)
(-0.0194518 -0.0759837 0)
(-0.015826 -0.106021 0)
(-0.0172018 -0.150538 0)
(-0.00329961 -0.18675 0)
(0.000569868 0.0777808 0)
(-0.008002 0.104115 0)
(-0.0106826 0.108671 0)
(-0.0145221 0.101462 0)
(-0.0154931 0.084634 0)
(-0.0167931 0.0682455 0)
(-0.0191066 0.0540772 0)
(-0.0210144 0.0412328 0)
(-0.0233389 0.0295134 0)
(-0.0253472 0.0179817 0)
(-0.0263597 0.0059423 0)
(-0.0258493 -0.00656355 0)
(-0.0237534 -0.0189954 0)
(-0.0205837 -0.0310913 0)
(-0.0173502 -0.0435632 0)
(-0.0145819 -0.0584358 0)
(-0.0137437 -0.0779188 0)
(-0.010206 -0.108277 0)
(-0.0146274 -0.153293 0)
(-0.00202437 -0.197503 0)
(0.00360741 0.0790816 0)
(-0.00131214 0.108573 0)
(-0.00194485 0.112707 0)
(-0.00445797 0.104027 0)
(-0.00511545 0.0867092 0)
(-0.00680451 0.0702602 0)
(-0.00927378 0.0561659 0)
(-0.0117954 0.0435059 0)
(-0.0150449 0.0317904 0)
(-0.0180779 0.0197349 0)
(-0.0198557 0.00629399 0)
(-0.0200388 -0.00815254 0)
(-0.0184 -0.0223261 0)
(-0.0151775 -0.035185 0)
(-0.011707 -0.0469253 0)
(-0.008605 -0.0606633 0)
(-0.00931663 -0.0788906 0)
(-0.00555179 -0.108925 0)
(-0.0130691 -0.154389 0)
(0.000424322 -0.206281 0)
(0.00546653 0.0768201 0)
(0.00458735 0.108202 0)
(0.00670428 0.112485 0)
(0.00545991 0.104475 0)
(0.00514345 0.0879693 0)
(0.00341847 0.0721556 0)
(0.0010922 0.0584887 0)
(-0.0014307 0.0462946 0)
(-0.00461315 0.0348475 0)
(-0.00750161 0.0224232 0)
(-0.0094076 0.00783994 0)
(-0.0103937 -0.0083747 0)
(-0.0102089 -0.0246185 0)
(-0.00823712 -0.0390672 0)
(-0.00569794 -0.0503839 0)
(-0.0024299 -0.0623981 0)
(-0.0052528 -0.0791312 0)
(-0.000939008 -0.108305 0)
(-0.0119893 -0.154401 0)
(0.00178827 -0.213286 0)
(0.00721496 0.0709753 0)
(0.0102624 0.107008 0)
(0.0144611 0.11288 0)
(0.014959 0.10614 0)
(0.0151714 0.0898882 0)
(0.0139388 0.0741657 0)
(0.0123331 0.0607431 0)
(0.0106623 0.0489251 0)
(0.00869979 0.037622 0)
(0.00705333 0.0249195 0)
(0.00575249 0.00993991 0)
(0.00444728 -0.00674061 0)
(0.00308176 -0.0239888 0)
(0.00288247 -0.0400901 0)
(0.00278956 -0.0522335 0)
(0.00473514 -0.0625951 0)
(-0.000860976 -0.0780884 0)
(0.00402143 -0.105712 0)
(-0.0114299 -0.152703 0)
(0.00450504 -0.218638 0)
(0.0091491 0.0605622 0)
(0.0153921 0.100011 0)
(0.0219218 0.108075 0)
(0.0244021 0.103902 0)
(0.0260169 0.0904494 0)
(0.0256529 0.0748888 0)
(0.0249442 0.0616465 0)
(0.0243824 0.0500326 0)
(0.0238123 0.0388695 0)
(0.0234087 0.0263482 0)
(0.0227545 0.0116948 0)
(0.0214595 -0.00456986 0)
(0.0191761 -0.0216613 0)
(0.0172116 -0.038254 0)
(0.0140974 -0.0511831 0)
(0.0131172 -0.0605374 0)
(0.00454285 -0.0749477 0)
(0.00944444 -0.101249 0)
(-0.0108543 -0.149971 0)
(0.00731317 -0.222527 0)
(0.0104956 0.0458578 0)
(0.0195769 0.0931233 0)
(0.0287127 0.104822 0)
(0.032072 0.101974 0)
(0.035453 0.091036 0)
(0.0368448 0.0756776 0)
(0.0375887 0.0621244 0)
(0.0383991 0.0501733 0)
(0.0391987 0.0388437 0)
(0.0399479 0.0266552 0)
(0.0399625 0.0128988 0)
(0.0388654 -0.0021963 0)
(0.0360001 -0.0181708 0)
(0.0328667 -0.0343276 0)
(0.0269934 -0.0473419 0)
(0.0228486 -0.0558005 0)
(0.0110665 -0.0689898 0)
(0.015012 -0.0948689 0)
(-0.00981101 -0.145291 0)
(0.0117474 -0.225257 0)
(0.00738491 0.02866 0)
(0.0211989 0.0785071 0)
(0.0327205 0.0953755 0)
(0.0401058 0.0953743 0)
(0.0456045 0.0872784 0)
(0.049478 0.073444 0)
(0.0519195 0.0602397 0)
(0.0539575 0.0483905 0)
(0.0556622 0.0372796 0)
(0.0570362 0.0258278 0)
(0.0572942 0.0134616 0)
(0.0563077 9.80307e-05 0)
(0.0529987 -0.0140568 0)
(0.0490991 -0.0287026 0)
(0.0406198 -0.040882 0)
(0.0333861 -0.0481882 0)
(0.018116 -0.0606262 0)
(0.0209723 -0.0873697 0)
(-0.00817702 -0.14148 0)
(0.016461 -0.227272 0)
(0.00111882 0.0190891 0)
(0.0188127 0.0681039 0)
(0.0314045 0.0871708 0)
(0.041893 0.0887401 0)
(0.0511588 0.082657 0)
(0.058487 0.0711951 0)
(0.0639262 0.0586416 0)
(0.0681549 0.0468406 0)
(0.0712791 0.0359387 0)
(0.0736237 0.0251451 0)
(0.0743805 0.0140897 0)
(0.0737996 0.00247426 0)
(0.0701214 -0.00953746 0)
(0.0654998 -0.0217544 0)
(0.0543983 -0.031947 0)
(0.0442746 -0.0377643 0)
(0.0257843 -0.0498663 0)
(0.0278606 -0.0781143 0)
(-0.0064448 -0.135607 0)
(0.0226656 -0.228243 0)
(-0.0069226 0.0064012 0)
(0.0112117 0.0443727 0)
(0.0284354 0.0681495 0)
(0.0433847 0.0733092 0)
(0.0564736 0.0701862 0)
(0.0681121 0.0620153 0)
(0.0772496 0.052291 0)
(0.0842956 0.042375 0)
(0.0890525 0.0329562 0)
(0.0923886 0.0237113 0)
(0.0931652 0.0145601 0)
(0.0925098 0.00528345 0)
(0.0876636 -0.0040972 0)
(0.0816839 -0.0131226 0)
(0.0679745 -0.0203392 0)
(0.0558298 -0.0248457 0)
(0.0359472 -0.0370921 0)
(0.0373939 -0.0671335 0)
(-0.00335631 -0.128314 0)
(0.0305471 -0.223085 0)
(-0.010039 0.023308 0)
(-0.00626593 0.0433334 0)
(0.0125763 0.0595645 0)
(0.0303202 0.061463 0)
(0.0483286 0.0583399 0)
(0.0651307 0.0517277 0)
(0.0789643 0.0441402 0)
(0.0900425 0.0364654 0)
(0.097469 0.0293336 0)
(0.102773 0.02232 0)
(0.104436 0.0155438 0)
(0.104511 0.00895946 0)
(0.0998725 0.00284022 0)
(0.0943985 -0.00252065 0)
(0.08211 -0.00678986 0)
(0.0726021 -0.0113115 0)
(0.0553164 -0.0233546 0)
(0.0557627 -0.0538988 0)
(0.0082734 -0.113197 0)
(0.0455219 -0.199296 0)
(-0.0133154 0.0101123 0)
(-0.0209366 0.00519626 0)
(-0.000576067 0.0199473 0)
(0.022066 0.0244952 0)
(0.0457468 0.0264295 0)
(0.0666742 0.0255614 0)
(0.084253 0.0232892 0)
(0.0991411 0.0201035 0)
(0.110281 0.0169115 0)
(0.119211 0.013641 0)
(0.12455 0.0106842 0)
(0.128033 0.00756535 0)
(0.127892 0.00513183 0)
(0.126106 0.00206676 0)
(0.120275 -0.000201831 0)
(0.115393 -0.00479313 0)
(0.102931 -0.0134169 0)
(0.100475 -0.0384071 0)
(0.0511075 -0.0829959 0)
(0.0796839 -0.149239 0)
(0.044547 0.0793487 0)
(0.0455053 0.0535747 0)
(0.0718334 0.0326966 0)
(0.0956238 0.0233276 0)
(0.116423 0.0193435 0)
(0.136917 0.0170604 0)
(0.155777 0.0153853 0)
(0.173451 0.0137547 0)
(0.188614 0.012474 0)
(0.201825 0.0111367 0)
(0.212611 0.0100439 0)
(0.221276 0.00884119 0)
(0.227994 0.00767448 0)
(0.232283 0.00668005 0)
(0.235124 0.00511527 0)
(0.234455 0.00312067 0)
(0.229332 0.0011549 0)
(0.217297 -0.00680851 0)
(0.168666 -0.0167716 0)
(0.155804 -0.0945381 0)
)
;

boundaryField
{
    movingWall
    {
        type            fixedValue;
        value           uniform (1 0 0);
    }
    fixedWalls
    {
        type            fixedValue;
        value           uniform (0 0 0);
    }
    frontAndBack
    {
        type            empty;
    }
}


// ************************************************************************* //
