/*--------------------------------*- C++ -*----------------------------------*\
| =========                 |                                                 |
| \\      /  F ield         | OpenFOAM: The Open Source CFD Toolbox           |
|  \\    /   O peration     | Version:  3.0.0                                 |
|   \\  /    A nd           | Web:      www.OpenFOAM.org                      |
|    \\/     M anipulation  |                                                 |
\*---------------------------------------------------------------------------*/
FoamFile
{
    version     2.0;
    format      ascii;
    class       volScalarField;
    location    "341";
    object      nut;
}
// * * * * * * * * * * * * * * * * * * * * * * * * * * * * * * * * * * * * * //

dimensions      [0 2 -1 0 0 0 0];

internalField   nonuniform List<scalar> 
10720
(
0.0970263
0.10171
0.107049
0.112912
0.119601
0.127129
0.13563
0.144908
0.154915
0.165207
0.175294
0.18423
0.191453
0.196791
0.200243
0.202015
0.202322
0.201453
0.199524
0.196727
0.193035
0.188531
0.18325
0.177436
0.171519
0.165777
0.160183
0.154583
0.148874
0.143049
0.137102
0.131001
0.124705
0.118164
0.111185
0.103645
0.0943954
0.0841011
0.0606989
0.0925715
0.0878554
0.0827853
0.076728
0.0697485
0.0613062
0.0506347
0.0381612
0.0346916
0.0324881
0.0392118
0.045768
0.0510426
0.0555802
0.0598456
0.0640531
0.0682552
0.0724233
0.0765043
0.0804656
0.0842976
0.0880067
0.0916071
0.09509
0.0982721
0.100936
0.103055
0.104674
0.105848
0.106607
0.107
0.107111
0.107005
0.106648
0.105949
0.104884
0.103009
0.100825
0.0916848
0.100381
0.0999994
0.0993445
0.098446
0.0974897
0.0964176
0.095318
0.0943255
0.0944036
0.095509
0.0973117
0.100227
0.104227
0.109148
0.115001
0.121499
0.128521
0.135803
0.143192
0.15033
0.157084
0.163042
0.16787
0.171144
0.17243
0.171813
0.169689
0.166395
0.16228
0.157629
0.15266
0.147527
0.142342
0.137203
0.132216
0.127482
0.123219
0.119409
0.114063
0.100771
0.100851
0.101062
0.100805
0.100295
0.0994762
0.0981876
0.0962534
0.0933317
0.0899505
0.0858494
0.0815761
0.0773835
0.0733132
0.0694731
0.0659153
0.062715
0.059898
0.0574857
0.0554684
0.0538401
0.0525814
0.051669
0.0510603
0.0507287
0.0506421
0.0507399
0.050957
0.0512374
0.0515858
0.0526448
0.0550211
0.0582489
0.0616392
0.06475
0.0675448
0.069916
0.0740268
0.0777026
0.121954
0.121783
0.121403
0.120815
0.120133
0.119252
0.11817
0.116949
0.115523
0.114152
0.112988
0.112105
0.111472
0.111066
0.110751
0.110581
0.11064
0.110985
0.111328
0.110922
0.111053
0.111926
0.113358
0.1183
0.125436
0.13287
0.139683
0.145453
0.150004
0.15328
0.15535
0.156373
0.156557
0.156105
0.155219
0.153943
0.152671
0.14999
0.15008
0.122124
0.122071
0.122078
0.121817
0.121368
0.120693
0.119713
0.118391
0.11675
0.114741
0.112366
0.109688
0.106764
0.103604
0.100299
0.0968893
0.0934412
0.0900011
0.0866225
0.08332
0.0801222
0.0770269
0.0740364
0.0710621
0.0680547
0.0650772
0.0621702
0.0593757
0.0567247
0.0542518
0.051957
0.0503209
0.0501817
0.0511699
0.0528426
0.0549971
0.0575614
0.06047
0.0654926
0.129092
0.128985
0.128776
0.128463
0.128085
0.127599
0.127
0.126309
0.125492
0.124561
0.123516
0.12236
0.121159
0.120015
0.11883
0.117278
0.115473
0.113519
0.111439
0.109215
0.106963
0.104835
0.102878
0.101604
0.10142
0.10241
0.104522
0.110379
0.117858
0.125817
0.133707
0.141137
0.147866
0.153797
0.158991
0.163483
0.167693
0.170102
0.173428
0.129173
0.12917
0.129156
0.129022
0.128788
0.128429
0.127906
0.127196
0.126289
0.125163
0.123809
0.122244
0.120476
0.118495
0.116332
0.114
0.111526
0.108938
0.10627
0.10354
0.100775
0.0979819
0.0951599
0.0922255
0.0891142
0.0858722
0.0825292
0.0791214
0.0756815
0.0722416
0.0688302
0.0654817
0.0623028
0.0594475
0.0568882
0.0555627
0.0558775
0.0566314
0.059314
0.132699
0.132626
0.132485
0.132283
0.132041
0.131729
0.131347
0.130904
0.130383
0.129786
0.129109
0.128342
0.127479
0.126518
0.125449
0.124256
0.122894
0.121337
0.119543
0.117509
0.11521
0.112685
0.109931
0.107305
0.105253
0.10366
0.10232
0.100975
0.100865
0.102207
0.10769
0.115414
0.124518
0.134434
0.144742
0.155173
0.16583
0.176121
0.185652
0.132755
0.13275
0.132742
0.132651
0.132502
0.132267
0.131932
0.131486
0.130919
0.130224
0.129396
0.128437
0.127345
0.126109
0.124741
0.123234
0.121598
0.119838
0.117969
0.115996
0.113933
0.11178
0.10953
0.107115
0.10448
0.101646
0.0986285
0.0954482
0.0921264
0.0886861
0.0851513
0.0815491
0.0779012
0.0742457
0.0706001
0.0670286
0.0638361
0.0605542
0.0590803
0.134759
0.134705
0.134611
0.134473
0.134305
0.134091
0.13383
0.133526
0.13317
0.13276
0.132296
0.131768
0.131172
0.130501
0.129744
0.128892
0.127923
0.126819
0.125545
0.124077
0.122369
0.120399
0.118125
0.115608
0.11301
0.110446
0.107875
0.10569
0.103881
0.102178
0.10084
0.100908
0.104936
0.112265
0.122421
0.135176
0.15029
0.168378
0.186986
0.134794
0.134791
0.134785
0.134723
0.134622
0.13446
0.134227
0.13392
0.133537
0.133073
0.132523
0.13189
0.131172
0.13036
0.129458
0.12846
0.127366
0.126175
0.124892
0.123514
0.122045
0.120479
0.118806
0.116972
0.114927
0.112673
0.110213
0.10755
0.10469
0.101644
0.0984228
0.0950448
0.0915248
0.0878788
0.0841202
0.0802078
0.0761545
0.0716457
0.0647822
0.136072
0.136034
0.135964
0.135864
0.135743
0.135589
0.1354
0.135182
0.134926
0.134633
0.1343
0.133922
0.133494
0.133013
0.132467
0.131851
0.13115
0.130351
0.129431
0.128372
0.127141
0.125714
0.124055
0.122149
0.120026
0.117724
0.115234
0.112652
0.110066
0.10744
0.105229
0.103256
0.101509
0.10129
0.105542
0.114459
0.128465
0.150214
0.17801
0.136098
0.136095
0.136088
0.136043
0.135971
0.135852
0.13568
0.135456
0.13518
0.13485
0.134463
0.13402
0.133521
0.13296
0.132337
0.131648
0.130889
0.130059
0.12916
0.128186
0.127138
0.126007
0.124781
0.123422
0.121884
0.120164
0.118253
0.116143
0.11383
0.111309
0.108581
0.105648
0.102515
0.0991879
0.095667
0.0919166
0.0878311
0.0834102
0.0745875
0.136974
0.136945
0.136893
0.136818
0.136727
0.136611
0.136469
0.136305
0.136113
0.135893
0.135644
0.135361
0.13504
0.134678
0.134268
0.133804
0.133275
0.132673
0.131982
0.131188
0.130272
0.129217
0.127999
0.126599
0.12502
0.123254
0.121274
0.119063
0.116641
0.114013
0.111312
0.108545
0.106019
0.10376
0.102008
0.10278
0.110109
0.128239
0.161035
0.136992
0.136988
0.136982
0.136947
0.136893
0.136803
0.136671
0.1365
0.136292
0.136046
0.13576
0.135436
0.135074
0.134669
0.134221
0.133726
0.133182
0.132586
0.131937
0.131231
0.130466
0.129635
0.128729
0.127716
0.126563
0.125262
0.123801
0.122168
0.120352
0.11834
0.116124
0.113694
0.111046
0.108172
0.10506
0.101677
0.0978618
0.0938154
0.0849463
0.137627
0.137605
0.137565
0.137507
0.137437
0.137346
0.137237
0.137111
0.136963
0.136794
0.136603
0.136386
0.136141
0.135865
0.135552
0.135199
0.134796
0.134337
0.13381
0.133204
0.132502
0.131692
0.130759
0.129693
0.128497
0.127157
0.125642
0.12392
0.121968
0.119761
0.117297
0.114583
0.111733
0.108747
0.106031
0.103555
0.102519
0.110752
0.140812
0.13764
0.137636
0.137628
0.1376
0.137559
0.137489
0.137384
0.137249
0.137087
0.136897
0.136678
0.136432
0.136159
0.135857
0.135524
0.135157
0.134755
0.134314
0.133833
0.133309
0.132739
0.132116
0.131433
0.130666
0.129791
0.128798
0.127678
0.126417
0.125002
0.123419
0.121654
0.119692
0.117521
0.115124
0.112479
0.109553
0.106157
0.102567
0.0943897
0.138119
0.138102
0.13807
0.138024
0.137969
0.137896
0.137809
0.137709
0.137591
0.137457
0.137306
0.137134
0.136941
0.136723
0.136477
0.136198
0.135881
0.13552
0.135107
0.134634
0.134089
0.133461
0.132737
0.13191
0.130982
0.129944
0.128771
0.127437
0.125913
0.124165
0.122158
0.11986
0.117262
0.114344
0.111222
0.107954
0.104871
0.102709
0.123144
0.138129
0.138123
0.138116
0.138091
0.138059
0.138003
0.137918
0.137809
0.13768
0.137529
0.137356
0.137164
0.136953
0.13672
0.136466
0.136187
0.135881
0.135547
0.135183
0.134784
0.13435
0.133874
0.133349
0.132759
0.132084
0.131316
0.130447
0.129465
0.128359
0.127113
0.125714
0.124146
0.122391
0.120431
0.118237
0.115775
0.112852
0.109754
0.102534
0.138502
0.138489
0.138463
0.138426
0.13838
0.138321
0.13825
0.138168
0.138072
0.137964
0.137841
0.137703
0.137548
0.137374
0.137177
0.136955
0.136703
0.136416
0.136088
0.135711
0.135277
0.134778
0.134205
0.133551
0.132817
0.131997
0.131069
0.130017
0.128816
0.127438
0.125845
0.123996
0.121843
0.11933
0.116428
0.113037
0.109561
0.103853
0.112539
0.138509
0.138503
0.138495
0.138473
0.138447
0.138402
0.138332
0.138242
0.138136
0.138013
0.137874
0.13772
0.137553
0.13737
0.137171
0.136954
0.136717
0.136458
0.136176
0.135868
0.13553
0.13516
0.13475
0.134288
0.133759
0.133157
0.132474
0.131701
0.130827
0.129841
0.128727
0.127473
0.12606
0.12447
0.122671
0.120633
0.118171
0.115554
0.109363
0.138808
0.138797
0.138776
0.138745
0.138707
0.138657
0.138597
0.138528
0.138449
0.138359
0.138258
0.138145
0.138017
0.137875
0.137714
0.137533
0.137328
0.137095
0.136829
0.136525
0.136176
0.135775
0.135315
0.134792
0.134204
0.133546
0.132803
0.131959
0.130996
0.129893
0.128621
0.127142
0.125409
0.123351
0.120902
0.117851
0.114459
0.108718
0.108556
0.138813
0.138806
0.138797
0.138777
0.138756
0.138718
0.13866
0.138585
0.138496
0.138395
0.13828
0.138155
0.13802
0.137873
0.137714
0.137542
0.137355
0.137151
0.136929
0.136686
0.13642
0.136128
0.135803
0.135435
0.135015
0.134536
0.133993
0.133377
0.132679
0.13189
0.130998
0.129989
0.128848
0.127557
0.126088
0.124412
0.122363
0.120183
0.114986
0.139057
0.139048
0.13903
0.139003
0.13897
0.138927
0.138876
0.138818
0.13875
0.138674
0.13859
0.138495
0.138389
0.138271
0.138138
0.137989
0.13782
0.137629
0.13741
0.137161
0.136876
0.136548
0.136174
0.135749
0.135273
0.13474
0.134137
0.133452
0.13267
0.131775
0.130744
0.129548
0.128148
0.126483
0.124484
0.121935
0.118892
0.113976
0.109238
0.139061
0.139053
0.139043
0.139024
0.139007
0.138975
0.138926
0.138862
0.138787
0.138702
0.138606
0.138503
0.138392
0.138272
0.138143
0.138004
0.137854
0.137691
0.137513
0.137319
0.137107
0.136872
0.136611
0.136316
0.135978
0.135592
0.135154
0.134658
0.134096
0.133458
0.132736
0.131919
0.130992
0.12994
0.128738
0.127361
0.125664
0.123859
0.119562
0.139263
0.139256
0.139239
0.139215
0.139186
0.139148
0.139104
0.139053
0.138995
0.138931
0.138859
0.138778
0.138689
0.13859
0.138479
0.138354
0.138213
0.138053
0.137872
0.137665
0.137429
0.137159
0.136851
0.136502
0.136112
0.135675
0.135181
0.13462
0.133979
0.133245
0.1324
0.13142
0.130275
0.128917
0.127289
0.125216
0.122619
0.118629
0.112438
0.139266
0.139258
0.139246
0.139229
0.139214
0.139188
0.139145
0.13909
0.139026
0.138954
0.138873
0.138786
0.138693
0.138594
0.138488
0.138375
0.138252
0.13812
0.137976
0.137819
0.137647
0.137457
0.137245
0.137005
0.13673
0.136416
0.13606
0.135656
0.135198
0.134678
0.134089
0.133422
0.132663
0.131801
0.130813
0.129679
0.128273
0.126778
0.123257
0.139436
0.139429
0.139413
0.139392
0.139366
0.139332
0.139292
0.139248
0.139198
0.139142
0.13908
0.139011
0.138936
0.138851
0.138757
0.138651
0.138533
0.138398
0.138246
0.138073
0.137875
0.13765
0.137394
0.137104
0.136781
0.13642
0.136011
0.135547
0.135018
0.134411
0.133712
0.132902
0.131956
0.130836
0.129494
0.127809
0.125636
0.122524
0.116297
0.139437
0.139429
0.139417
0.1394
0.139388
0.139365
0.139329
0.139281
0.139226
0.139163
0.139094
0.13902
0.138942
0.138859
0.138771
0.138677
0.138576
0.138467
0.138349
0.138221
0.13808
0.137924
0.137751
0.137553
0.137327
0.13707
0.136777
0.136445
0.136069
0.135642
0.135158
0.134608
0.133983
0.133272
0.132455
0.131516
0.130349
0.129106
0.126234
0.139582
0.139576
0.139561
0.139541
0.139516
0.139486
0.13945
0.139411
0.139367
0.139318
0.139265
0.139206
0.139141
0.139069
0.138988
0.138898
0.138797
0.138683
0.138554
0.138408
0.138241
0.138051
0.137836
0.137593
0.137323
0.137022
0.136681
0.136294
0.135853
0.135348
0.134766
0.134091
0.133303
0.132371
0.131254
0.129868
0.128052
0.12565
0.12006
0.139583
0.139576
0.139563
0.139546
0.139535
0.139516
0.139484
0.139442
0.139394
0.13934
0.13928
0.139217
0.13915
0.139079
0.139005
0.138926
0.138842
0.138752
0.138655
0.138548
0.138432
0.138304
0.13816
0.137996
0.137809
0.137596
0.137354
0.137079
0.136767
0.136414
0.136013
0.135557
0.135039
0.134448
0.133769
0.132988
0.132016
0.130977
0.128636
0.139707
0.139701
0.139686
0.139667
0.139644
0.139616
0.139584
0.139549
0.139511
0.139468
0.139422
0.139371
0.139315
0.139252
0.139183
0.139106
0.13902
0.138922
0.138812
0.138687
0.138545
0.138384
0.138201
0.137997
0.137769
0.137515
0.137229
0.136904
0.136534
0.13611
0.135622
0.135056
0.134396
0.133615
0.132679
0.131526
0.129997
0.128116
0.12339
0.139709
0.139701
0.139688
0.139671
0.139661
0.139644
0.139617
0.13958
0.139538
0.13949
0.139438
0.139383
0.139325
0.139265
0.139202
0.139135
0.139065
0.138989
0.138908
0.138819
0.138722
0.138615
0.138495
0.138359
0.138203
0.138025
0.137823
0.137594
0.137334
0.13704
0.136705
0.136325
0.135893
0.1354
0.134832
0.134178
0.133366
0.132493
0.130581
0.139815
0.139808
0.139793
0.139775
0.139753
0.139728
0.139699
0.139668
0.139634
0.139597
0.139556
0.139512
0.139463
0.13941
0.13935
0.139284
0.139209
0.139126
0.139031
0.138923
0.138802
0.138664
0.138508
0.138334
0.138141
0.137925
0.137683
0.137408
0.137095
0.136736
0.136324
0.135847
0.135291
0.134634
0.133845
0.132878
0.131585
0.130069
0.126192
0.139817
0.139809
0.139796
0.139779
0.13977
0.139756
0.139732
0.139699
0.139662
0.13962
0.139574
0.139525
0.139475
0.139423
0.139369
0.139312
0.139252
0.139188
0.13912
0.139045
0.138964
0.138874
0.138774
0.138659
0.138528
0.138379
0.13821
0.138018
0.1378
0.137553
0.137272
0.136953
0.13659
0.136176
0.135699
0.13515
0.134468
0.133731
0.132165
0.139908
0.1399
0.139885
0.139868
0.139848
0.139824
0.139799
0.139771
0.139741
0.139709
0.139674
0.139635
0.139593
0.139547
0.139495
0.139438
0.139373
0.139301
0.139219
0.139126
0.139021
0.138902
0.138769
0.138619
0.138454
0.13827
0.138063
0.137829
0.137562
0.137258
0.136908
0.136503
0.136031
0.135475
0.134807
0.133992
0.132898
0.131642
0.128494
0.139911
0.139904
0.139891
0.139873
0.139865
0.139853
0.139831
0.139803
0.139769
0.139732
0.139691
0.139648
0.139604
0.139559
0.139512
0.139463
0.139412
0.139358
0.1393
0.139237
0.139168
0.139093
0.139008
0.138911
0.1388
0.138674
0.138531
0.13837
0.138186
0.137978
0.137741
0.137472
0.137166
0.136817
0.136414
0.13595
0.135375
0.13475
0.133464
0.13999
0.139981
0.139966
0.139948
0.13993
0.139908
0.139886
0.139861
0.139835
0.139807
0.139777
0.139744
0.139708
0.139668
0.139623
0.139573
0.139517
0.139454
0.139383
0.139302
0.139211
0.139108
0.138993
0.138864
0.138722
0.138564
0.138386
0.138185
0.137957
0.137696
0.137397
0.137052
0.13665
0.136176
0.135608
0.134918
0.133991
0.132927
0.130403
0.139993
0.139987
0.139974
0.139956
0.139949
0.139938
0.139919
0.139893
0.139863
0.139829
0.139793
0.139755
0.139716
0.139676
0.139635
0.139593
0.139549
0.139503
0.139453
0.1394
0.139342
0.139278
0.139206
0.139124
0.13903
0.138923
0.138802
0.138665
0.138509
0.138333
0.138133
0.137905
0.137646
0.137349
0.137008
0.136614
0.136128
0.135596
0.134535
0.140061
0.140051
0.140036
0.140019
0.140002
0.139983
0.139963
0.139942
0.139919
0.139895
0.139869
0.139841
0.13981
0.139775
0.139736
0.139693
0.139644
0.139589
0.139527
0.139457
0.139377
0.139288
0.139187
0.139076
0.138953
0.138816
0.138663
0.13849
0.138293
0.138069
0.137812
0.137516
0.137171
0.136766
0.13628
0.135692
0.134908
0.133991
0.131994
0.140065
0.14006
0.140047
0.140029
0.140022
0.140013
0.139996
0.139973
0.139946
0.139915
0.139882
0.139848
0.139813
0.139778
0.139743
0.139706
0.139668
0.139628
0.139586
0.139541
0.139491
0.139436
0.139375
0.139305
0.139225
0.139134
0.139031
0.138915
0.138782
0.138632
0.138462
0.138268
0.138048
0.137796
0.137506
0.13717
0.136758
0.136303
0.135425
0.140123
0.140112
0.140097
0.140082
0.140066
0.140049
0.140031
0.140014
0.139995
0.139975
0.139953
0.139929
0.139902
0.139871
0.139837
0.139799
0.139757
0.139708
0.139654
0.139592
0.139523
0.139444
0.139357
0.13926
0.139153
0.139035
0.138902
0.138752
0.138582
0.138388
0.138166
0.137911
0.137614
0.137265
0.136849
0.136345
0.135681
0.134884
0.133303
0.140129
0.140125
0.140112
0.140093
0.140087
0.14008
0.140065
0.140043
0.140018
0.13999
0.13996
0.13993
0.139899
0.139868
0.139837
0.139805
0.139772
0.139738
0.139702
0.139663
0.13962
0.139574
0.139521
0.139462
0.139393
0.139315
0.139227
0.139128
0.139015
0.138887
0.138742
0.138576
0.138388
0.138173
0.137925
0.137639
0.137287
0.136897
0.136169
0.140178
0.140166
0.140152
0.140137
0.140123
0.140108
0.140094
0.14008
0.140064
0.140047
0.140029
0.140008
0.139984
0.139958
0.139928
0.139894
0.139857
0.139814
0.139766
0.139712
0.139651
0.139582
0.139506
0.139421
0.139328
0.139225
0.13911
0.138979
0.138832
0.138663
0.138471
0.13825
0.137993
0.137693
0.137334
0.136899
0.136337
0.135642
0.134378
0.140185
0.140183
0.14017
0.140151
0.140146
0.140139
0.140126
0.140106
0.140083
0.140057
0.140029
0.140002
0.139975
0.139947
0.13992
0.139892
0.139864
0.139834
0.139803
0.139769
0.139733
0.139693
0.139648
0.139597
0.139538
0.139472
0.139396
0.139311
0.139214
0.139105
0.13898
0.138839
0.138678
0.138494
0.138281
0.138036
0.137736
0.137401
0.136794
0.140227
0.140214
0.1402
0.140187
0.140174
0.140162
0.140151
0.14014
0.140128
0.140114
0.140098
0.140079
0.140059
0.140035
0.140009
0.139979
0.139946
0.139909
0.139866
0.139819
0.139765
0.139704
0.139637
0.139563
0.139482
0.139392
0.139291
0.139177
0.139049
0.138903
0.138735
0.138543
0.138321
0.13806
0.13775
0.137373
0.136902
0.136294
0.135268
0.140235
0.140234
0.140222
0.140202
0.140198
0.140192
0.14018
0.140162
0.14014
0.140116
0.140091
0.140066
0.140042
0.140018
0.139994
0.13997
0.139945
0.139919
0.139892
0.139864
0.139832
0.139798
0.13976
0.139715
0.139665
0.139608
0.139543
0.139469
0.139386
0.139292
0.139186
0.139064
0.138926
0.138768
0.138586
0.138375
0.138118
0.13783
0.137323
0.14027
0.140257
0.140243
0.140231
0.140221
0.140212
0.140204
0.140196
0.140186
0.140174
0.14016
0.140144
0.140126
0.140105
0.140082
0.140056
0.140027
0.139994
0.139957
0.139914
0.139867
0.139813
0.139754
0.139689
0.139617
0.139539
0.13945
0.139351
0.139239
0.139111
0.138965
0.138798
0.138605
0.138378
0.13811
0.13778
0.137398
0.136866
0.136019
0.140279
0.140281
0.140268
0.140249
0.140244
0.14024
0.140229
0.140211
0.140191
0.140169
0.140146
0.140124
0.140102
0.140081
0.14006
0.140039
0.140017
0.139995
0.139972
0.139947
0.13992
0.139891
0.139858
0.13982
0.139776
0.139727
0.139671
0.139608
0.139536
0.139456
0.139364
0.139259
0.139141
0.139005
0.138848
0.138667
0.138446
0.138198
0.137772
0.140308
0.140295
0.140282
0.140272
0.140265
0.140259
0.140254
0.140247
0.140239
0.140228
0.140217
0.140203
0.140187
0.140169
0.140149
0.140126
0.140101
0.140071
0.140038
0.140001
0.139959
0.139912
0.139859
0.139801
0.139739
0.139669
0.139592
0.139505
0.139406
0.139294
0.139167
0.139021
0.138852
0.138655
0.138426
0.138138
0.13783
0.137369
0.136663
0.140318
0.140322
0.14031
0.14029
0.140286
0.140283
0.140272
0.140255
0.140236
0.140216
0.140195
0.140175
0.140156
0.140138
0.140119
0.140101
0.140082
0.140063
0.140043
0.140022
0.139999
0.139973
0.139945
0.139912
0.139874
0.139832
0.139784
0.13973
0.139669
0.139599
0.13952
0.139431
0.139329
0.139212
0.139077
0.13892
0.13873
0.138516
0.138156
0.140342
0.14033
0.140318
0.140309
0.140305
0.140303
0.140299
0.140294
0.140287
0.140279
0.140269
0.140257
0.140244
0.140228
0.140211
0.140191
0.140168
0.140143
0.140113
0.14008
0.140043
0.140001
0.139954
0.139903
0.139848
0.139787
0.139718
0.139641
0.139555
0.139456
0.139344
0.139217
0.13907
0.138901
0.13871
0.138468
0.138213
0.137816
0.137221
0.140353
0.140359
0.140348
0.140327
0.140325
0.140322
0.140311
0.140295
0.140277
0.140258
0.14024
0.140222
0.140206
0.140189
0.140173
0.140157
0.140141
0.140125
0.140107
0.140089
0.140069
0.140047
0.140023
0.139995
0.139963
0.139926
0.139886
0.13984
0.139788
0.139729
0.139662
0.139586
0.139498
0.139397
0.139281
0.139145
0.138981
0.138795
0.13849
0.140372
0.140361
0.14035
0.140345
0.140344
0.140343
0.140341
0.140337
0.140331
0.140325
0.140317
0.140307
0.140296
0.140283
0.140268
0.140251
0.140231
0.140208
0.140182
0.140153
0.14012
0.140082
0.140041
0.139996
0.139947
0.139893
0.139832
0.139764
0.139688
0.139601
0.139503
0.139392
0.139269
0.139127
0.138971
0.138772
0.138556
0.138219
0.137714
0.140384
0.140392
0.140382
0.140361
0.140359
0.140357
0.140346
0.14033
0.140313
0.140296
0.14028
0.140265
0.140251
0.140236
0.140222
0.140209
0.140195
0.14018
0.140165
0.14015
0.140133
0.140115
0.140094
0.140071
0.140044
0.140015
0.139981
0.139944
0.139901
0.139852
0.139795
0.13973
0.139656
0.139569
0.139468
0.139351
0.139208
0.139046
0.138783
0.1404
0.140389
0.140379
0.140378
0.14038
0.14038
0.140379
0.140376
0.140373
0.140368
0.140362
0.140355
0.140345
0.140334
0.140322
0.140306
0.140289
0.140269
0.140246
0.14022
0.14019
0.140157
0.140121
0.14008
0.140037
0.139989
0.139935
0.139875
0.139807
0.139731
0.139647
0.139555
0.139454
0.139338
0.139208
0.139045
0.138861
0.138581
0.138152
0.140411
0.140422
0.140413
0.140391
0.14039
0.140389
0.140378
0.140362
0.140346
0.140331
0.140317
0.140304
0.140292
0.140279
0.140267
0.140256
0.140244
0.140232
0.140219
0.140206
0.140193
0.140178
0.140162
0.140144
0.140124
0.140102
0.140077
0.140047
0.140013
0.139973
0.139926
0.139871
0.139808
0.139733
0.139646
0.139544
0.139419
0.139277
0.139048
0.140425
0.140415
0.140406
0.14041
0.140414
0.140414
0.140414
0.140413
0.140412
0.140409
0.140405
0.140399
0.140391
0.140382
0.140371
0.140358
0.140343
0.140326
0.140306
0.140283
0.140257
0.140227
0.140194
0.140159
0.14012
0.140077
0.140029
0.139976
0.139917
0.139853
0.139784
0.139709
0.139626
0.13953
0.139422
0.139286
0.13913
0.1389
0.13854
0.140436
0.140448
0.14044
0.140419
0.140419
0.140417
0.140406
0.140391
0.140376
0.140363
0.140352
0.14034
0.14033
0.140319
0.140309
0.140299
0.14029
0.14028
0.140271
0.140261
0.140251
0.14024
0.140231
0.14022
0.140208
0.140193
0.140175
0.140153
0.140127
0.140094
0.140056
0.14001
0.139956
0.139892
0.139817
0.139727
0.139618
0.139493
0.139292
0.140448
0.140438
0.140432
0.140441
0.140444
0.140444
0.140446
0.140447
0.140447
0.140446
0.140443
0.140439
0.140434
0.140427
0.140418
0.140408
0.140395
0.140381
0.140364
0.140345
0.140322
0.140296
0.140267
0.140235
0.1402
0.140162
0.14012
0.140074
0.140025
0.139973
0.139916
0.139854
0.139784
0.139704
0.139612
0.139499
0.139366
0.139176
0.138878
0.140457
0.140469
0.140463
0.140443
0.140444
0.140442
0.140431
0.140416
0.140404
0.140393
0.140383
0.140374
0.140365
0.140356
0.140348
0.140341
0.140334
0.140327
0.140321
0.140315
0.14031
0.140305
0.140303
0.1403
0.140295
0.140286
0.140274
0.140258
0.140238
0.140214
0.140183
0.140146
0.140101
0.140047
0.139982
0.139904
0.139809
0.139697
0.139526
0.140468
0.140459
0.140456
0.140467
0.140469
0.14047
0.140473
0.140475
0.140476
0.140476
0.140475
0.140473
0.14047
0.140466
0.14046
0.140453
0.140445
0.140435
0.140423
0.140408
0.140391
0.140372
0.140349
0.140323
0.140295
0.140262
0.140227
0.140188
0.140145
0.140099
0.140048
0.139993
0.139931
0.139862
0.139783
0.139686
0.139573
0.139415
0.139171
0.140475
0.140482
0.140479
0.140464
0.140465
0.140463
0.140452
0.140439
0.140429
0.14042
0.140412
0.140404
0.140398
0.140392
0.140386
0.140382
0.140378
0.140374
0.140371
0.14037
0.140369
0.140369
0.140371
0.140371
0.140369
0.140364
0.140356
0.140346
0.140334
0.140318
0.140298
0.140273
0.14024
0.140197
0.140143
0.140076
0.139993
0.139891
0.139758
0.140484
0.140477
0.140477
0.140484
0.140486
0.140488
0.140491
0.140493
0.140494
0.140495
0.140495
0.140495
0.140494
0.140492
0.14049
0.140487
0.140482
0.140477
0.140471
0.140463
0.140454
0.140442
0.140428
0.140412
0.140392
0.140369
0.140342
0.14031
0.140273
0.140232
0.140186
0.140134
0.140077
0.140013
0.139941
0.139855
0.139757
0.139623
0.139423
0.140487
0.14049
0.140488
0.140479
0.140478
0.140475
0.140469
0.140458
0.140451
0.140444
0.140438
0.140432
0.140428
0.140424
0.140422
0.14042
0.140418
0.140417
0.140416
0.140416
0.140416
0.140417
0.140418
0.140417
0.140416
0.140412
0.140407
0.140402
0.140395
0.140386
0.140375
0.14036
0.140342
0.140317
0.140283
0.140234
0.140169
0.140077
0.139975
0.140492
0.140489
0.14049
0.140495
0.140496
0.140498
0.140501
0.140503
0.140505
0.140507
0.140508
0.140508
0.140509
0.140509
0.140508
0.140507
0.140505
0.140503
0.140499
0.140495
0.14049
0.140484
0.140477
0.140468
0.140457
0.140444
0.140428
0.140407
0.140382
0.140352
0.140315
0.140271
0.14022
0.140161
0.140094
0.140015
0.139925
0.139807
0.13964
0.140494
0.140496
0.140493
0.140487
0.140485
0.140483
0.140478
0.140471
0.140466
0.140462
0.140458
0.140454
0.140452
0.14045
0.140448
0.140447
0.140446
0.140445
0.140445
0.140444
0.140444
0.140444
0.140444
0.140444
0.140443
0.140441
0.140439
0.140435
0.140431
0.140427
0.14042
0.140412
0.140402
0.140389
0.14037
0.140343
0.140308
0.140238
0.140162
0.140497
0.140496
0.140497
0.140501
0.140503
0.140505
0.140508
0.14051
0.140513
0.140515
0.140516
0.140518
0.140519
0.14052
0.14052
0.14052
0.14052
0.140519
0.140518
0.140516
0.140513
0.14051
0.140506
0.140501
0.140495
0.140488
0.140479
0.140468
0.140454
0.140436
0.140413
0.140382
0.140344
0.140297
0.140239
0.140167
0.140085
0.139977
0.139834
0.140498
0.140499
0.140497
0.140492
0.140489
0.140487
0.140483
0.140478
0.140474
0.140471
0.140468
0.140466
0.140465
0.140464
0.140463
0.140462
0.140461
0.140461
0.140461
0.14046
0.14046
0.140461
0.140461
0.140461
0.140461
0.14046
0.140459
0.140457
0.140455
0.140453
0.14045
0.140445
0.14044
0.140432
0.140423
0.140408
0.14039
0.140351
0.140305
0.1405
0.1405
0.140501
0.140504
0.140507
0.140509
0.140512
0.140515
0.140518
0.14052
0.140523
0.140525
0.140526
0.140528
0.140529
0.14053
0.140531
0.140531
0.140531
0.14053
0.140529
0.140528
0.140526
0.140523
0.14052
0.140516
0.14051
0.140504
0.140497
0.140487
0.140474
0.140457
0.140434
0.140403
0.140361
0.140304
0.140235
0.140138
0.140012
0.1405
0.1405
0.140499
0.140494
0.140492
0.140489
0.140485
0.140481
0.140478
0.140476
0.140474
0.140473
0.140472
0.140472
0.140471
0.140471
0.140471
0.140471
0.140471
0.140471
0.140471
0.140471
0.140472
0.140473
0.140473
0.140473
0.140473
0.140472
0.140472
0.140471
0.140469
0.140467
0.140465
0.140461
0.140456
0.140448
0.140438
0.140418
0.140395
0.140502
0.140502
0.140503
0.140507
0.140509
0.140512
0.140516
0.140519
0.140522
0.140525
0.140527
0.14053
0.140532
0.140534
0.140536
0.140537
0.140539
0.14054
0.140541
0.140541
0.140541
0.140541
0.14054
0.140539
0.140537
0.140535
0.140532
0.140529
0.140524
0.140519
0.140512
0.140503
0.140491
0.140474
0.140449
0.140412
0.140361
0.140283
0.140176
0.140501
0.140501
0.140499
0.140495
0.140492
0.14049
0.140486
0.140483
0.14048
0.140479
0.140478
0.140477
0.140476
0.140476
0.140476
0.140476
0.140476
0.140477
0.140477
0.140477
0.140478
0.140478
0.140479
0.14048
0.140481
0.140482
0.140482
0.140482
0.140483
0.140483
0.140483
0.140483
0.140482
0.140481
0.140478
0.140474
0.14047
0.140459
0.140448
0.140502
0.140503
0.140504
0.140508
0.140511
0.140514
0.140518
0.140521
0.140524
0.140528
0.140531
0.140533
0.140536
0.140539
0.140541
0.140543
0.140545
0.140547
0.140548
0.14055
0.14055
0.140551
0.140551
0.140551
0.140551
0.14055
0.140549
0.140547
0.140544
0.140541
0.140537
0.140532
0.140526
0.140518
0.140505
0.140485
0.140455
0.140401
0.14032
0.140501
0.140501
0.140499
0.140495
0.140492
0.140489
0.140486
0.140483
0.140481
0.14048
0.140479
0.140479
0.140479
0.140479
0.140479
0.140479
0.14048
0.14048
0.140481
0.140481
0.140482
0.140483
0.140484
0.140485
0.140486
0.140487
0.140489
0.14049
0.140491
0.140492
0.140493
0.140493
0.140494
0.140494
0.140494
0.140493
0.140491
0.140485
0.140481
0.140502
0.140503
0.140505
0.140508
0.140512
0.140515
0.140519
0.140523
0.140526
0.14053
0.140533
0.140536
0.140539
0.140542
0.140545
0.140548
0.14055
0.140552
0.140554
0.140556
0.140558
0.140559
0.140561
0.140561
0.140562
0.140562
0.140562
0.140561
0.14056
0.140559
0.140557
0.140554
0.14055
0.140546
0.14054
0.14053
0.140517
0.140484
0.140434
0.140501
0.1405
0.140498
0.140494
0.140491
0.140488
0.140485
0.140482
0.14048
0.14048
0.140479
0.140479
0.140479
0.14048
0.14048
0.140481
0.140482
0.140482
0.140483
0.140484
0.140485
0.140486
0.140487
0.140488
0.14049
0.140491
0.140493
0.140494
0.140496
0.140497
0.140499
0.140501
0.140502
0.140504
0.140505
0.140506
0.140506
0.140504
0.140504
0.140501
0.140502
0.140504
0.140508
0.140511
0.140515
0.140519
0.140523
0.140527
0.140531
0.140535
0.140538
0.140542
0.140545
0.140548
0.140551
0.140554
0.140557
0.140559
0.140562
0.140564
0.140566
0.140568
0.140569
0.140571
0.140572
0.140572
0.140573
0.140573
0.140573
0.140572
0.140571
0.140569
0.140567
0.140564
0.140559
0.140555
0.140537
0.140516
0.140499
0.140498
0.140496
0.140493
0.140489
0.140486
0.140483
0.14048
0.140479
0.140478
0.140478
0.140479
0.140479
0.14048
0.140481
0.140481
0.140482
0.140483
0.140484
0.140485
0.140486
0.140487
0.140488
0.14049
0.140492
0.140493
0.140495
0.140497
0.140499
0.140501
0.140503
0.140506
0.140508
0.14051
0.140512
0.140514
0.140517
0.140517
0.14052
0.140499
0.140501
0.140503
0.140507
0.140511
0.140515
0.140519
0.140523
0.140528
0.140532
0.140536
0.140539
0.140543
0.140547
0.14055
0.140554
0.140557
0.14056
0.140563
0.140566
0.140569
0.140571
0.140574
0.140576
0.140578
0.14058
0.140581
0.140582
0.140583
0.140584
0.140585
0.140585
0.140585
0.140584
0.140583
0.140581
0.14058
0.14057
0.140567
0.140497
0.140496
0.140494
0.140491
0.140487
0.140484
0.14048
0.140478
0.140477
0.140477
0.140477
0.140477
0.140478
0.140479
0.14048
0.140481
0.140481
0.140482
0.140483
0.140484
0.140486
0.140487
0.140488
0.14049
0.140492
0.140494
0.140496
0.140498
0.1405
0.140503
0.140505
0.140508
0.140511
0.140514
0.140517
0.14052
0.140524
0.140525
0.14053
0.140497
0.140499
0.140501
0.140506
0.14051
0.140514
0.140518
0.140523
0.140527
0.140532
0.140536
0.14054
0.140544
0.140548
0.140552
0.140555
0.140559
0.140563
0.140566
0.140569
0.140573
0.140576
0.140579
0.140581
0.140584
0.140586
0.140588
0.14059
0.140592
0.140594
0.140595
0.140597
0.140598
0.140598
0.140599
0.140598
0.1406
0.140593
0.1406
0.140495
0.140494
0.140492
0.140488
0.140484
0.14048
0.140477
0.140475
0.140474
0.140474
0.140474
0.140475
0.140476
0.140477
0.140478
0.140479
0.14048
0.140481
0.140482
0.140483
0.140484
0.140486
0.140487
0.140489
0.140491
0.140493