/*--------------------------------*- C++ -*----------------------------------*\
| =========                 |                                                 |
| \\      /  F ield         | OpenFOAM: The Open Source CFD Toolbox           |
|  \\    /   O peration     | Version:  3.0.0                                 |
|   \\  /    A nd           | Web:      www.OpenFOAM.org                      |
|    \\/     M anipulation  |                                                 |
\*---------------------------------------------------------------------------*/
FoamFile
{
    version     2.0;
    format      ascii;
    class       volScalarField;
    location    "341";
    object      p;
}
// * * * * * * * * * * * * * * * * * * * * * * * * * * * * * * * * * * * * * //

dimensions      [0 2 -2 0 0 0 0];

internalField   nonuniform List<scalar> 
10720
(
1.50234e-05
-80.7936
-175.479
-266.013
-346.651
-427.863
-497.491
-553.458
-600.52
-635.043
-659.165
-675.157
-684.267
-687.052
-683.939
-674.456
-659.817
-638.713
-612.384
-579.452
-541.02
-496.284
-447.556
-395.783
-344.51
-298.861
-257.744
-217.455
-177.682
-138.629
-100.09
-61.8983
-23.9322
14.0621
52.3484
92.0711
133.409
182.328
228.926
83.7256
160.363
245.779
328.29
401.985
462.562
506.083
530.051
537.539
534.425
521.771
502.645
481.391
459.981
439.17
419.02
399.822
381.351
363.42
345.598
327.844
309.866
291.743
273.836
257.923
245.047
234.267
225.241
217.98
212.549
208.871
206.835
206.355
207.432
210.066
214.642
221.659
234.683
257.436
148.722
86.532
18.0138
-53.4003
-125.565
-198.37
-267.802
-331.736
-389.706
-439.955
-482.583
-517.666
-545.036
-564.871
-577.1
-581.879
-579.867
-570.588
-554.653
-531.469
-501.687
-465.075
-423.434
-377.979
-331.891
-289.573
-250.512
-211.803
-173.245
-135.138
-97.3639
-59.7931
-22.328
15.2676
53.2456
92.7327
133.891
182.738
228.597
205.364
260.105
315.834
371.36
422.411
466.254
499.666
520.174
528.421
526.493
516.091
500.205
481.675
462.107
442.351
422.796
403.772
385.273
367.198
349.284
331.461
313.546
295.617
278.055
262.246
249.09
237.95
228.543
220.902
215.09
211.046
208.679
207.906
208.722
211.138
215.541
222.422
235.366
257.126
172.249
116.478
54.7567
-12.5226
-81.1671
-150.36
-218.512
-282.734
-341.413
-393.68
-438.379
-475.079
-503.864
-525.201
-539.234
-546.255
-546.439
-539.674
-526.228
-505.925
-479.136
-445.964
-407.745
-365.815
-322.794
-282.299
-244.403
-206.849
-169.297
-132.014
-94.9223
-57.904
-20.8795
16.3672
54.0743
93.3473
134.332
183.005
228.445
223.304
274.012
325.577
375.807
420.962
459.353
488.711
507.368
515.973
515.774
508.032
494.955
478.61
460.545
441.781
422.893
404.257
386
368.091
350.361
332.722
315.059
297.439
280.211
264.482
251.126
239.796
230.224
222.424
216.449
212.248
209.735
208.828
209.522
211.835
216.158
222.98
235.811
256.637
209.691
162.76
109.899
52.493
-7.00681
-68.4176
-129.95
-189.68
-246.198
-298.386
-345.137
-385.804
-420.08
-447.85
-468.979
-483.294
-490.55
-490.639
-483.607
-469.416
-448.318
-420.599
-387.36
-350.002
-310.796
-272.831
-236.672
-200.659
-164.393
-128.15
-91.9157
-55.5975
-19.1361
17.6624
55.0194
94.009
134.756
183.128
228.181
252.19
293.706
336.122
378.197
416.46
449.643
475.71
493.053
502.002
503.302
497.864
487.375
473.429
457.367
440.173
422.459
404.638
386.935
369.398
351.954
334.551
317.139
299.795
282.853
267.228
253.743
242.243
232.483
224.473
218.271
213.842
211.106
209.993
210.503
212.663
216.863
223.583
236.23
256.132
224.588
182.773
135.44
83.6173
29.7136
-26.621
-83.8856
-140.3
-194.76
-246.093
-293.133
-335.1
-371.385
-401.553
-425.293
-442.28
-452.358
-455.442
-451.515
-440.629
-422.955
-398.842
-369.197
-335.351
-299.261
-263.505
-228.889
-194.247
-159.172
-123.93
-88.5554
-52.9692
-17.1205
19.1708
56.1141
94.7534
135.189
183.155
227.674
262.581
299.499
337.267
374.63
408.534
438.182
461.863
478.243
487.45
489.953
486.504
478.354
466.715
452.689
437.168
420.76
403.91
386.909
369.883
352.844
335.784
318.704
301.699
285.085
269.628
256.085
244.449
234.53
226.341
219.946
215.321
212.396
211.11
211.463
213.489
217.578
224.193
236.63
255.597
236.087
199.027
156.798
110.573
62.4116
11.6303
-40.3507
-92.1172
-142.847
-191.443
-236.896
-278.435
-315.35
-347.059
-373.122
-393.152
-406.875
-414.026
-414.38
-407.884
-394.61
-374.87
-349.422
-319.494
-286.804
-253.534
-220.665
-187.494
-153.678
-119.479
-84.9866
-50.1516
-14.9377
20.8185
57.3125
95.5524
135.614
183.057
226.928
269.729
302.252
335.72
369.034
399.368
426.177
447.946
463.52
472.871
476.306
474.482
468.339
458.805
446.766
432.991
418.041
402.356
386.252
369.915
353.422
336.817
320.144
303.52
287.25
271.995
258.442
246.701
236.647
228.296
221.715
216.892
213.772
212.301
212.483
214.361
218.322
224.812
236.996
255.014
241.95
208.487
170.235
128.308
84.6859
38.4092
-9.24834
-57.0432
-104.412
-150.358
-193.996
-234.613
-271.455
-303.861
-331.293
-353.257
-369.269
-379.024
-382.209
-378.758
-368.722
-352.388
-330.396
-303.842
-274.207
-243.311
-212.19
-180.497
-147.965
-114.837
-81.2481
-47.1828
-12.6226
22.5758
58.5913
96.3914
136.016
182.82
225.95
272.35
301.624
331.868
362.054
389.596
414.132
434.353
449.215
458.596
462.742
462.221
457.76
450.086
439.898
427.838
414.39
399.963
384.88
369.357
353.523
337.467
321.275
305.084
289.194
274.183
260.682
248.883
238.725
230.234
223.481
218.472
215.163
213.509
213.522
215.25
219.077
225.43
237.319
254.388
245.204
214.822
179.992
141.838
102.223
60.0327
16.4468
-27.4504
-71.2834
-114.196
-155.41
-194.321
-230.217
-262.433
-290.375
-313.491
-331.247
-343.282
-349.216
-348.849
-342.136
-329.275
-310.785
-287.608
-261.032
-232.586
-203.317
-173.171
-141.979
-109.974
-77.3312
-44.0697
-10.1908
24.4273
59.9387
97.2639
136.393
182.449
224.746
272.836
299.367
326.905
354.492
379.728
402.367
421.29
435.498
444.816
449.49
449.993
446.92
440.847
432.331
421.893
409.936
396.817
382.844
368.242
353.172
337.759
322.123
306.42
290.946
276.222
262.828
251.016
240.785
232.176
225.268
220.081
216.588
214.754
214.594
216.166
219.849
226.045
237.599
253.725
246.393
218.572
186.625
151.645
115.424
76.7648
36.737
-3.67926
-44.265
-84.2669
-123.027
-160.048
-194.674
-226.267
-254.236
-277.991
-296.956
-310.676
-318.717
-320.785
-316.789
-306.873
-291.45
-271.326
-247.594
-221.529
-194.128
-165.551
-135.728
-104.885
-73.2267
-40.8064
-7.64271
26.3643
61.3449
98.1642
136.752
181.961
223.336
271.725
295.995
321.287
346.705
370.003
391.04
408.844
422.447
431.636
436.684
437.985
436.039
431.325
424.285
415.34
404.812
393.003
380.186
366.577
352.353
337.663
322.651
307.491
292.473
278.08
264.85
253.072
242.803
234.103
227.058
221.707
218.037
216.025
215.692
217.104
220.632
226.656
237.835
253.025
246.296
220.677
191.223
159.007
125.74
90.1913
53.3565
16.1181
-21.4178
-58.5844
-94.8389
-129.778
-162.811
-193.374
-220.893
-244.768
-264.418
-279.344
-289.096
-293.295
-291.772
-284.59
-272.051
-254.821
-233.822
-210.108
-184.605
-157.629
-129.208
-99.5636
-68.9277
-37.3845
-4.9718
28.3897
62.8065
99.0856
137.095
181.372
221.752
269.655
291.996
315.373
338.936
360.577
380.231
397.052
410.081
419.099
424.395
426.311
425.274
421.696
415.939
408.34
399.15
388.615
376.964
364.393
351.077
337.176
322.85
308.285
293.767
279.749
266.736
255.04
244.77
236.007
228.848
223.347
219.508
217.321
216.815
218.063
221.426
227.259
238.027
252.288
245.305
221.59
194.303
164.491
133.805
100.99
66.9853
32.5909
-2.1515
-36.6631
-70.499
-103.343
-134.671
-163.984
-190.756
-214.414
-234.375
-250.116
-261.166
-267.09
-267.646
-262.834
-252.866
-238.277
-219.83
-198.387
-174.78
-149.423
-122.424
-94.0124
-64.4328
-33.801
-2.17397
30.507
64.3244
100.025
137.42
180.693
220.027
266.96
287.642
309.363
331.322
351.519
369.968
385.904
398.387
407.209
412.659
415.039
414.731
412.097
407.441
401.035
393.075
383.75
373.245
361.728
349.359
336.298
322.712
308.79
294.812
281.213
268.468
256.905
246.672
237.877
230.627
224.992
220.995
218.639
217.961
219.04
222.228
227.853
238.174
251.52
243.726
221.683
196.303
168.61
140.195
109.806
78.3303
46.505
14.3147
-17.725
-49.2489
-80.0164
-109.573
-137.492
-163.295
-186.445
-206.387
-222.594
-234.584
-241.905
-244.233
-241.51
-233.862
-221.703
-205.649
-186.395
-164.671
-140.941
-115.384
-88.2319
-59.7415
-30.0547
0.752554
32.7177
65.8997
100.98
137.724
179.927
218.182
263.891
283.124
303.397
323.943
342.871
360.255
375.385
387.347
395.953
401.482
404.21
404.482
402.627
398.905
393.547
386.697
378.501
369.1
358.628
347.224
335.039
322.235
308.997
295.6
282.461
270.034
258.652
248.497
239.702
232.386
226.637
222.494
219.976
219.126
220.033
223.035
228.435
238.278
250.722
241.765
221.197
197.511
171.699
145.298
117.07
87.8566
58.348
28.4813
-1.28421
-30.6366
-59.4047
-87.195
-113.648
-138.343
-160.791
-180.47
-196.866
-209.484
-217.89
-221.683
-220.752
-215.154
-205.19
-191.35
-174.182
-154.306
-132.201
-108.095
-82.2254
-54.8536
-26.1439
3.80917
35.023
67.5322
101.95
138.003
179.079
216.229
260.607
278.568
297.554
316.848
334.646
351.078
365.469
376.934
385.309
390.86
393.842
394.572
393.356
390.425
385.974
380.116
372.957
364.6
355.146
344.706
333.415
321.422
308.903
296.124
283.485
271.422
260.268
250.233
241.47
234.116
228.273
223.998
221.325
220.307
221.039
223.846
229.003
238.339
249.898
239.566
220.312
198.141
174.013
149.413
123.12
95.9393
68.5236
40.7697
13.0966
-14.2307
-41.094
-67.159
-92.1229
-115.628
-137.234
-156.453
-172.803
-185.788
-194.997
-199.981
-200.576
-196.776
-188.789
-176.987
-161.792
-143.716
-123.221
-100.569
-75.9979
-49.7706
-22.0683
6.99736
37.424
69.2221
102.935
138.254
178.154
214.178
257.227
274.052
291.894
310.062
326.846
342.413
356.122
367.116
375.25
380.78
383.941
385.031
384.335
382.068
378.399
373.417
367.198
359.815
351.336
341.843
331.447
320.283
308.51
296.379
284.276
272.619
261.739
251.865
243.171
235.807
229.892
225.501
222.683
221.501
222.055
224.657
229.554
238.36
249.05
237.228
219.157
198.351
175.74
152.756
128.206
102.863
77.3384
51.5105
25.762
0.313813
-24.7559
-49.1631
-72.6593
-94.9344
-115.604
-134.223
-150.342
-163.48
-173.247
-179.172
-181.041
-178.796
-172.565
-162.623
-149.276
-132.934
-114.024
-92.8184
-69.5566
-44.4956
-17.8287
10.3177
39.9212
70.9697
103.935
138.475
177.156
212.037
253.827
269.633
286.442
303.593
319.459
334.236
347.311
357.859
365.745
371.219
374.501
375.869
375.599
373.888
370.888
366.674
361.3
354.813
347.252
338.673
329.163
318.833
307.824
296.366
284.829
273.618
263.055
253.382
244.792
237.449
231.486
226.996
224.043
222.702
223.077
225.466
230.086
238.342
248.184
234.825
217.828
198.258
177.021
155.498
132.526
108.849
85.0423
60.9711
36.9881
13.2769
-10.1146
-32.9429
-55.0073
-76.0479
-95.7254
-113.643
-129.387
-142.503
-152.612
-159.259
-162.172
-161.255
-156.572
-148.31
-136.681
-121.998
-104.634
-84.8615
-62.9115
-39.0334
-13.4269
13.7694
42.5151
72.7754
104.949
138.666
176.092
209.817
250.464
265.348
281.218
297.442
312.473
326.522
339.006
349.128
356.766
362.159
365.516
367.097
367.169
365.921
363.493
359.948
355.327
349.654
342.949
335.242
326.594
317.091
306.853
296.087
285.143
274.411
264.206
254.774
246.323
239.031
233.045
228.474
225.4
223.906
224.1
226.268
230.597
238.287
247.302
232.411
216.39
197.947
177.964
157.766
136.232
114.069
91.8282
69.3624
46.9962
24.8899
3.0666
-18.2709
-38.9581
-58.7803
-77.4425
-94.5912
-109.853
-122.804
-133.076
-140.246
-143.997
-144.197
-140.861
-134.105
-124.059
-110.946
-95.0811
-76.7172
-56.075
-33.3914
-8.86652
17.3515
45.2053
74.6389
105.978
138.828
174.968
207.526
247.173
261.22
276.232
291.604
305.872
319.245
331.174
340.894
348.281
353.574
356.968
358.71
359.059
358.196
356.253
353.288
349.332
344.395
338.479
331.593
323.773
315.081
305.612
295.548
285.218
274.995
265.181
256.028
247.751
240.542
234.56
229.929
226.746
225.106
225.121
227.061
231.085
238.198
246.408
230.022
214.894
197.487
178.649
159.664
139.441
118.663
97.8513
76.8558
55.976
35.3521
14.984
-4.95226
-24.3288
-42.965
-60.6075
-76.9482
-91.6479
-104.319
-114.606
-122.127
-126.529
-127.656
-125.48
-120.06
-111.459
-99.8204
-85.395
-68.4077
-49.0621
-27.5783
-4.15255
21.0614
47.9907
76.5596
107.024
138.963
173.793
205.178
243.98
257.261
271.484
286.074
299.636
312.381
323.787
333.122
340.263
345.442
348.845
350.705
351.275
350.732
349.199
346.736
343.364
339.087
333.891
327.769
320.736
312.83
304.12
294.76
285.058
275.366
265.977
257.135
249.068
241.972
236.02
231.351
228.075
226.298
226.135
227.84
231.548
238.078
245.509
227.686
213.38
196.925
179.143
161.268
142.248
122.739
103.24
83.5912
64.0786
44.8224
25.8065
7.18072
-10.9519
-28.446
-45.0825
-60.5947
-74.6792
-86.9834
-97.1672
-104.889
-109.78
-111.66
-110.468
-106.221
-98.928
-88.6617
-75.6086
-59.9578
-41.8898
-21.6052
0.708388
24.8954
50.8697
78.5377
108.086
139.075
172.575
202.784
240.903
253.478
266.974
280.839
293.745
305.904
316.818
325.786
332.684
337.739
341.127
343.071
343.818
343.538
342.355
340.322
337.462
333.771
329.229
323.812
317.519
310.365
302.394
293.735
284.668
275.526
266.586
258.089
250.262
243.311
237.417
232.731
229.378
227.475
227.136
228.603
231.984
237.93
244.607
225.421
211.875
196.299
179.491
162.639
144.727
126.386
108.091
89.683
71.4296
53.4382
35.6768
18.2773
1.31769
-15.0848
-30.7422
-45.4228
-58.8591
-70.7309
-80.7178
-88.5139
-93.7507
-96.2274
-95.8602
-92.6321
-86.5122
-77.512
-65.7566
-51.394
-34.5777
-15.4855
5.70795
28.8487
53.8401
80.5721
109.166
139.165
171.326
200.356
237.952
249.875
262.697
275.888
288.184
299.793
310.242
318.858
325.517
330.442
333.8
335.8
336.686
336.624
335.734
334.072
331.658
328.487
324.532
319.761
314.157
307.715
300.459
292.49
284.058
275.478
267.009
258.883
251.326
244.549
238.74
234.061
230.648
228.629
228.12
229.345
232.392
237.756
243.707
223.239
210.398
195.64
179.735
163.827
146.938
129.675
112.491
95.2257
78.1344
61.3099
44.7129
28.4552
12.5983
-2.7649
-17.4766
-31.3341
-44.1024
-55.494
-65.2129
-72.9772
-78.4377
-81.3739
-81.6853
-79.3335
-74.2551
-66.413
-55.8748
-42.745
-27.1474
-9.2344
10.8361
32.9153
56.8987
82.6619
110.266
139.239
170.054
197.909
235.134
246.452
258.646
271.208
282.934
294.026
304.036
312.315
318.742
323.531
326.843
328.879
329.874
329.992
329.349
328.004
325.979
323.265
319.835
315.652
310.683
304.912
298.34
291.041
283.239
275.226
267.243
259.511
252.252
245.677
239.98
235.331
231.877
229.753
229.079
230.062
232.77
237.56
242.814
221.15
208.965
194.967
179.902
164.871
148.929
132.664
116.505
100.299
84.2811
68.5369
53.0184
37.8252
23.0018
8.62023
-5.18215
-18.2348
-30.3295
-41.2097
-50.6049
-58.2517
-63.8315
-67.1073
-67.9658
-66.3576
-62.1962
-55.4041
-45.9986
-34.0404
-19.6226
-2.86923
16.0811
37.0879
60.0413
84.8062
111.387
139.303
168.773
195.456
232.452
243.207
254.812
266.786
277.977
288.583
298.177
306.133
312.334
316.986
320.243
322.296
323.374
323.639
323.205
322.133
320.443
318.132
315.171
311.516
307.131
301.984
296.059
289.407
282.225
274.778
267.291
259.972
253.034
246.687
241.127
236.531
233.055
230.84
230.008
230.751
233.118
237.345
241.933
219.158
207.586
194.298
180.017
165.799
150.739
135.399
120.192
104.965
89.9421
75.1984
60.6822
46.4798
32.6235
19.1685
6.23197
-6.03974
-17.4654
-27.8159
-36.8462
-44.3082
-49.9181
-53.4294
-54.7212
-53.7346
-50.3712
-44.523
-36.1633
-25.3117
-12.0281
3.5911
21.4292
41.3575
63.2637
87.0034
112.532
139.36
167.491
193.012
229.906
240.135
251.19
262.612
273.299
283.446
292.644
300.292
306.271
310.786
313.98
316.036
317.179
317.565
317.306
316.466
315.068
313.11
310.562
307.383
303.53
298.96
293.644
287.61
281.03
274.144
267.159
260.265
253.668
247.572
242.174
237.654
234.174
231.883
230.901
231.407
233.433
237.113
241.067
217.268
206.268
193.645
180.097
166.637
152.399
137.92
123.596
109.278
95.1771
81.3618
67.7762
54.4975
41.546
28.9636
16.8493
5.32841
-5.43877
-15.2509
-23.8868
-31.1133
-36.6804
-40.3378
-41.9612
-41.4867
-38.8119
-33.8059
-26.4044
-16.5908
-4.39083
10.1258
26.8663
45.7143
66.5596
89.2522
113.702
139.42
166.222
190.591
227.495
237.231
247.769
258.672
268.885
278.596
287.419
294.77
300.537
304.915
308.041
310.088
311.278
311.762
311.651
311.01
309.864
308.214
306.033
303.279
299.906
295.867
291.119
285.672
279.671
273.336
266.85
260.391
254.15
248.326
243.111
238.689
235.226
232.873
231.752
232.026
233.715
236.867
240.221
215.478
205.016
193.017
180.157
167.406
153.935
140.259
126.758
113.284
100.04
87.0872
74.3674
61.9479
49.8408
38.0784
26.7427
15.9415
5.81482
-3.45937
-11.6809
-18.6346
-24.0992
-27.8272
-29.6935
-29.6347
-27.5469
-23.2853
-16.7552
-7.90777
3.26208
16.7138
32.3746
50.147
69.9237
91.5502
114.902
139.488
164.978
188.209
225.216
234.49
244.541
254.955
264.719
274.017
282.484
289.552
295.112
299.354
302.407
304.439
305.662
306.226
306.239
305.767
304.84
303.458
301.599
299.224
296.285
292.73
288.507
283.612
278.167
272.366
266.374
260.353
254.48
248.944
243.934
239.63
236.202
233.803
232.554
232.604
233.963
236.609
239.398
213.789
203.834
192.421
180.206
168.12
155.366
142.441
129.707
117.021
104.574
92.423
80.509
68.8908
57.5726
46.579
35.979
25.8641
16.3561
7.61394
-0.183817
-6.83661
-12.1522
-15.8884
-17.9229
-18.1937
-16.6004
-12.9907
-7.24685
0.707111
10.9044
23.3306
37.9379
54.6438
73.3474
93.8964
116.133
139.574
163.769
185.881
223.067
231.905
241.497
251.449
260.789
269.694
277.82
284.618
289.979
294.087
297.066
299.074
300.32
300.949
301.066
300.739
299.999
298.851
297.276
295.237
292.687
289.57
285.832
281.453
276.534
271.248
265.741
260.156
254.658
249.424
244.635
240.47
237.095
234.665
233.301
233.137
234.175
236.341
238.601
212.2
202.722
191.862
180.253
168.792
156.711
144.489
132.472
120.52
108.817
97.4126
86.2487
75.3765
64.7959
54.5225
44.6159
35.1533
26.2406
18.0195
10.6483
4.31424
-0.814535
-4.50852
-6.64663
-7.17198
-5.99122
-2.94907
2.08996
9.22346
18.5082
29.9542
43.5362
59.1911
76.8246
96.2863
117.399
139.684
162.607
183.621
221.044
229.471
238.629
248.143
257.08
265.614
273.415
279.954
285.122
289.099
292.002
293.982
295.242
295.921
296.126
295.923
295.346
294.402
293.075
291.333
289.129
286.41
283.114
279.214
274.792
269.997
264.96
259.807
254.687
249.764
245.211
241.2
237.896
235.452
233.988
233.621
234.352
236.065
237.833
210.709
201.68
191.342
180.306
169.431
157.982
146.42
135.073
123.808
112.8
102.091
91.626
81.4505
71.558
61.9601
52.7062
43.8615
35.5187
27.8035
20.8575
14.8514
9.938
6.32604
4.13752
3.42223
4.26413
6.81796
11.2288
17.6129
26.0457
36.5603
49.1519
63.7743
80.3456
98.7188
118.701
139.827
161.504
181.44
219.142
227.181
235.928
245.027
253.582
261.762
269.253
275.543
280.526
284.375
287.202
289.15
290.416
291.137
291.415
291.317
290.88
290.113
289.004
287.523
285.628
283.266
280.373
276.915
272.957
268.629
264.044
259.313
254.569
249.964
245.658
241.817
238.601
236.158
234.607
234.053
234.491
235.781
237.095
209.312
200.709
190.864
180.369
170.046
159.191
148.248
137.53
126.909
116.549
106.491
96.678
87.1517
77.903
68.9371
60.2958
52.0352
44.2359
37.0093
30.4825
24.8093
20.1303
16.6332
14.4363
13.5859
14.1544
16.29
20.1461
25.849
33.4911
43.1249
54.764
68.3801
83.9009
101.19
120.042
140.013
160.47
179.353
217.356
225.028
233.386
242.09
250.283
258.125
265.321
271.373
276.177
279.902
282.652
284.566
285.833
286.586
286.925
286.917
286.601
285.987
285.068
283.818
282.197
280.154
277.626
274.574
271.047
267.158
263.004
258.683
254.311
250.025
245.975
242.316
239.202
236.777
235.155
234.429
234.592
235.49
236.387
208.006
199.806
190.428
180.444
170.642
160.348
149.988
139.86
129.842
120.089
110.639
101.435
92.5153
83.8677
75.4934
67.4276
59.7179
52.4354
45.6776
39.5593
34.2189
29.7869
26.4285
24.26
23.3202
23.6706
25.4521
28.82
33.908
40.8206
49.6254
60.3532
72.992
87.4822
103.695
121.426
140.247
159.516
177.372
215.682
223.006
230.994
239.324
247.171
254.693
261.606
267.429
272.062
275.666
278.341
280.218
281.481
282.259
282.649
282.718
282.506
282.025
281.272
280.224
278.845
277.087
274.889
272.207
269.078
265.6
261.855
257.927
253.918
249.95
246.161
242.695
239.696
237.303
235.625
234.745
234.654
235.193
235.711
206.788
198.97
190.035
180.535
171.224
161.459
151.648
142.075
132.623
123.438
114.558
105.924
97.5702
89.4847
81.6641
74.1382
66.9472
60.154
53.8451
48.1226
43.1114
38.933
35.7314
33.6186
32.6276
32.8086
34.2923
37.2329
41.7681
48.0103
56.0393
65.9002
77.5954
91.0779
106.231
122.852
140.537
158.649
175.505
214.115
221.109
228.746
236.719
244.238
251.453
258.095
263.7
268.168
271.655
274.255
276.095
277.35
278.147
278.579
278.714
278.591
278.226
277.617
276.746
275.581
274.076
272.174
269.828
267.066
263.969
260.609
257.056
253.398
249.743
246.217
242.95
240.079
237.733
236.015
234.999
234.677
234.888
235.066
205.655
198.199
189.683
180.642
171.796
162.531
153.236
144.186
135.265
126.614
118.267
110.166
102.342
94.7826
87.4801
80.4603
73.7577
67.427
61.5453
56.2038
51.5157
47.5921
44.5601
42.5249
41.5134
41.5656
42.8013
45.37
49.4106
55.0395
62.3455
71.3853
82.1747
94.6785
108.793
124.323
140.891
157.878
173.764
212.649
219.33
226.633
234.267
241.472
248.395
254.779
260.174
264.483
267.857
270.384
272.186
273.43
274.24
274.707
274.898
274.852
274.587
274.104
273.388
272.411
271.131
269.494
267.452
265.024
262.28
259.279
256.08
252.759
249.411
246.146
243.083
240.349
238.062
236.32
235.187
234.657
234.575
234.45
204.602
197.49
189.373
180.766
172.361
163.567
154.762
146.203
137.782
129.633
121.784
114.182
106.855
99.7861
92.9688
86.4235
80.1799
74.2854
68.8092
63.8331
59.4586
55.7886
52.9335
50.9916
49.9845
49.9419
50.9728
53.2198
56.819
61.8893
68.5246
76.7911
86.7149
98.2734
111.375
125.839
141.313
157.211
172.155
211.281
217.663
224.648
231.959
238.865
245.509
251.646
256.84
260.997
264.261
266.717
268.479
269.711
270.531
271.026
271.264
271.285
271.106
270.733
270.152
269.34
268.259
266.857
265.089
262.965
260.545
257.878
255.012
252.012
248.959
245.951
243.095
240.504
238.288
236.538
235.309
234.595
234.253
233.861
203.625
196.84
189.103
180.909
172.92
164.573
156.229
148.134
140.184
132.505
125.125
117.991
111.128
104.519
98.1551
92.0541
86.2411
80.7574
75.6654
71.0377
66.9661
63.5451
60.8707
59.0338
58.0499
57.9404
58.8033
60.7727
63.9801
68.543
74.5591
82.1
91.2017
101.852
113.973
127.399
141.808
156.654
170.686
210.004
216.103
222.786
229.787
236.408
242.786
248.686
253.687
257.698
260.857
263.243
264.966
266.182
267.008
267.527
267.806
267.882
267.779
267.5
267.038
266.37
265.464
264.272
262.749
260.901
258.776
256.417
253.861
251.164
248.395
245.637
242.987
240.545
238.411
236.666
235.361
234.49
233.921
233.296
202.722
196.248
188.87
181.068
173.474
165.55
157.643
149.986
142.479
135.243
128.303
121.607
115.178
109
103.061
97.3757
91.9665
86.8694
82.1397
77.8431
74.0621
70.8834
68.3895
66.6649
65.7196
65.5662
66.2921
68.0223
70.8827
74.9871
80.4331
87.2966
95.621
105.403
116.581
129.002
142.379
156.21
169.361
208.815
214.644
221.038
227.745
234.093
240.217
245.889
250.707
254.577
257.633
259.952
261.635
262.836
263.665
264.203
264.515
264.64
264.601
264.404
264.045
263.504
262.752
261.745
260.441
258.841
256.985
254.908
252.64
250.227
247.726
245.211
242.764
240.474
238.43
236.706
235.344
234.34
233.576
232.753
201.887
195.709
188.674
181.245
174.026
166.502
159.007
151.764
144.675
137.856
131.329
125.044
119.023
113.246
107.705
102.409
97.3785
92.6444
88.2562
84.2731
80.7693
77.8243
75.5089
73.9008
73.0044
72.8252
73.4405
74.9657
77.519
81.2097
86.133
92.3668
99.9598
108.918
119.191
130.646
143.028
155.884
168.184
207.708
213.28
219.399
225.825
231.912
237.793
243.248
247.889
251.624
254.582
256.835
258.479
259.662
260.491
261.044
261.384
261.552
261.568
261.442
261.171
260.741
260.123
259.281
258.172
256.795
255.182
253.362
251.359
249.21
246.963
244.679
242.43
240.294
238.347
236.655
235.255
234.144
233.217
232.227
201.118
195.221
188.513
181.437
174.574
167.43
160.326
153.473
146.778
140.352
134.213
128.314
122.674
117.275
112.105
107.173
102.497
98.1034
94.0365
90.349
87.1086
84.3878
82.2467
80.756
79.9157
79.7253
80.2521
81.6016
83.8837
87.2016
91.6472
97.2983
104.207
112.386
121.798
132.329
143.756
155.676
167.157
206.679
212.006
217.862
224.019
229.858
235.506
240.753
245.224
248.83
251.692
253.882
255.488
256.653
257.48
258.044
258.408
258.61
258.674
258.61
258.416
258.081
257.582
256.883
255.948
254.77
253.376
251.789
250.028
248.123
246.113
244.049
241.992
240.008
238.164
236.516
235.097
233.901
232.841
231.715
200.41
194.782
188.384
181.645
175.119
168.336
161.601
155.117
148.795
142.738
136.964
131.427
126.145
121.099
116.276
111.686
107.341
103.266
99.5002
96.0914
93.0998
90.5922
88.6198
87.2458
86.4667
86.2756
86.7316
87.9306
89.9736
92.9563
96.9666
102.08
108.351
115.798
124.395
134.047
144.561
155.586
166.28
205.724
210.817
216.423
222.323
227.924
233.349
238.397
242.705
246.186
248.957
251.084
252.652
253.798
254.621
255.195
255.578
255.81
255.914
255.903
255.775
255.523
255.127
254.555
253.773
252.772
251.574
250.197
248.657
246.976
245.185
243.329
241.456
239.622
237.884
236.29
234.868
233.612
232.447
231.213
199.76
194.387
188.285
181.867
175.661
169.22
162.835
156.701
150.729
145.02
139.59
134.393
129.446
124.73
120.233
115.961
111.926
108.149
104.666
101.518
98.7617
96.4559
94.6452
93.3853
92.6692
92.4857
92.8859
93.9557
95.7876
98.4695
102.084
106.704
112.383
119.145
126.975
135.795
145.442
155.615
165.553
204.837
209.708
215.074
220.73
226.104
231.315
236.172
240.324
243.685
246.368
248.434
249.965
251.091
251.909
252.488
252.887
253.144
253.283
253.316
253.246
253.066
252.759
252.298
251.65
250.807
249.784
248.596
247.255
245.778
244.191
242.527
240.829
239.141
237.512
235.981
234.57
233.276
232.032
230.716
199.164
194.035
188.214
182.101
176.2
170.083
164.03
158.226
152.586
147.205
142.097
137.22
132.587
128.181
123.987
120.013
116.267
112.769
109.55
106.648
104.111
101.996
100.339
99.1889
98.5365
98.3665
98.7224
99.6813
101.327
103.739
106.995
111.162
116.295
122.42
129.531
137.567
146.395
155.758
164.973
204.016
208.674
213.812
219.233
224.39
229.397
234.071
238.073
241.319
243.916
245.924
247.418
248.524
249.335
249.918
250.329
250.607
250.775
250.847
250.826
250.707
250.478
250.113
249.584
248.879
248.012
246.993
245.831
244.539
243.137
241.653
240.119
238.573
237.053
235.591
234.207
232.892
231.595
230.221
198.619
193.722
188.17
182.347
176.734
170.926
165.188
159.695
154.368
149.296
144.492
139.915
135.577
131.46
127.551
123.855
120.379
117.141
114.168
111.495
109.165
107.227
105.716
104.672
104.082
103.929
104.25
105.113
106.594
108.765
111.696
115.45
120.08
125.616
132.057
139.359
147.415
156.011
164.536
203.257
207.712
212.632
217.828
222.777
227.588
232.086
235.944
239.08
241.595
243.546
245.003
246.089
246.892
247.476
247.897
248.193
248.385
248.489
248.51
248.444
248.282
248
247.575
246.992
246.262
245.393
244.392
243.267
242.035
240.716
239.336
237.925
236.513
235.126
233.779
232.463
231.134
229.724
198.121
193.446
188.149
182.602
177.265
171.748
166.308
161.11
156.079
151.299
146.781
142.485
138.423
134.577
130.934
127.498
124.274
121.278
118.534
116.075
113.938
112.167
110.792
109.847
109.318
109.185
109.478
110.259
111.594
113.548
116.186
119.564
123.734
128.726
134.546
141.165
148.497
156.37
164.237
202.554
206.816
211.527
216.51
221.259
225.883
230.213
233.933
236.962
239.398
241.293
242.715
243.78
244.573
245.157
245.585
245.894
246.107
246.238
246.294
246.274
246.169
245.96
245.624
245.149
244.54
243.804
242.945
241.971
240.892
239.724
238.487
237.204
235.899
234.591
233.29
231.989
230.647
229.222
197.668
193.203
188.15
182.866
177.79
172.55
167.393
162.474
157.722
153.217
148.967
144.936
141.133
137.541
134.146
130.952
127.963
125.192
122.662
120.401
118.444
116.828
115.581
114.729
114.258
114.145
114.417
115.126
116.332
118.093
120.465
123.503
127.252
131.745
136.993
142.976
149.635
156.828
164.07
201.905
205.983
210.495
215.272
219.831
224.276
228.445
232.031
234.958
237.317
239.158
240.545
241.589
242.372
242.954
243.387
243.707
243.936
244.09
244.176
244.194
244.137
243.991
243.733
243.351
242.849
242.23
241.498
240.657
239.716
238.686
237.581
236.419
235.218
233.991
232.745
231.471
230.135
228.711
197.256
192.992
188.172
183.138
178.309
173.332
168.442
163.788
159.3
155.053
151.057
147.274
143.713
140.358
137.195
134.227
131.456
128.896
126.564
124.488
122.697
121.225
120.097
119.332
118.915
118.823
119.077
119.724
120.815
122.402
124.536
127.265
130.632
134.668
139.39
144.788
150.82
157.377
164.028
201.307
205.208
209.53
214.112
218.489
222.761
226.775
230.234
233.062
235.347
237.135
238.487
239.51
240.282
240.861
241.297
241.625
241.867
242.04
242.15
242.201
242.186
242.093
241.903
241.602
241.192
240.676
240.056
239.334
238.516
237.611
236.627
235.579
234.477
233.333
232.148
230.912
229.596
228.189
196.882
192.81
188.21
183.414
178.821
174.094
169.458
165.053
160.813
156.811
153.052
149.502
146.169
143.036
140.09
137.332
134.764
132.399
130.252
128.346
126.709
125.371
124.352
123.668
123.302
123.231
123.47
124.061
125.05
126.482
128.401
130.851
133.871
137.492
141.733
146.593
152.045
158.009
164.103
200.756
204.489
208.629
213.023
217.226
221.334
225.199
228.536
231.268
233.481
235.218
236.536
237.538
238.298
238.872
239.309
239.643
239.895
240.083
240.214
240.292
240.312
240.264
240.132
239.901
239.572
239.146
238.624
238.008
237.3
236.506
235.634
234.691
233.685
232.622
231.503
230.315
229.032
227.654
196.544
192.655
188.265
183.695
179.326
174.835
170.439
166.27
162.266
158.493
154.958
151.627
148.507
145.581
142.836
140.274
137.896
135.711
133.735
131.987
130.493
129.279
128.36
127.751
127.432
127.379
127.606
128.149
129.047
130.34
132.066
134.264
136.971
140.215
144.017
148.384
153.303
158.716
164.286
200.248
203.821
207.788
212.003
216.039
219.989
223.712
226.93
229.571
231.715
233.402
234.686
235.666
236.414
236.982
237.418
237.756
238.016
238.216
238.364
238.464
238.513
238.504
238.421
238.251
237.992
237.644
237.208
236.684
236.074
235.381
234.609
233.763
232.848
231.866
230.815
229.682
228.442
227.105
196.239
192.523
188.334
183.979
179.822
175.556
171.387
167.441
163.659
160.102
156.778
153.652
150.731
147.998
145.442
143.062
140.86
138.843
137.025
135.423
134.06
132.959
132.133
131.592
131.316
131.281
131.498
131.997
132.814
133.982