/*--------------------------------*- C++ -*----------------------------------*\
| =========                 |                                                 |
| \\      /  F ield         | OpenFOAM: The Open Source CFD Toolbox           |
|  \\    /   O peration     | Version:  3.0.0                                 |
|   \\  /    A nd           | Web:      www.OpenFOAM.org                      |
|    \\/     M anipulation  |                                                 |
\*---------------------------------------------------------------------------*/
FoamFile
{
    version     2.0;
    format      ascii;
    class       surfaceScalarField;
    location    "341";
    object      phi;
}
// * * * * * * * * * * * * * * * * * * * * * * * * * * * * * * * * * * * * * //

dimensions      [0 3 -1 0 0 0 0];

internalField   nonuniform List<scalar> 
21254
(
-0.270102
0.289005
-0.0189027
0.31046
-0.0214549
0.328259
-0.017799
0.343811
-0.0155521
0.358355
-0.0145443
0.369428
-0.0110733
0.377698
-0.00826978
0.384054
-0.00635608
0.387538
-0.00348414
0.389317
-0.00177909
0.389501
-0.000183374
0.38772
0.00178034
0.384611
0.00310979
0.380404
0.00420721
0.375066
0.00533778
0.368947
0.00611876
0.361843
0.00710411
0.353843
0.0079998
0.344757
0.00908648
0.334773
0.00998351
0.32351
0.0112631
0.311514
0.0119961
0.299025
0.012489
0.287355
0.01167
0.277719
0.00963618
0.269407
0.00831186
0.261263
0.00814345
0.25297
0.0082936
0.244193
0.008777
0.234845
0.00934766
0.224898
0.00994677
0.214335
0.0105637
0.203071
0.011264
0.19084
0.0122304
0.177069
0.0137708
0.160636
0.0164334
0.13914
0.021496
0.107654
0.0314861
0.0904277
0.0172268
-0.247184
-0.0229181
-0.223625
-0.0235593
-0.194124
-0.0295003
-0.161408
-0.0327161
-0.12666
-0.0347479
-0.090368
-0.0362923
-0.054059
-0.036309
-0.0197009
-0.0343581
0.0114446
-0.0311456
0.039133
-0.0276884
0.0630654
-0.0239323
0.0835382
-0.0204729
0.100987
-0.0174486
0.11571
-0.014723
0.128352
-0.0126424
0.13927
-0.0109179
0.148955
-0.00968491
0.157665
-0.00871012
0.165721
-0.00805596
0.173266
-0.00754448
0.180482
-0.00721602
0.187378
-0.00689643
0.193902
-0.00652354
0.199456
-0.00555447
0.203858
-0.00440206
0.207375
-0.00351739
0.210007
-0.00263127
0.211863
-0.00185675
0.212979
-0.00111535
0.21338
-0.000401142
0.212945
0.000435157
0.211684
0.00126129
0.209713
0.00197037
0.207129
0.00258401
0.203835
0.0032944
0.199454
0.00438027
0.192905
0.00654988
0.179089
0.0138153
0.1585
0.0205894
-0.247204
0.268826
-0.040524
0.290847
-0.0434762
0.313686
-0.0406374
0.334859
-0.0367253
0.355415
-0.0351002
0.374283
-0.0299419
0.391108
-0.0250949
0.40617
-0.0214177
0.419058
-0.0163718
0.429838
-0.0125597
0.438768
-0.00911289
0.446121
-0.00557259
0.45188
-0.00264935
0.455905
0.000181779
0.458069
0.0031745
0.458076
0.00611105
0.455924
0.00925649
0.451801
0.0121226
0.445259
0.015629
0.436673
0.0185689
0.4257
0.0222366
0.412707
0.0249885
0.397746
0.0274507
0.38152
0.0278961
0.36534
0.0258155
0.349639
0.0240131
0.334468
0.0233146
0.320001
0.0227603
0.306013
0.022765
0.292323
0.0230383
0.278696
0.0235735
0.264953
0.0243061
0.250827
0.0253909
0.236072
0.0269846
0.220248
0.0295953
0.202257
0.0344246
0.180698
0.0430552
0.146551
0.0656324
0.1043
0.0594788
-0.225015
-0.0451071
-0.201252
-0.0473231
-0.173376
-0.0573755
-0.143758
-0.0623345
-0.112142
-0.0663637
-0.0789766
-0.0694578
-0.0458095
-0.069476
-0.0140574
-0.0661102
0.0156041
-0.0608071
0.0424304
-0.0545147
0.0659433
-0.0474453
0.0864322
-0.0409617
0.10434
-0.0353561
0.119946
-0.0303292
0.133675
-0.0263714
0.145825
-0.0230677
0.156689
-0.0205493
0.166576
-0.0185971
0.175744
-0.017224
0.184317
-0.0161176
0.192461
-0.0153595
0.200253
-0.014689
0.207633
-0.0139037
0.214164
-0.0120854
0.219578
-0.00981583
0.22407
-0.00800971
0.227638
-0.00619893
0.230334
-0.00455309
0.232188
-0.00296925
0.233275
-0.00148749
0.233733
-2.31843e-05
0.233628
0.00136589
0.23284
0.00275869
0.231299
0.00412532
0.22893
0.00566331
0.22549
0.00782067
0.221013
0.0110263
0.211048
0.0237805
0.191894
0.0397433
-0.239631
0.261221
-0.0621131
0.282852
-0.065108
0.306119
-0.0639046
0.327281
-0.0578864
0.347244
-0.0550631
0.366236
-0.0489346
0.382961
-0.0418194
0.397848
-0.0363046
0.410448
-0.0289722
0.421101
-0.0232131
0.429782
-0.017794
0.436726
-0.0125162
0.441826
-0.00774924
0.445618
-0.00361014
0.447958
0.000834539
0.449511
0.00455748
0.449877
0.00889113
0.449351
0.0126483
0.447544
0.0174363
0.444347
0.021766
0.439606
0.0269767
0.433123
0.0314717
0.424864
0.0357097
0.41495
0.0378105
0.403957
0.0368086
0.392001
0.0359688
0.379023
0.0362924
0.365217
0.0365665
0.350788
0.0371946
0.335844
0.0379816
0.320528
0.0388901
0.304847
0.0399868
0.288712
0.041526
0.271905
0.0437909
0.253984
0.0475169
0.233855
0.0545529
0.210249
0.066662
0.175244
0.100637
0.126137
0.108586
-0.217834
-0.0669047
-0.193765
-0.0713922
-0.164855
-0.0862854
-0.134637
-0.0925522
-0.102924
-0.0980772
-0.0698359
-0.102546
-0.0370064
-0.102306
-0.00621759
-0.096899
0.0223351
-0.0893598
0.048367
-0.0805465
0.0715443
-0.0706226
0.0920324
-0.0614498
0.110117
-0.0534406
0.126066
-0.046278
0.140195
-0.0405003
0.152821
-0.0356944
0.164207
-0.0319353
0.174617
-0.029007
0.184264
-0.0268704
0.193315
-0.0251689
0.201959
-0.0240036
0.210221
-0.0229507
0.218022
-0.0217053
0.225076
-0.0191393
0.231104
-0.0158441
0.236204
-0.013109
0.240432
-0.0104272
0.243822
-0.00794309
0.246439
-0.00558614
0.248273
-0.00332209
0.24939
-0.00113992
0.249794
0.000962185
0.24952
0.00303255
0.248511
0.00513467
0.246679
0.0074953
0.243662
0.010837
0.239077
0.0156116
0.229368
0.0334895
0.21092
0.0581916
-0.230962
0.253689
-0.0848402
0.276378
-0.0877968
0.301243
-0.0887694
0.323865
-0.0805082
0.345672
-0.076871
0.366453
-0.0697148
0.385438
-0.0608043
0.402397
-0.0532645
0.417581
-0.0441555
0.430774
-0.0364061
0.442085
-0.0291058
0.451542
-0.0219729
0.459196
-0.0154028
0.465086
-0.00950041
0.469472
-0.00355185
0.471958
0.00207234
0.472742
0.00810644
0.471617
0.0137737
0.468962
0.0200913
0.46467
0.0260578
0.4589
0.0327465
0.451891
0.0384804
0.443739
0.0438622
0.434906
0.0466431
0.425771
0.0459436
0.41635
0.0453898
0.406243
0.0464002
0.395289
0.0475204
0.383318
0.0491656
0.370182
0.0511176
0.355918
0.0531534
0.340555
0.0553498
0.324116
0.0579657
0.306469
0.0614379
0.287321
0.0666646
0.265635
0.0762385
0.24008
0.0922169
0.203586
0.137131
0.152769
0.159404
-0.208513
-0.0893533
-0.184345
-0.0955607
-0.154961
-0.115669
-0.124683
-0.12283
-0.0929915
-0.129769
-0.059903
-0.135634
-0.0273166
-0.134892
0.00302188
-0.127237
0.0309108
-0.117249
0.0563587
-0.105994
0.0790572
-0.0933212
0.0992214
-0.081614
0.117209
-0.0714286
0.133242
-0.0623106
0.147634
-0.0548925
0.160616
-0.0486758
0.172452
-0.0437717
0.183325
-0.0398803
0.193463
-0.0370075
0.203007
-0.0347133
0.212073
-0.0330693
0.220732
-0.0316096
0.228934
-0.0299075
0.236375
-0.0265808
0.242818
-0.022287
0.248319
-0.0186099
0.252922
-0.01503
0.256676
-0.0116966
0.259613
-0.00852362
0.261791
-0.00550045
0.263241
-0.00258964
0.263989
0.00021427
0.264045
0.0029768
0.263399
0.00578001
0.261949
0.0089457
0.259343
0.0134435
0.255039
0.0199156
0.245863
0.0426649
0.227656
0.0763988
-0.226298
0.24981
-0.108352
0.273358
-0.111344
0.299642
-0.115054
0.32302
-0.103886
0.345875
-0.0997258
0.367789
-0.0916294
0.387705
-0.0807202
0.405691
-0.0712504
0.422082
-0.0605467
0.436201
-0.0505245
0.448452
-0.0413567
0.458779
-0.0323003
0.467491
-0.0241144
0.474236
-0.0162458
0.47918
-0.00849597
0.482393
-0.00114096
0.484041
0.00645878
0.484146
0.013669
0.482449
0.0217886
0.479229
0.0292777
0.474346
0.0376291
0.467958
0.0448685
0.460318
0.0515025
0.451828
0.0551332
0.443052
0.054719
0.434175
0.0542672
0.425017
0.0555577
0.415474
0.0570633
0.405355
0.0592853
0.394443
0.0620294
0.382455
0.0651418
0.369148
0.0686563
0.354319
0.0727951
0.3377
0.0780568
0.318891
0.0854732
0.296972
0.0981574
0.270453
0.118736
0.232879
0.174705
0.181449
0.210834
-0.202794
-0.112857
-0.177913
-0.120442
-0.147268
-0.146315
-0.116173
-0.153925
-0.0837963
-0.162146
-0.050142
-0.169288
-0.0171649
-0.167869
0.0131586
-0.157561
0.0407379
-0.144828
0.0658217
-0.131078
0.0881119
-0.115611
0.107917
-0.101419
0.125715
-0.0892269
0.141703
-0.0782981
0.156184
-0.0693737
0.169417
-0.0619088
0.18157
-0.0559252
0.19282
-0.05113
0.203353
-0.0475404
0.213306
-0.0446666
0.222776
-0.0425393
0.231805
-0.0406388
0.240366
-0.0384683
0.248195
-0.0344094
0.255035
-0.0291275
0.260915
-0.0244894
0.265866
-0.019981
0.26994
-0.0157712
0.273167
-0.0117507
0.275581
-0.00791363
0.277223
-0.00423235
0.278148
-0.000710554
0.27836
0.0027648
0.277827
0.00631279
0.27651
0.0102629
0.274044
0.0159094
0.269869
0.0240908
0.261224
0.05131
0.243617
0.0940054
-0.222464
0.247001
-0.132889
0.271931
-0.136274
0.29962
-0.142742
0.324262
-0.128528
0.348178
-0.123642
0.371544
-0.114995
0.392491
-0.101668
0.411857
-0.0906155
0.429314
-0.0780037
0.444766
-0.0659773
0.458438
-0.0550283
0.470135
-0.0439975
0.480104
-0.0340834
0.48832
-0.0244614
0.494633
-0.0148095
0.499376
-0.00588407
0.502146
0.00368949
0.503036
0.0127783
0.502185
0.0226397
0.499426
0.032037
0.494827
0.0422275
0.488632
0.0510636
0.481006
0.0591288
0.472385
0.0637545
0.46329
0.0638143
0.453983
0.0635738
0.444415
0.0651254
0.43459
0.0668881
0.424489
0.0693865
0.414002
0.0725167
0.403001
0.0761425
0.391183
0.0804749
0.378198
0.0857797
0.363547
0.0927079
0.346558
0.102463
0.325988
0.118727
0.300154
0.144569
0.262726
0.212133
0.211344
0.262216
-0.197993
-0.137329
-0.172309
-0.146125
-0.140373
-0.178251
-0.10815
-0.186148
-0.0748008
-0.195495
-0.0402687
-0.20382
-0.00661443
-0.201523
0.0239948
-0.18817
0.0515792
-0.172412
0.0765049
-0.156004
0.0985165
-0.137623
0.118001
-0.120904
0.135551
-0.106776
0.151406
-0.0941532
0.165872
-0.0838397
0.179203
-0.0752399
0.191553
-0.0682754
0.2031
-0.0626763
0.213967
-0.0584083
0.224279
-0.0549779
0.234123
-0.0523836
0.243525
-0.0500411
0.252437
-0.0473803
0.260678
-0.0426501
0.267926
-0.036375
0.274166
-0.0307301
0.279482
-0.025297
0.28387
-0.0201593
0.287378
-0.0152584
0.290036
-0.0105713
0.291884
-0.00608107
0.292951
-0.00177732
0.293251
0.00246511
0.292806
0.00675778
0.29148
0.0115889
0.289004
0.0183848
0.284729
0.028366
0.276352
0.0596869
0.259396
0.110962
-0.220137
0.246019
-0.158772
0.271971
-0.162226
0.301243
-0.172014
0.327185
-0.15447
0.352388
-0.148844
0.376846
-0.139453
0.399012
-0.123834
0.419257
-0.11086
0.437818
-0.0965649
0.454262
-0.0824209
0.468811
-0.0695776
0.48162
-0.0568066
0.49255
-0.0450134
0.501665
-0.0335767
0.509035
-0.0221793
0.514461
-0.0113097
0.518131
1.88552e-05
0.519956
0.0109541
0.519957
0.0226384
0.518074
0.0339195
0.514357
0.045945
0.508873
0.0565477
0.50196
0.0660415
0.493808
0.0719067
0.484936
0.0726862
0.475585
0.0729249
0.465767
0.0749429
0.455525
0.0771308
0.444946
0.079965
0.433995
0.083468
0.422663
0.0874746
0.410871
0.0922662
0.398425
0.0982257
0.384886
0.106247
0.369599
0.11775
0.35117
0.137156
0.327524
0.168216
0.292104
0.247553
0.241877
0.312443
-0.194448
-0.163018
-0.167651
-0.172921
-0.134276
-0.211627
-0.100754
-0.21967
-0.066225
-0.230023
-0.0304687
-0.239577
0.00411987
-0.236112
0.0353391
-0.219389
0.0632257
-0.200299
0.0882514
-0.18103
0.110111
-0.159482
0.12936
-0.140153
0.146675
-0.124091
0.162342
-0.109821
0.176701
-0.0981987
0.190041
-0.08858
0.202514
-0.080748
0.214258
-0.0744202
0.225398
-0.0695486
0.236023
-0.0656027
0.246197
-0.062558
0.255937
-0.0597805
0.265219
-0.0566621
0.273805
-0.0512362
0.281462
-0.0440325
0.288113
-0.0373807
0.293775
-0.0309597
0.298499
-0.0248829
0.302287
-0.0190459
0.3052
-0.0134841
0.307241
-0.00812226
0.308469
-0.00300602
0.308899
0.00203587
0.308486
0.00717064
0.307188
0.0128867
0.304649
0.0209238
0.30022
0.0327949
0.291927
0.0679796
0.275559
0.12733
-0.218623
0.245847
-0.185995
0.273252
-0.189632
0.304222
-0.202984
0.331371
-0.181619
0.357885
-0.175358
0.383619
-0.165188
0.406829
-0.147044
0.42834
-0.132371
0.447746
-0.11597
0.465176
-0.0998509
0.48084
-0.0852418
0.494565
-0.0705314
0.506432
-0.0568806
0.516561
-0.0437063
0.524883
-0.0305004
0.531351
-0.0177784
0.535995
-0.00462501
0.538766
0.00818304
0.539554
0.0218505
0.538384
0.0350894
0.535358
0.048971
0.530485
0.0614211
0.524017
0.0725093
0.516316
0.0796073
0.507707
0.0812953
0.498446
0.0821863
0.488591
0.0847975
0.478152
0.0875705
0.467178
0.0909382
0.455742
0.0949042
0.443799
0.099418
0.431398
0.104667
0.418434
0.11119
0.404767
0.119914
0.389907
0.132609
0.372814
0.154249
0.351574
0.189456
0.319632
0.279495
0.272074
0.360001
-0.191708
-0.189933
-0.163761
-0.200869
-0.128665
-0.246722
-0.0936245
-0.254711
-0.0576789
-0.265969
-0.0205676
-0.276688
0.0152081
-0.271888
0.0472584
-0.25144
0.0756542
-0.228695
0.100921
-0.206297
0.122807
-0.181368
0.141908
-0.159254
0.159023
-0.141206
0.174491
-0.125289
0.188706
-0.112414
0.202003
-0.101877
0.2145
-0.0932452
0.226368
-0.0862881
0.2377
-0.0808804
0.24858
-0.0764828
0.259035
-0.073013
0.269104
-0.069849
0.278725
-0.0662838
0.287693
-0.0602043
0.295738
-0.0520775
0.302774
-0.0444167
0.308812
-0.0369969
0.313878
-0.0299492
0.317967
-0.0231355
0.321123
-0.0166399
0.323393
-0.0103916
0.324783
-0.00439589
0.325326
0.00149203
0.324991
0.00750595
0.323676
0.0142022
0.321077
0.0235229
0.316511
0.0373604
0.308235
0.0762555
0.292457
0.143108
-0.218075
0.24666
-0.21458
0.27552
-0.218491
0.30819
-0.235654
0.336739
-0.210167
0.364745
-0.203364
0.391854
-0.192298
0.416311
-0.1715
0.438716
-0.154777
0.459277
-0.136531
0.477573
-0.118146
0.493974
-0.101643
0.508557
-0.0851141
0.521335
-0.0696586
0.532307
-0.0546786
0.541478
-0.039671
0.548872
-0.0251726
0.554345
-0.0100976
0.557878
0.00464952
0.55945
0.0202789
0.559027
0.0355121
0.556701
0.0512966
0.552521
0.0656009
0.546665
0.0783655
0.539457
0.0868157
0.531225
0.0895272
0.522173
0.0912384
0.512354
0.0946163
0.501844
0.0980803
0.490706
0.102076
0.478934
0.106677
0.466542
0.11181
0.453542
0.117668
0.439886
0.124846
0.425463
0.134337
0.410041
0.148032
0.392913
0.171377
0.372945
0.209423
0.344655
0.307785
0.300729
0.403928
-0.189655
-0.218353
-0.16035
-0.230174
-0.123483
-0.28359
-0.0868995
-0.291294
-0.0493051
-0.303563
-0.0106182
-0.315375
0.0266229
-0.309129
0.0596849
-0.284502
0.0887818
-0.257792
0.11449
-0.232005
0.136527
-0.203405
0.155604
-0.178332
0.172588
-0.15819
0.18788
-0.140581
0.20193
-0.126463
0.215104
-0.115051
0.227578
-0.105719
0.239496
-0.0982064
0.250952
-0.0923368
0.26203
-0.0875607
0.272757
-0.0837398
0.283099
-0.0801905
0.293034
-0.0762191
0.302367
-0.0695378
0.310817
-0.0605274
0.318224
-0.0518239
0.324638
-0.0434104
0.330028
-0.0353397
0.334442
-0.0275488
0.337876
-0.0200738
0.34036
-0.0128763
0.341937
-0.00597234
0.342594
0.00083443
0.342333
0.00776767
0.341047
0.0154876
0.338406
0.0261641
0.333687
0.0420788
0.325453
0.0844895
0.310266
0.158295
-0.218032
0.248243
-0.24479
0.278656
-0.248904
0.31323
-0.270228
0.343236
-0.240174
0.372524
-0.232652
0.401123
-0.220897
0.426764
-0.197141
0.450332
-0.178345
0.471901
-0.1581
0.491102
-0.137348
0.508393
-0.118934
0.523894
-0.100616
0.537412
-0.0831759
0.549137
-0.0664041
0.559216
-0.0497496
0.567349
-0.0333056
0.573642
-0.0163911
0.57795
0.000342201
0.580351
0.0178771
0.580737
0.0351264
0.579033
0.053001
0.575511
0.0691227
0.570238
0.0836387
0.563533
0.0935204
0.555651
0.0974096
0.54676
0.100129
0.537037
0.104339
0.526531
0.108587
0.515233
0.113373
0.503254
0.118656
0.490541
0.124522
0.477073
0.131136
0.462815
0.139104
0.447658
0.149494
0.431398
0.164292
0.413435
0.18934
0.393299
0.229559
0.367492
0.333592
0.327186
0.444234
-0.188255
-0.248131
-0.157482
-0.260946
-0.118649
-0.322422
-0.0801987
-0.329745
-0.0409409
-0.342821
-0.000409082
-0.355907
0.0383496
-0.347888
0.0726399
-0.318792
0.102611
-0.287762
0.128941
-0.258335
0.151269
-0.225733
0.1704
-0.197463
0.187329
-0.175119
0.202485
-0.155737
0.21637
-0.140349
0.229409
-0.128089
0.241804
-0.118115
0.253704
-0.110106
0.26525
-0.103883
0.27647
-0.0987806
0.28737
-0.0946393
0.297982
-0.0908022
0.308226
-0.0864639
0.317901
-0.0792125
0.326713
-0.069339
0.334519
-0.0596303
0.341284
-0.0501753
0.347039
-0.0410944
0.351759
-0.0322691
0.35547
-0.023785
0.358207
-0.0156132
0.359956
-0.00772093
0.360762
2.84043e-05
0.360588
0.00794199
0.359315
0.01676
0.35662
0.0288597
0.351815
0.0468835
0.343647
0.0926571
0.329029
0.172914
-0.218697
0.250472
-0.276565
0.282459
-0.280891
0.318962
-0.306731
0.350665
-0.271877
0.381579
-0.263567
0.411655
-0.250973
0.438437
-0.223923
0.463253
-0.203161
0.485874
-0.180721
0.506039
-0.157513
0.524141
-0.137036
0.540294
-0.116769
0.554644
-0.0975259
0.567253
-0.079013
0.577945
-0.0604412
0.586888
-0.0422486
0.593931
-0.0234342
0.599053
-0.0047801
0.602138
0.014792
0.603214
0.0340505
0.602248
0.0539674
0.599314
0.0720563
0.594628
0.0883248
0.588437
0.0997118
0.580953
0.104894
0.572359
0.108723
0.562744
0.113954
0.552191
0.119139
0.54083
0.124735
0.528615
0.130872
0.515608
0.137528
0.50178
0.144964
0.487045
0.153839
0.471268
0.165271
0.45421
0.18135
0.435322
0.208228
0.414167
0.250715
0.389368
0.358391
0.351747
0.481855
-0.187232
-0.279596
-0.154958
-0.29322
-0.114047
-0.363333
-0.0736653
-0.370127
-0.0324303
-0.384056
0.00995268
-0.39829
0.0504671
-0.388402
0.0861472
-0.354472
0.117182
-0.318797
0.144201
-0.285354
0.166975
-0.248507
0.186291
-0.216779
0.203254
-0.192082
0.218305
-0.170787
0.232045
-0.154089
0.24494
-0.140985
0.257221
-0.130395
0.269085
-0.12197
0.280624
-0.115422
0.291929
-0.110085
0.303012
-0.105722
0.313838
-0.101629
0.324343
-0.0969689
0.334353
-0.0892225
0.343528
-0.0785137
0.351701
-0.0678032
0.35885
-0.0573245
0.364947
-0.0471917
0.370005
-0.0373268
0.374003
-0.0277825
0.376966
-0.0185769
0.378937
-0.00969172
0.37988
-0.00091503
0.379802
0.00802029
0.378553
0.0180088
0.375842
0.0315707
0.370937
0.0517891
0.362852
0.100742
0.348864
0.186901
-0.219728
0.253312
-0.310149
0.287062
-0.314641
0.325603
-0.345272
0.358899
-0.305172
0.391427
-0.296095
0.42309
-0.282637
0.451397
-0.25223
0.477349
-0.229113
0.501051
-0.204423
0.522132
-0.178593
0.541154
-0.156058
0.558198
-0.133813
0.573181
-0.112509
0.586432
-0.0922643
0.597929
-0.0719382
0.607586
-0.0519055
0.615314
-0.0311618
0.621094
-0.0105602
0.624884
0.0110019
0.62667
0.0322647
0.626396
0.0542412
0.624139
0.0743137
0.620043
0.0924207
0.614352
0.105403
0.607255
0.111991
0.598929
0.117049
0.589454
0.12343
0.578958
0.129635
0.567483
0.13621
0.5551
0.143254
0.541812
0.150817
0.527605
0.159171
0.512444
0.169
0.49612
0.181594
0.478392
0.199078
0.458703
0.227917
0.43637
0.273048
0.411427
0.383334
0.375464
0.517819
-0.18663
-0.312694
-0.152618
-0.327233
-0.109579
-0.406372
-0.0670996
-0.412606
-0.023821
-0.427335
0.0206055
-0.442716
0.0630642
-0.430861
0.100239
-0.391647
0.132439
-0.350996
0.160356
-0.313271
0.183694
-0.271845
0.2033
-0.236385
0.220328
-0.20911
0.235358
-0.185816
0.248984
-0.167715
0.261739
-0.15374
0.273884
-0.14254
0.285653
-0.13374
0.297183
-0.126953
0.308521
-0.121423
0.319703
-0.116904
0.3307
-0.112626
0.341475
-0.107743
0.35179
-0.0995381
0.361312
-0.0880353
0.369849
-0.076341
0.377353
-0.064828
0.383816
-0.0536542
0.389179
-0.0426902
0.393483
-0.0320868
0.396709
-0.0218025
0.398876
-0.0118591
0.399995
-0.00203344
0.4
0.00801503
0.398801
0.019208
0.396064
0.0343074
0.391087
0.0567665
0.383152
0.108677
0.369816
0.200238
-0.221328
0.256607
-0.345429
0.29222
-0.350254
0.332919
-0.385971
0.368075
-0.340328
0.402357
-0.330377
0.435657
-0.315937
0.465385
-0.281958
0.492679
-0.256408
0.517442
-0.229186
0.539518
-0.200669
0.559384
-0.175924
0.577177
-0.151607
0.593005
-0.128337
0.606984
-0.106243
0.619116
-0.0840704
0.629389
-0.0621784
0.637813
-0.0395857
0.644309
-0.0170557
0.648778
0.00653264
0.651151
0.0298919
0.651523
0.0538684
0.649861
0.0759766
0.646338
0.0959427
0.641203
0.110538
0.634602
0.118592
0.626568
0.125082
0.617288
0.13271
0.60683
0.140093
0.59529
0.14775
0.582748
0.155796
0.569208
0.164357
0.554646
0.173733
0.539015
0.184631
0.522155
0.198454
0.503805
0.217428
0.48342
0.248302
0.46012
0.296348
0.434521
0.408933
0.399466
0.552874
-0.186294
-0.347727
-0.150636
-0.362891
-0.105221
-0.451786
-0.0605569
-0.457271
-0.0150181
-0.472873
0.0316853
-0.489419
0.0760959
-0.475271
0.11498
-0.430531
0.148478
-0.384494
0.177397
-0.342191
0.201393
-0.295841
0.221381
-0.256373
0.238621
-0.226351
0.253674
-0.200869
0.267227
-0.181269
0.27986
-0.166373
0.291868
-0.154547
0.303517
-0.145389
0.31497
-0.138405
0.326314
-0.132767
0.337558
-0.128148
0.348708
-0.123776
0.359684
-0.118719
0.370293
-0.110147
0.380137
-0.0978798
0.389023
-0.0852273
0.396883
-0.072688
0.403672
-0.0604433
0.40938
-0.0483977
0.413985
-0.0366918
0.417482
-0.0252993
0.419882
-0.0142596
0.421162
-0.00331306
0.421289
0.00788763
0.420129
0.0203681
0.417408
0.0370288
0.412388
0.061786
0.404567
0.116498
0.391936
0.212869
-0.223206
0.260432
-0.382654
0.298012
-0.387834
0.34101
-0.428969
0.378055
-0.377373
0.414113
-0.366435
0.449169
-0.350993
0.480445
-0.313234
0.509048
-0.28501
0.53505
-0.255188
0.558124
-0.223743
0.578968
-0.196768
0.597556
-0.170194
0.614107
-0.144889
0.628776
-0.120912
0.641465
-0.0967588
0.652443
-0.073157
0.661509
-0.0486517
0.668622
-0.024168
0.673756
0.00139845
0.676816
0.0268316
0.677787
0.0528974
0.67675
0.0770134
0.673814
0.0988786
0.669193
0.11516
0.663014
0.124771
0.655306
0.13279
0.646253
0.141763
0.635905
0.150441
0.624336
0.159319
0.611646
0.168486
0.597844
0.178159
0.582942
0.188635
0.566847
0.200726
0.549471
0.21583
0.530499
0.2364
0.509454
0.269347
0.485308
0.320494
0.459016
0.435225
0.424524
0.587365
-0.186407
-0.384527
-0.148682
-0.400616
-0.100896
-0.499573
-0.0538458
-0.504321
-0.00599784
-0.520721
0.0430411
-0.538458
0.0897288
-0.521959
0.130397
-0.471199
0.165375
-0.419472
0.195398
-0.372214
0.220176
-0.320619
0.240629
-0.276826
0.258127
-0.243849
0.273266
-0.216008
0.286772
-0.194774
0.299311
-0.178913
0.311197
-0.166433
0.322707
-0.156899
0.334067
-0.149765
0.345376
-0.144077
0.356652
-0.139424
0.367893
-0.135017
0.379064
-0.12989
0.389924
-0.121007
0.400068
-0.108023
0.409282
-0.094442
0.417486
-0.0808915
0.424631
-0.0675882
0.430669
-0.0544362
0.43558
-0.0416023
0.439344
-0.0290639
0.441964
-0.0168793
0.443432
-0.00478081
0.443682
0.00763741
0.442587
0.0214634
0.439875
0.03974
0.434847
0.0668143
0.427228
0.124117
0.415287
0.224809
-0.225443
0.264783
-0.421995
0.304381
-0.427433
0.349792
-0.474379
0.388784
-0.416365
0.42677
-0.404421
0.463784
-0.388008
0.496576
-0.346026
0.526624
-0.315058
0.553989
-0.282553
0.578167
-0.247921
0.599897
-0.218498
0.619342
-0.189639
0.636526
-0.162073
0.651884
-0.136271
0.665347
-0.110221
0.676906
-0.0847159
0.686593
-0.0583386
0.694296
-0.0318713
0.699928
-0.00423328
0.703576
0.0231829
0.70518
0.0512937
0.704678
0.0775158
0.70231
0.101246
0.698222
0.119248
0.692519
0.130474
0.685219
0.140091
0.67637
0.150611
0.666148
0.160663
0.654622
0.170846
0.641818
0.18129
0.627801
0.192175
0.612551
0.203885
0.596055
0.217222
0.578135
0.23375
0.558515
0.256019
0.536801
0.291061
0.511965
0.345331
0.484996
0.462194
0.451024
0.621337
-0.18664
-0.42333
-0.147053
-0.440203
-0.0965918
-0.550034
-0.0470568
-0.553856
0.00329019
-0.571068
0.0549093
-0.590078
0.103888
-0.570938
0.146553
-0.513865
0.183051
-0.45597
0.214346
-0.403508
0.239975
-0.346248
0.261027
-0.297878
0.278874
-0.261696
0.294164
-0.231298
0.307702
-0.208312
0.320154
-0.191365
0.331912
-0.178191
0.343311
-0.168297
0.354555
-0.16101
0.365785
-0.155307
0.377051
-0.150689
0.388374
-0.146341
0.399694
-0.14121
0.410777
-0.13209
0.421214
-0.11846
0.430735
-0.103963
0.439266
-0.0894226
0.446733
-0.0750552
0.4531
-0.060803
0.458306
-0.0468085
0.462356
-0.033114
0.46523
-0.0197535
0.466872
-0.00642289
0.467272
0.00723748
0.46626
0.0224753
0.463578
0.0424224
0.458571
0.0718215
0.451124
0.131564
0.43993
0.236003
-0.228098
0.269597
-0.463494
0.31132
-0.469155
0.359237
-0.522296
0.40029
-0.457418
0.440397
-0.444527
0.479357
-0.426968
0.513851
-0.380519
0.545452
-0.346659
0.574104
-0.311205
0.599374
-0.273192
0.622097
-0.241222
0.642421
-0.209962
0.660491
-0.180143
0.676483
-0.152262
0.690542
-0.124281
0.702695
-0.0968696
0.712946
-0.0685889
0.72122
-0.0401454
0.727523
-0.0105364
0.731705
0.0190012
0.733816
0.0491825
0.733915
0.0774162
0.732058
0.103103
0.728479
0.122827
0.723221
0.135732
0.716295
0.147016
0.707751
0.159155
0.697689
0.170725
0.686187
0.182347
0.673305
0.194172
0.659105
0.206375
0.643567
0.219424
0.626629
0.23416
0.608185
0.252194
0.58796
0.276245
0.565591
0.313429
0.540063
0.370859
0.512515
0.489741
0.479075
0.654778
-0.187123
-0.464305
-0.145384
-0.481942
-0.0922229
-0.603194
-0.0400504
-0.606028
0.0129452
-0.624064
0.0672592
-0.644392
0.11875
-0.622428
0.163495
-0.55861
0.201707
-0.494182
0.234333
-0.436134
0.260959
-0.372875
0.282655
-0.319573
0.300901
-0.279942
0.316424
-0.246821
0.330015
-0.221903
0.342448
-0.203799
0.354096
-0.189839
0.365364
-0.179565
0.376486
-0.172132
0.387632
-0.166452
0.398858
-0.161915
0.410204
-0.157687
0.421648
-0.152654
0.43295
-0.143391
0.443631
-0.129142
0.453433
-0.113765
0.462273
-0.0982621
0.470061
-0.0828439
0.476749
-0.0674912
0.482275
-0.0523336
0.486605
-0.0374441
0.489704
-0.0228526
0.49157
-0.00828919
0.492108
0.00669911
0.491195
0.0233884
0.488566
0.0450515
0.483598
0.0767894
0.476387
0.138776
0.465971
0.246419
-0.230996
0.274709
-0.507207
0.318763
-0.51321
0.369363
-0.572896
0.412644
-0.500699
0.454908
-0.486791
0.495889
-0.467949
0.532235
-0.416865
0.565442
-0.379866
0.595463
-0.341226
0.621961
-0.29969
0.645822
-0.265083
0.666996
-0.231136
0.68583
-0.198977
0.702557
-0.168989
0.717218
-0.138941
0.729981
-0.109633
0.740779
-0.0793869
0.749629
-0.0489962
0.756411
-0.0173184
0.761168
0.0142442
0.763796
0.0465545
0.764378
0.076835
0.763066
0.104414
0.759975
0.125919
0.755208
0.140499
0.748656
0.153569
0.740399
0.167411
0.730527
0.180598
0.719085
0.193789
0.706178
0.20708
0.691812
0.220741
0.676
0.235236
0.65868
0.251481
0.639733
0.271141
0.618925
0.297053
0.595855
0.336499
0.5697
0.397013
0.541636
0.517806
0.508712
0.687702
-0.187799
-0.507502
-0.143851
-0.52589
-0.0878184
-0.659227
-0.0328011
-0.661045
0.0229715
-0.679836
0.0801005
-0.701521
0.134318
-0.676645
0.181254
-0.605547
0.221315
-0.534243
0.255387
-0.470206
0.283068
-0.400555
0.305499
-0.342004
0.324266
-0.29871
0.340058
-0.262613
0.353775
-0.235619
0.366217
-0.216242
0.377803
-0.201425
0.388952
-0.190715
0.399949
-0.183129
0.410978
-0.177481
0.422149
-0.173087
0.4335
-0.169038
0.445036
-0.16419
0.4565
-0.154856
0.4674
-0.140042
0.477478
-0.123842
0.486603
-0.107387
0.494709
-0.0909504
0.501697
-0.074479
0.507527
-0.0581632
0.512138
-0.0420553
0.515507
-0.0262219
0.517571
-0.0103526
0.518262
0.0060075
0.51747
0.0241807
0.514905
0.0476162
0.510039
0.0816553
0.503056
0.14576
0.493398
0.256077
-0.234264
0.280378
-0.553321
0.326874
-0.559706
0.380143
-0.626164
0.425896
-0.546452
0.470307
-0.531202
0.513558
-0.511201
0.551739
-0.455046
0.586651
-0.414778
0.618207
-0.372782
0.646009
-0.327491
0.670836
-0.28991
0.693046
-0.253347
0.712637
-0.218567
0.73008
-0.186432
0.74548
-0.154342
0.758783
-0.122936
0.770168
-0.0907721
0.77953
-0.0583575
0.786878
-0.0246667
0.792096
0.00902615
0.795208
0.0434424
0.796327
0.0757162
0.795444
0.105298
0.792828
0.128535
0.788484
0.144843
0.782321
0.159733
0.774389
0.175343
0.764734
0.190253
0.753437
0.205086
0.740504
0.220013
0.726007
0.235237
0.709939
0.251305
0.692252
0.269167
0.672846
0.290547
0.651423
0.318475
0.627739
0.360183
0.600951
0.423801
0.572359
0.546398
0.539983
0.720078
-0.188726
-0.553039
-0.142393
-0.572223
-0.08327
-0.71835
-0.0253425
-0.718973
0.0334366
-0.738616
0.0935861
-0.76167
0.15055
-0.733609
0.199939
-0.654935
0.241915
-0.576219
0.277592
-0.505882
0.306442
-0.429406
0.329709
-0.365271
0.349031
-0.318032
0.365169
-0.278751
0.37906
-0.24951
0.391534
-0.228716
0.403094
-0.212985
0.414131
-0.201752
0.425002
-0.193999
0.435917
-0.188396
0.447007
-0.184177
0.458337
-0.180368
0.469941
-0.175794
0.481551
-0.166465
0.492656
-0.151147
0.502959
-0.134145
0.512345
-0.116773
0.520726
-0.0993313
0.528025
-0.0817784
0.534141
-0.0642789
0.539046
-0.0469602
0.542653
-0.0298293
0.54495
-0.0126498
0.545835
0.00512301
0.545142
0.0248732
0.542707
0.0500518
0.537936
0.0864257
0.531257
0.152439
0.522374
0.26496
-0.237796
0.286438
-0.601964
0.335396
-0.608664
0.391738
-0.682507
0.43978
-0.594494
0.486717
-0.578139
0.532217
-0.556701
0.572503
-0.495332
0.609126
-0.451402
0.642254
-0.40591
0.671374
-0.356611
0.697477
-0.316013
0.720602
-0.276471
0.741133
-0.239099
0.759325
-0.204623
0.775351
-0.170368
0.789276
-0.136861
0.80118
-0.102676
0.811028
-0.0682056
0.818817
-0.0324555
0.824523
0.00332005
0.828144
0.0398217
0.829645
0.0742155
0.829223
0.105719
0.827075
0.130683
0.823159
0.148758
0.817424
0.165467
0.809813
0.182954
0.800378
0.199688
0.789187
0.216277
0.776299
0.232901
0.761709
0.249827
0.745421
0.267593
0.727401
0.287187
0.707539
0.310409
0.685593
0.340421
0.661285
0.384492
0.633902
0.451184
0.604828
0.575472
0.572957
0.751949
-0.189792
-0.601044
-0.140953
-0.621062
-0.0786078
-0.780695
-0.0176109
-0.77997
0.0443202
-0.800547
0.10767
-0.82502
0.167658
-0.793597
0.219534
-0.706811
0.263599
-0.620285
0.300943
-0.543226
0.331073
-0.459535
0.355259
-0.389457
0.375213
-0.337987
0.391773
-0.295311
0.405894
-0.263631
0.418466
-0.241288
0.430003
-0.224522
0.440971
-0.21272
0.451724
-0.204752
0.46254
-0.199211
0.473523
-0.195161
0.48483
-0.191674
0.496465
-0.187429
0.508189
-0.178189
0.51947
-0.162427
0.529967
-0.144642
0.539611
-0.126418
0.548258
-0.107978
0.555817
-0.0893378
0.562246
-0.0707076
0.567417
-0.0521318
0.571292
-0.0337037
0.573792
-0.0151506
0.57486
0.00405519
0.57434
0.0253932
0.572009
0.0523828
0.567414
0.0910211
0.561013
0.15884
0.552922
0.273051
-0.241659
0.292912
-0.653217
0.344539
-0.66029
0.403923
-0.741891
0.454689
-0.64526
0.50405
-0.6275
0.552074
-0.604726
0.594354
-0.537612
0.632923
-0.489971
0.667733
-0.44072
0.698328
-0.387206
0.72559
-0.343275
0.749862
-0.300743
0.771261
-0.260498
0.79024
-0.223603
0.806901
-0.187029
0.821465
-0.151425
0.833876
-0.115087
0.844213
-0.0785424
0.852516
-0.0407589
0.858634
-0.00279793
0.862648
0.035808
0.864589
0.0722745
0.864579
0.105729
0.862842
0.13242
0.859355
0.152246
0.85398
0.170842
0.846692
0.190243
0.837547
0.208832
0.826523
0.227301
0.813663