/*--------------------------------*- C++ -*----------------------------------*\
| =========                 |                                                 |
| \\      /  F ield         | OpenFOAM: The Open Source CFD Toolbox           |
|  \\    /   O peration     | Version:  3.0.0                                 |
|   \\  /    A nd           | Web:      www.OpenFOAM.org                      |
|    \\/     M anipulation  |                                                 |
\*---------------------------------------------------------------------------*/
FoamFile
{
    version     2.0;
    format      ascii;
    class       volVectorField;
    location    "341";
    object      U;
}
// * * * * * * * * * * * * * * * * * * * * * * * * * * * * * * * * * * * * * //

dimensions      [0 1 -1 0 0 0 0];

internalField   nonuniform List<vector> 
10720
(
(-0.199247 31.7345 4.74289e-18)
(1.83395 33.9828 -4.43602e-18)
(4.31481 36.1165 0)
(7.11271 37.6839 -3.09876e-16)
(10.1559 38.7986 3.41251e-16)
(13.3709 39.4268 2.47964e-16)
(16.5924 39.4669 3.79537e-16)
(19.726 38.9703 0)
(22.6926 38.0114 0)
(25.4151 36.6299 0)
(27.8711 34.9375 1.25508e-16)
(30.0175 32.9565 0)
(31.8521 30.7378 2.01555e-15)
(33.3928 28.3485 0)
(34.6349 25.8244 0)
(35.5942 23.2235 0)
(36.2606 20.5721 -3.29323e-15)
(36.6398 17.9249 -4.93739e-15)
(36.7131 15.305 4.34016e-15)
(36.4911 12.7689 0)
(35.9541 10.3473 3.40896e-15)
(35.1378 8.10717 -6.53744e-15)
(34.0888 6.09354 3.16283e-15)
(32.9175 4.36271 -9.32615e-17)
(31.8255 2.95635 0)
(30.8977 1.81755 1.08744e-15)
(30.0341 0.855847 1.63677e-17)
(29.1332 0.0290698 -4.14037e-16)
(28.1576 -0.68515 -1.35782e-15)
(27.1041 -1.30067 -4.30759e-15)
(25.9757 -1.82315 1.55429e-15)
(24.775 -2.25504 2.00635e-15)
(23.4985 -2.59657 7.91685e-16)
(22.1357 -2.8476 -1.97925e-15)
(20.6345 -3.00259 3.68376e-15)
(18.9564 -3.05881 4.11639e-17)
(16.7775 -2.95875 -9.55051e-17)
(14.2581 -2.69979 -6.17706e-14)
(8.61689 -2.10713 9.29704e-14)
(-1.85936 29.2926 -5.48835e-18)
(-3.26717 26.4977 -2.29741e-17)
(-4.35351 23.314 7.78979e-17)
(-4.96996 19.5519 -2.17948e-16)
(-4.95233 15.629 -6.34944e-16)
(-4.23876 11.6608 1.02205e-15)
(-2.84478 7.89756 4.6629e-15)
(-0.927144 4.6399 2.62912e-15)
(1.20426 2.06675 0)
(3.35374 -0.0798991 0)
(5.62684 -1.84301 4.5105e-15)
(7.84113 -3.09985 1.63565e-15)
(9.84046 -3.89399 -2.67264e-15)
(11.5978 -4.35001 2.24207e-15)
(13.1426 -4.58198 3.8344e-15)
(14.5092 -4.66197 2.54623e-15)
(15.7253 -4.6423 3.40779e-15)
(16.8211 -4.55639 2.38312e-15)
(17.8276 -4.42788 0)
(18.7679 -4.26305 0)
(19.6609 -4.06566 -4.07413e-15)
(20.5187 -3.82737 -2.24445e-16)
(21.3445 -3.53445 3.5605e-15)
(22.1101 -3.15763 -3.03377e-15)
(22.7523 -2.69193 2.2624e-17)
(23.2526 -2.17379 0)
(23.6353 -1.62907 1.20313e-15)
(23.9159 -1.07384 0)
(24.0997 -0.519348 0)
(24.1912 0.0232332 1.04462e-15)
(24.1821 0.544007 0)
(24.063 1.036 -3.98813e-15)
(23.8485 1.49387 -7.6951e-15)
(23.5561 1.91276 -3.83195e-14)
(23.1853 2.28895 1.53786e-14)
(22.7309 2.62303 -5.98801e-17)
(22.0746 2.90793 0)
(21.1616 3.10725 3.33777e-14)
(18.4858 3.27639 3.83831e-14)
(7.30063 27.656 -1.67842e-17)
(9.44107 29.3737 1.14403e-17)
(12.0122 30.8895 0)
(14.9352 32.0975 0)
(18.04 32.9455 -9.36201e-17)
(21.331 33.3742 -2.37811e-16)
(24.6826 33.3436 0)
(27.9516 32.8859 0)
(31.081 32.0182 5.01078e-16)
(33.9833 30.8024 0)
(36.5962 29.2963 1.9638e-15)
(38.926 27.6227 0)
(40.9612 25.8153 7.02581e-16)
(42.6965 23.8905 -6.93105e-16)
(44.1043 21.8783 1.3746e-15)
(45.1732 19.8018 -2.74447e-15)
(45.9086 17.6736 2.99206e-15)
(46.3044 15.5219 2.66267e-15)
(46.3657 13.3591 2.5855e-15)
(46.0813 11.2208 1.54834e-16)
(45.4575 9.13691 -2.66591e-15)
(44.493 7.16633 2.47097e-15)
(43.2196 5.35325 -1.36897e-16)
(41.6803 3.75794 0)
(39.9925 2.43145 0)
(38.3072 1.31774 0)
(36.6792 0.336735 8.26207e-17)
(35.0948 -0.523995 -1.63978e-17)
(33.5505 -1.26915 9.81598e-16)
(32.037 -1.90704 3.6848e-17)
(30.5354 -2.44169 -2.90848e-17)
(29.0257 -2.87643 -5.28454e-17)
(27.4873 -3.21395 5.01393e-16)
(25.903 -3.45661 6.78919e-16)
(24.2275 -3.60351 2.62468e-17)
(22.4395 -3.65466 8.71584e-15)
(20.2562 -3.56431 0)
(17.9181 -3.338 1.73481e-14)
(12.3127 -2.52701 4.87194e-14)
(5.45369 25.8023 2.29735e-17)
(3.81323 23.7171 -7.47984e-17)
(2.30504 21.2523 -7.98222e-16)
(1.0822 18.4167 9.25687e-16)
(0.327285 15.3004 0)
(0.135554 12.0293 -1.74328e-15)
(0.558617 8.78621 -1.19228e-15)
(1.5595 5.8266 -9.6425e-15)
(2.98527 3.30463 4.04876e-15)
(4.66735 1.16037 -3.61914e-15)
(6.51253 -0.53984 4.39803e-15)
(8.39202 -1.74029 -1.24415e-15)
(10.186 -2.52863 0)
(11.8409 -3.02119 -9.03707e-16)
(13.3467 -3.31135 4.64446e-17)
(14.7127 -3.45627 -2.16942e-15)
(15.9504 -3.50366 0)
(17.0793 -3.48353 0)
(18.1218 -3.41782 -2.65835e-16)
(19.1 -3.30795 2.54129e-16)
(20.0293 -3.15464 -3.38661e-15)
(20.9221 -2.94382 -4.09004e-16)
(21.7808 -2.6575 1.91115e-16)
(22.5836 -2.26098 2.70788e-15)
(23.2786 -1.7666 -2.5292e-15)
(23.8418 -1.23882 -2.22656e-15)
(24.2879 -0.705848 0)
(24.6292 -0.178993 0)
(24.8698 0.335164 0)
(25.0099 0.828204 8.3558e-18)
(25.0674 1.29233 0)
(25.0601 1.72216 0)
(24.9812 2.11681 1.31482e-14)
(24.8221 2.47557 1.2797e-14)
(24.5714 2.80018 -1.25821e-14)
(24.237 3.09623 1.25152e-14)
(23.719 3.36248 -2.49209e-14)
(23.2125 3.59609 -2.52775e-14)
(21.2361 3.65891 -2.66361e-14)
(8.19814 25.4281 -4.62702e-18)
(9.75671 26.9397 -4.85855e-17)
(11.6238 28.3855 3.56864e-17)
(13.7433 29.6914 7.26403e-18)
(16.0495 30.7352 -8.55078e-17)
(18.5427 31.4914 3.48017e-16)
(21.1421 31.9239 -2.58168e-16)
(23.7666 31.9989 -3.26674e-16)
(26.3595 31.7185 1.87418e-19)
(28.8627 31.1 -4.87275e-16)
(31.2248 30.1651 4.2057e-16)
(33.4166 28.9418 -1.23022e-15)
(35.4158 27.4679 -5.66396e-16)
(37.2068 25.7822 0)
(38.8015 23.9119 -1.42487e-15)
(40.2044 21.8878 2.83785e-15)
(41.406 19.7395 0)
(42.3817 17.5123 -5.25035e-15)
(43.1195 15.2357 -2.61972e-15)
(43.5891 12.9612 2.96114e-16)
(43.7765 10.7255 -2.9382e-16)
(43.6589 8.59537 -1.26924e-16)
(43.2377 6.61923 -1.76034e-15)
(42.5222 4.85808 8.52885e-16)
(41.5699 3.35724 0)
(40.4652 2.06063 6.74652e-16)
(39.2347 0.898685 -7.57934e-17)
(37.8785 -0.129558 0)
(36.4186 -1.02191 8.2973e-16)
(34.8852 -1.78387 1.35422e-15)
(33.2993 -2.4195 -1.92401e-15)
(31.6729 -2.93378 -1.17533e-15)
(30.0057 -3.33245 -4.49193e-17)
(28.2902 -3.62039 6.76826e-16)
(26.4859 -3.79915 2.21138e-15)
(24.5714 -3.86713 -7.45362e-15)
(22.2848 -3.78697 0)
(19.8673 -3.52015 1.3968e-14)
(14.6891 -2.79777 -7.24543e-14)
(6.89724 23.815 -2.89324e-17)
(5.7318 22.0278 -8.5945e-17)
(4.71083 19.8994 3.3428e-16)
(3.84012 17.4908 0)
(3.27939 14.8804 5.65019e-16)
(3.08304 12.1272 0)
(3.29589 9.34831 3.6392e-15)
(3.91509 6.72947 2.41282e-15)
(4.88647 4.39812 2.75745e-15)
(6.14236 2.37086 0)
(7.59725 0.704142 -4.30395e-15)
(9.13345 -0.581102 -9.48904e-16)
(10.6577 -1.53385 4.31421e-15)
(12.1141 -2.21954 0)
(13.4787 -2.6943 -2.13847e-15)
(14.7468 -3.0038 -6.59436e-16)
(15.9203 -3.18848 2.93115e-15)
(17.0091 -3.27823 1.60517e-15)
(18.0278 -3.29486 4.81909e-16)
(18.9927 -3.24681 -2.43314e-16)
(19.9158 -3.13886 3.08835e-15)
(20.8059 -2.96466 0)
(21.6639 -2.71242 0)
(22.4715 -2.36168 2.16515e-17)
(23.1866 -1.92531 0)
(23.7862 -1.45006 4.44433e-15)
(24.2799 -0.955279 -6.58818e-17)
(24.6786 -0.449215 -4.89632e-16)
(24.9858 0.0600297 0)
(25.2034 0.562175 -8.94721e-16)
(25.3352 1.04822 1.75247e-15)
(25.387 1.51242 0)
(25.3622 1.94971 -6.59972e-15)
(25.262 2.35481 0)
(25.0762 2.72572 0)
(24.8055 3.06316 3.8813e-17)
(24.3412 3.36714 3.59065e-17)
(23.8089 3.59892 2.53015e-14)
(22.0452 3.66668 5.16526e-14)
(10.8916 23.2822 -2.55666e-17)
(12.3377 24.5728 -3.55278e-17)
(14.0458 25.8078 4.73231e-17)
(15.986 26.9124 4.32845e-17)
(18.1005 27.7953 0)
(20.3946 28.4364 0)
(22.8055 28.7951 -3.57837e-16)
(25.2662 28.8403 5.19379e-16)
(27.727 28.5678 0)
(30.1302 27.9855 -6.92018e-16)
(32.4231 27.1115 -9.83869e-16)
(34.5664 25.975 -8.95216e-16)
(36.526 24.6136 1.14004e-15)
(38.28 23.0624 1.04149e-15)
(39.81 21.3554 0)
(41.0895 19.5341 1.64857e-15)
(42.1004 17.6346 5.77762e-16)
(42.8438 15.6839 4.64316e-15)
(43.3223 13.7077 2.76842e-16)
(43.544 11.7359 -2.75017e-16)
(43.5182 9.80057 2.25017e-15)
(43.2602 7.94705 -3.64892e-16)
(42.7963 6.21613 1.93833e-15)
(42.1595 4.65247 7.54183e-16)
(41.4009 3.28784 -4.25441e-17)
(40.5743 2.08398 -6.08536e-16)
(39.68 0.985336 4.04358e-18)
(38.6833 -0.0122384 -4.05624e-18)
(37.5654 -0.904517 -7.90369e-16)
(36.3225 -1.69136 -1.64041e-17)
(34.9562 -2.36865 9.21496e-16)
(33.4743 -2.93225 -1.05593e-15)
(31.8847 -3.38005 -3.63321e-16)
(30.1936 -3.71121 5.14587e-17)
(28.3765 -3.92402 -1.99858e-15)
(26.4213 -4.01205 0)
(24.0907 -3.94281 -9.421e-15)
(21.5871 -3.63043 -1.21251e-14)
(16.6727 -2.95839 2.99635e-14)
(9.65144 21.9171 -4.24604e-17)
(8.51579 20.4186 1.34814e-16)
(7.48151 18.6354 5.12933e-16)
(6.5738 16.5988 0)
(5.93031 14.3792 -5.11827e-16)
(5.59325 12.0157 0)
(5.60044 9.59955 -3.07471e-15)
(5.95584 7.28728 -1.03398e-16)
(6.61841 5.17224 2.07039e-15)
(7.54559 3.27879 1.86963e-15)
(8.6741 1.66668 4.44679e-17)
(9.91678 0.364 3.1854e-15)
(11.2032 -0.649915 -2.17497e-15)
(12.4802 -1.41441 6.86874e-16)
(13.7151 -1.97011 2.47934e-15)
(14.8921 -2.357 2.85119e-15)
(16.0044 -2.61022 -2.65318e-15)
(17.0523 -2.75882 2.35438e-18)
(18.0431 -2.82479 0)
(18.987 -2.81986 3.29776e-15)
(19.8926 -2.74938 1.84197e-16)
(20.7659 -2.60988 -2.95449e-15)
(21.6064 -2.39218 0)
(22.3983 -2.08104 2.01975e-17)
(23.1066 -1.68377 0)
(23.7086 -1.23775 -2.01972e-15)
(24.2094 -0.765513 0)
(24.6185 -0.279093 4.58779e-16)
(24.9399 0.211204 -2.03171e-17)
(25.1759 0.694669 1.33078e-17)
(25.3307 1.16241 -1.57893e-15)
(25.4097 1.60698 -5.04376e-17)
(25.4165 2.0233 0)
(25.3538 2.40844 6.08746e-15)
(25.2129 2.76255 9.52037e-17)
(24.9946 3.08598 -1.21134e-14)
(24.5969 3.38069 4.89135e-14)
(24.1142 3.58131 9.27441e-17)
(22.5295 3.64045 0)
(12.3977 21.646 -3.75895e-17)
(13.6223 22.7921 -2.91049e-17)
(15.0786 23.9132 9.41295e-17)
(16.7254 24.9462 -2.33753e-16)
(18.5132 25.8068 3.88777e-17)
(20.4642 26.4873 -1.08276e-17)
(22.5264 26.9494 1.37907e-16)
(24.6475 27.159 0)
(26.7956 27.1068 6.89209e-16)
(28.9219 26.7886 3.9734e-16)
(30.9843 26.2078 0)
(32.9485 25.3775 8.63596e-16)
(34.7818 24.3172 -4.58742e-16)
(36.4585 23.0477 1.22747e-15)
(37.9573 21.5907 0)
(39.26 19.9686 -2.1942e-15)
(40.361 18.1958 2.00108e-15)
(41.2432 16.3059 -1.74771e-16)
(41.8913 14.3354 0)
(42.2911 12.3306 2.13398e-15)
(42.4355 10.3376 -2.16324e-15)
(42.327 8.414 -1.05596e-16)
(41.9867 6.61192 -1.56772e-15)
(41.4528 4.98153 -1.41294e-15)
(40.786 3.55686 0)
(40.0529 2.30865 0)
(39.2769 1.18334 -1.2749e-16)
(38.4434 0.166733 -1.26484e-17)
(37.5392 -0.743242 7.28312e-16)
(36.5536 -1.55114 -1.53104e-17)
(35.4694 -2.25683 1.52676e-17)
(34.2678 -2.857 9.85795e-16)
(32.9306 -3.34739 0)
(31.4451 -3.72291 -1.36998e-15)
(29.7803 -3.97704 9.97853e-18)
(27.9254 -4.09636 0)
(25.6662 -4.04952 -2.77278e-17)
(23.1755 -3.71179 0)
(18.4734 -3.05806 -2.59898e-14)
(11.3435 20.4406 5.73377e-17)
(10.3776 19.131 -2.95644e-16)
(9.47694 17.5726 3.1779e-16)
(8.65675 15.7972 4.36585e-16)
(8.0398 13.8703 -1.77242e-15)
(7.6577 11.8092 -2.17666e-15)
(7.54802 9.68481 2.63397e-15)
(7.72596 7.62742 -3.20236e-15)
(8.16934 5.71113 -1.60601e-15)
(8.85276 3.96404 -1.46068e-15)
(9.72737 2.43994 2.80092e-15)
(10.7295 1.16567 -2.7072e-15)
(11.8057 0.13177 -1.24337e-15)
(12.91 -0.685515 1.20433e-15)
(14.0089 -1.31163 -2.76857e-15)
(15.0822 -1.77664 5.16236e-16)
(16.118 -2.10731 0)
(17.1106 -2.32733 -2.21549e-15)
(18.0613 -2.45555 8.23486e-16)
(18.975 -2.50407 -3.42136e-15)
(19.8567 -2.47863 0)
(20.7094 -2.37808 2.56091e-15)
(21.5312 -2.19619 2.22211e-15)
(22.3076 -1.92322 -2.03079e-15)
(23.0086 -1.56516 0)
(23.612 -1.15311 -1.90803e-15)
(24.1186 -0.710407 0)
(24.5358 -0.249268 0)
(24.8668 0.220369 0)
(25.1138 0.688026 7.8804e-16)
(25.2805 1.14437 0)
(25.3721 1.58195 0)
(25.3922 1.99585 -5.884e-15)
(25.344 2.38171 -5.76101e-15)
(25.2201 2.73792 0)
(25.0227 3.0623 -1.1487e-14)
(24.658 3.35607 6.33329e-17)
(24.2167 3.54007 0)
(22.8155 3.58715 -2.29938e-14)
(13.9038 20.2085 5.46186e-17)
(15.0153 21.2244 -4.03298e-17)
(16.332 22.2247 0)
(17.8158 23.1504 6.22578e-18)
(19.4193 23.9274 1.49242e-16)
(21.1743 24.5536 1.02487e-17)
(23.0353 24.9921 4.87927e-17)
(24.96 25.2122 -2.57242e-16)
(26.9256 25.2017 -1.06712e-16)
(28.8914 24.9521 6.46975e-16)
(30.8203 24.4614 -2.45797e-16)
(32.6818 23.7354 5.88984e-16)
(34.4421 22.787 2.93616e-16)
(36.0728 21.6324 1.52998e-16)
(37.5489 20.2916 0)
(38.8477 18.7884 -4.56401e-16)
(39.9431 17.1578 -1.02769e-15)
(40.8145 15.4345 -3.67294e-15)
(41.4486 13.6489 1.05666e-15)
(41.8391 11.832 -1.37971e-15)
(41.9834 10.019 -2.11504e-16)
(41.8872 8.25232 0)
(41.5687 6.57596 1.40938e-15)
(41.061 5.03315 8.74218e-17)
(40.417 3.65665 -3.57381e-17)
(39.6955 2.43253 -4.78647e-16)
(38.9257 1.32163 1.05028e-16)
(38.107 0.312463 1.99687e-16)
(37.2391 -0.594623 -6.83025e-16)
(36.3247 -1.4032 -2.82242e-17)
(35.359 -2.11511 7.773e-16)
(34.3284 -2.72933 8.35516e-16)
(33.2092 -3.24323 0)
(31.9712 -3.65135 -6.8815e-17)
(30.5593 -3.94437 1.96148e-15)
(28.9393 -4.10194 0)
(26.8912 -4.08984 1.6738e-14)
(24.5625 -3.74988 0)
(20.1274 -3.12232 2.34796e-14)
(12.9379 19.1448 -5.56221e-17)
(12.0495 17.9967 1.32649e-16)
(11.2073 16.6281 0)
(10.4274 15.0655 0)
(9.8186 13.3705 7.89719e-16)
(9.4027 11.5509 3.77157e-15)
(9.21417 9.66428 0)
(9.26846 7.82055 -2.57241e-15)
(9.55461 6.08245 -2.52786e-15)
(10.0559 4.47821 2.49565e-15)
(10.7325 3.05124 -6.09549e-17)
(11.5379 1.82709 1.13649e-15)
(12.4327 0.802487 2.57749e-17)
(13.3795 -0.0360126 3.14988e-15)
(14.3477 -0.702838 2.95504e-15)
(15.3167 -1.21899 -2.83276e-15)
(16.2718 -1.60429 4.30271e-16)
(17.2038 -1.87755 -8.19378e-16)
(18.1089 -2.05465 3.89201e-16)
(18.9876 -2.1469 2.47588e-15)
(19.8412 -2.16037 3.33935e-16)
(20.6702 -2.09568 -2.92652e-16)
(21.4708 -1.94862 -1.92077e-15)
(22.2297 -1.71294 0)
(22.9206 -1.39378 1.16784e-16)
(23.5221 -1.01642 3.47318e-15)
(24.0315 -0.60325 -2.59495e-17)
(24.454 -0.166902 2.5692e-17)
(24.792 0.282195 0)
(25.0471 0.732944 -7.39085e-16)
(25.2227 1.17538 0)
(25.3233 1.60151 0)
(25.3523 2.0054 5.43913e-15)
(25.3127 2.38218 5.5295e-15)
(25.1977 2.72996 0)
(25.0093 3.04509 1.06955e-14)
(24.6597 3.32839 -4.32473e-14)
(24.2351 3.48941 1.62019e-16)
(22.9787 3.5133 2.1067e-14)
(15.1057 18.9895 6.74972e-18)
(16.1052 19.9023 -3.9333e-17)
(17.2898 20.8093 9.59378e-17)
(18.6195 21.6552 -9.37647e-17)
(20.048 22.3742 -8.81992e-17)
(21.6135 22.9697 0)
(23.2746 23.4093 -1.15647e-18)
(24.9953 23.6646 1.95845e-17)
(26.7621 23.7241 -1.88314e-16)
(28.5401 23.5776 -3.80437e-16)
(30.2996 23.219 0)
(32.0155 22.6486 -1.03554e-15)
(33.6568 21.8724 -9.56709e-16)
(35.1964 20.8996 -2.35195e-15)
(36.6098 19.744 0)
(37.8714 18.4238 -1.46973e-15)
(38.9601 16.9584 -1.5465e-15)
(39.8591 15.3672 1.70621e-15)
(40.5507 13.6794 -1.67416e-15)
(41.0203 11.9319 1.50012e-15)
(41.2586 10.166 1.82594e-16)
(41.2637 8.43006 -1.5449e-15)
(41.0465 6.77225 0)
(40.6334 5.23687 -1.24599e-15)
(40.0679 3.85557 7.24675e-17)
(39.4016 2.62072 5.02546e-16)
(38.6655 1.50056 0)
(37.8656 0.483197 -1.79262e-17)
(37.007 -0.431257 2.77159e-17)
(36.0993 -1.24596 9.17428e-16)
(35.1486 -1.96328 -6.94165e-16)
(34.1562 -2.58358 -8.07182e-16)
(33.1146 -3.10644 1.83293e-16)
(32.0082 -3.52927 -5.99363e-17)
(30.7884 -3.84503 -1.89502e-15)
(29.4157 -4.03249 -6.12821e-15)
(27.6584 -4.05624 -8.21088e-15)
(25.6376 -3.73081 1.49717e-16)
(21.5956 -3.14858 -7.67916e-17)
(14.2316 18.0363 2.5354e-17)
(13.4249 17.0142 2.59828e-16)
(12.6476 15.7944 3.07114e-16)
(11.9145 14.4008 -6.05575e-16)
(11.3247 12.8921 -2.21601e-15)
(10.8936 11.2687 7.69818e-16)
(10.6542 9.57822 1.96847e-15)
(10.6229 7.91477 5.43967e-15)
(10.7949 6.33443 2.16262e-15)
(11.1584 4.8632 -2.05803e-15)
(11.6808 3.53552 -4.84803e-17)
(12.3273 2.37449 -1.01706e-15)
(13.0685 1.37907 0)
(13.8752 0.541695 -3.06646e-17)
(14.7212 -0.145109 -1.80293e-15)
(15.5877 -0.695558 8.37238e-16)
(16.4597 -1.12344 -8.19234e-16)
(17.3257 -1.4423 0)
(18.1793 -1.66428 1.40964e-15)
(19.0172 -1.79891 -2.62772e-15)
(19.838 -1.85146 0)
(20.6394 -1.82322 2.25698e-15)
(21.4164 -1.71162 0)
(22.1561 -1.51298 -1.18122e-16)
(22.8351 -1.23195 1.16668e-16)
(23.4326 -0.889302 -1.64573e-15)
(23.9434 -0.505956 -2.69239e-17)
(24.3701 -0.0950663 -2.44756e-17)
(24.7145 0.332503 1.12979e-17)
(24.9773 0.765408 -7.21275e-16)
(25.1614 1.19332 -1.38081e-15)
(25.2707 1.6078 2.62417e-15)
(25.3081 2.00254 8.28896e-17)
(25.2766 2.37205 2.54849e-17)
(25.169 2.71356 0)
(24.9873 3.02133 1.5979e-16)
(24.649 3.29509 1.98305e-14)
(24.2341 3.435 -9.3736e-18)
(23.0874 3.43267 1.96217e-14)
(16.1666 17.9169 1.0689e-17)
(17.0829 18.7408 7.10597e-17)
(18.1673 19.5634 0)
(19.3807 20.3327 -2.84152e-17)
(20.6768 20.9896 -1.39305e-16)
(22.0973 21.5415 0)
(23.6044 21.9582 4.47305e-17)
(25.1669 22.2145 2.01946e-16)
(26.7769 22.2999 -4.23545e-16)
(28.4056 22.2033 1.22024e-16)
(30.028 21.9166 2.81823e-16)
(31.624 21.4368 1.19489e-15)
(33.1664 20.7651 8.91223e-16)
(34.6296 19.906 1.1886e-15)
(35.9892 18.8684 3.16904e-16)
(37.2197 17.666 1.09366e-15)
(38.2978 16.3164 1.49792e-15)
(39.1997 14.8463 1.36843e-15)
(39.9051 13.2855 -1.00509e-15)
(40.3996 11.6648 -3.12663e-15)
(40.6748 10.019 0)
(40.7295 8.38844 8.72598e-17)
(40.5731 6.81554 1.14272e-15)
(40.228 5.34048 1.18386e-15)
(39.7301 3.99348 -6.53756e-17)
(39.1218 2.77466 -4.3588e-16)
(38.4316 1.66223 2.84854e-18)
(37.6677 0.647087 -1.93908e-16)
(36.8349 -0.269161 1.93279e-17)
(35.9423 -1.0876 -1.70507e-15)
(34.998 -1.80951 -8.1245e-18)
(34.0076 -2.43454 -1.52206e-17)
(32.9728 -2.96195 -1.81622e-16)
(31.8932 -3.38983 -5.99901e-17)
(30.742 -3.71334 1.9028e-15)
(29.5074 -3.91351 1.19021e-14)
(27.9854 -3.96027 -7.95004e-15)
(26.3216 -3.65232 -9.25102e-15)
(22.8045 -3.12911 2.04593e-14)
(15.3604 17.0585 -1.06007e-16)
(14.6149 16.1419 -3.62769e-16)
(13.8877 15.0463 -2.53344e-16)
(13.1932 13.7929 -5.92582e-16)
(12.622 12.4378 1.29903e-15)
(12.1847 10.9775 -4.3127e-17)
(11.9115 9.45086 -5.14274e-15)
(11.82 7.94099 -1.87074e-15)
(11.9084 6.49992 6.63077e-18)
(12.1668 5.14963 0)
(12.5688 3.91806 -1.7837e-15)
(13.0872 2.82559 1.72744e-15)
(13.6998 1.8714 -1.69913e-15)
(14.384 1.05087 -8.62866e-16)
(15.1185 0.360746 7.87234e-16)
(15.8874 -0.208405 7.78524e-16)
(16.6767 -0.665244 2.94628e-15)
(17.4746 -1.01872 -7.11134e-16)
(18.2728 -1.27746 -1.31348e-15)
(19.0661 -1.4488 0)
(19.8503 -1.53692 -2.28378e-15)
(20.6211 -1.54318 -1.85919e-15)
(21.3722 -1.4659 -1.25199e-17)
(22.0909 -1.30317 -2.35937e-16)
(22.7559 -1.05933 -1.05328e-16)
(23.3471 -0.751211 1.73608e-15)
(23.8572 -0.398129 -4.7177e-17)
(24.2867 -0.0134736 4.14772e-16)
(24.6361 0.391646 9.89505e-17)
(24.9058 0.805782 6.64174e-16)
(25.0978 1.21828 -9.69067e-18)
(25.2153 1.62022 -5.25282e-15)
(25.261 2.00474 -4.93e-15)
(25.2373 2.36566 -4.9227e-15)
(25.1372 2.6994 -1.51709e-16)
(24.9623 2.99845 7.41551e-17)
(24.635 3.2612 -1.90763e-14)
(24.231 3.38094 -1.85715e-14)
(23.1771 3.35308 -1.80292e-14)
(17.0818 16.9691 -3.83901e-17)
(17.9259 17.7173 -3.08889e-17)
(18.9241 18.4674 -1.90043e-16)
(20.0369 19.1711 6.7273e-16)
(21.2193 19.7737 -2.72053e-16)
(22.5138 20.2861 1.72776e-16)
(23.8858 20.6812 -1.45742e-16)
(25.3072 20.9361 0)
(26.7747 21.0425 1.17306e-16)
(28.2634 20.9894 6.90198e-18)
(29.753 20.7682 -2.06275e-16)
(31.228 20.374 -1.06371e-15)
(32.6646 19.8051 -4.98139e-16)
(34.0401 19.0625 0)
(35.3317 18.151 0)
(36.5147 17.0802 0)
(37.5651 15.8646 0)
(38.4611 14.5218 -1.33312e-15)
(39.1824 13.0745 1.31996e-15)
(39.7116 11.5518 1.28852e-15)
(40.037 9.98867 -9.96803e-16)
(40.1537 8.42593 8.91138e-16)
(40.0671 6.9061 -8.94876e-16)
(39.7951 5.46909 -6.36254e-17)
(39.3677 4.14425 -2.6657e-17)
(38.8211 2.93561 4.4152e-16)
(38.1827 1.828 8.68418e-17)
(37.4632 0.814135 0)
(36.6681 -0.104013 0)
(35.8058 -0.926193 3.86739e-17)
(34.8831 -1.65291 0)
(33.9053 -2.28306 5.86515e-16)
(32.8748 -2.81518 -9.12274e-17)
(31.795 -3.24664 7.57206e-16)
(30.6498 -3.57259 -3.61977e-15)
(29.4503 -3.77405 -5.74207e-15)
(28.0367 -3.82753 7.64692e-15)
(26.6388 -3.52485 1.80933e-14)
(23.6968 -3.05799 -1.9728e-14)
(16.3353 16.1905 0)
(15.6433 15.3622 1.08221e-16)
(14.9611 14.3707 4.73705e-16)
(14.3023 13.2348 -2.06123e-15)
(13.7511 12.0085 1.73625e-15)
(13.314 10.6856 -1.35963e-15)
(13.019 9.29766 -1.19482e-18)
(12.8848 7.91978 1.48552e-15)
(12.9115 6.60169 1.5386e-15)
(13.0894 5.36063 0)
(13.397 4.21967 7.65855e-16)
(13.8122 3.19691 -2.33446e-15)
(14.3178 2.29083 3.8176e-15)
(14.8964 1.49794 7.32228e-16)
(15.531 0.81694 -1.47919e-15)
(16.2089 0.241814 -1.42576e-15)
(16.918 -0.232504 -1.36371e-15)
(17.6472 -0.611262 0)
(18.388 -0.899829 0)
(19.1334 -1.10305 0)
(19.8777 -1.22374 2.14268e-15)
(20.615 -1.26274 0)
(21.338 -1.2188 -1.63535e-15)
(22.034 -1.09105 -2.23576e-16)
(22.683 -0.883324 -1.64662e-15)
(23.2658 -0.609433 -1.54571e-15)
(23.7733 -0.286829 0)
(24.204 0.0711247 -3.49794e-16)
(24.5574 0.453208 -1.04682e-16)
(24.8332 0.847896 2.0683e-17)
(25.0325 1.24428 2.53564e-15)
(25.1579 1.63303 -1.66561e-17)
(25.2117 2.00677 4.80609e-15)
(25.1958 2.3587 -4.68651e-15)
(25.1034 2.68438 0)
(24.9356 2.97455 -1.44787e-16)
(24.62 3.22603 9.09966e-17)
(24.2287 3.32735 1.76573e-14)
(23.2608 3.27582 -1.26818e-16)
(17.8875 16.1202 3.9937e-17)
(18.6712 16.8024 0)
(19.597 17.4883 3.86513e-16)
(20.6257 18.1325 -3.44931e-16)
(21.7132 18.6846 1.21088e-16)
(22.9024 19.1577 -1.62606e-16)
(24.1607 19.5268 8.67583e-17)
(25.4625 19.7721 4.61236e-17)
(26.8078 19.8865 0)
(28.1748 19.8596 -1.45433e-16)
(29.5472 19.6831 -1.70865e-16)
(30.9131 19.3511 1.67787e-16)
(32.2519 18.86 8.47923e-16)
(33.5443 18.208 3.96146e-16)
(34.7696 17.3967 -1.19483e-15)
(35.9039 16.4323 -8.9549e-16)
(36.9242 15.3253 7.17096e-16)
(37.8083 14.091 5.51188e-16)
(38.5339 12.7518 -2.72245e-16)
(39.0824 11.3342 2.72127e-16)
(39.4409 9.86952 7.07769e-16)
(39.6033 8.39374 1.27715e-16)
(39.5722 6.94565 -1.14923e-16)
(39.3621 5.56259 -7.39525e-16)
(38.9973 4.27275 0)
(38.5081 3.08367 -3.55673e-16)
(37.9195 1.98698 -1.61104e-16)
(37.2442 0.978527 -1.34501e-16)
(36.4889 0.0613462 -4.42391e-16)
(35.6615 -0.762791 1.42277e-15)
(34.769 -1.4933 4.41282e-16)
(33.8155 -2.12835 -3.77023e-17)
(32.8022 -2.66552 3.88103e-17)
(31.7315 -3.10108 0)
(30.588 -3.42935 1.74995e-15)
(29.3889 -3.62941 0)
(27.9994 -3.68198 0)
(26.7157 -3.37073 -8.78266e-15)
(24.2785 -2.94067 1.31975e-16)
(17.1913 15.4107 -1.30019e-16)
(16.5448 14.658 3.95071e-16)
(15.9015 13.7556 7.71074e-18)
(15.2749 12.7203 4.66688e-16)
(14.7434 11.6037 -1.61228e-15)
(14.3107 10.398 1.22475e-15)
(14.0023 9.12889 4.86289e-17)
(13.8378 7.8659 -1.26937e-15)
(13.8185 6.65635 -1.26355e-15)
(13.9343 5.51336 -1.31372e-15)
(14.1676 4.45658 -2.66618e-15)
(14.4996 3.50208 0)
(14.9165 2.64718 -1.3843e-15)
(15.4047 1.88852 -2.74836e-17)
(15.951 1.22585 0)
(16.5456 0.654857 -1.28536e-15)
(17.1787 0.173098 -6.25472e-16)
(17.8404 -0.222046 -6.06367e-16)
(18.5228 -0.533261 2.25854e-15)
(19.2184 -0.762996 2.1347e-15)
(19.9204 -0.91238 -2.4613e-16)
(20.6219 -0.981581 1.89137e-15)
(21.3147 -0.969316 4.36419e-16)
(21.9861 -0.875048 -2.1189e-16)
(22.6174 -0.702183 1.46256e-15)
(23.1896 -0.462 9.4972e-17)
(23.6925 -0.169943 0)
(24.1229 0.160934 0)
(24.4792 0.519371 -1.9956e-17)
(24.7601 0.893885 5.86393e-17)
(24.9661 1.27339 -2.48167e-15)
(25.0991 1.64818 -1.61624e-17)
(25.1607 2.0104 4.82934e-15)
(25.1526 2.35265 4.50121e-15)
(25.068 2.66959 1.40793e-16)
(24.9078 2.95035 2.81157e-18)
(24.6045 3.19012 3.44572e-14)
(24.2273 3.27438 -1.67796e-14)
(23.3417 3.20161 1.19141e-16)
(18.5991 15.3541 1.77465e-17)
(19.3303 15.9786 0)
(20.1932 16.6076 -1.89409e-16)
(21.1491 17.1986 0)
(22.1545 17.7052 2.22766e-16)
(23.2524 18.1415 -2.16474e-16)
(24.4118 18.485 -1.32576e-16)
(25.6091 18.7182 -4.36003e-17)
(26.8461 18.8351 0)
(28.1039 18.8267 -3.235e-18)
(29.3693 18.6853 2.04147e-16)
(30.6334 18.4045 -4.24287e-16)
(31.8787 17.9798 -2.72128e-16)
(33.0885 17.4077 -2.72593e-16)
(34.2446 16.6877 7.61309e-16)
(35.3254 15.823 8.57682e-16)
(36.3087 14.8209 -9.44331e-16)
(37.1726 13.6937 -9.09155e-16)
(37.8958 12.4586 0)
(38.4587 11.139 2.40971e-16)
(38.8468 9.763 -4.65814e-16)
(39.0516 8.36493 1.16348e-16)
(39.0731 6.98173 5.10862e-18)
(38.9217 5.64914 1.73142e-15)
(38.6169 4.39422 -9.09557e-17)
(38.1836 3.22651 6.32113e-17)
(37.6444 2.14276 1.45418e-16)
(37.0129 1.14167 1.42275e-16)
(36.2971 0.227219 3.83695e-16)
(35.5053 -0.597417 -6.42614e-16)
(34.6444 -1.33059 -4.10243e-16)
(33.7192 -1.96978 -9.30068e-16)
(32.7304 -2.51176 5.30346e-17)
(31.6792 -2.95171 5.62927e-18)
(30.5493 -3.28305 -1.7703e-15)
(29.3558 -3.48223 1.29656e-16)
(27.9735 -3.53344 -9.29292e-17)
(26.6982 -3.20893 1.41145e-16)
(24.6225 -2.78953 -1.79264e-14)
(17.9469 14.7049 7.52596e-17)
(17.3405 14.0175 -1.9334e-16)
(16.732 13.1921 3.74982e-16)
(16.1349 12.2438 0)
(15.6227 11.2221 9.72144e-16)
(15.1968 10.1175 0)
(14.8813 8.95161 0)
(14.6956 7.78948 0)
(14.6415 6.676 2.31326e-15)
(14.7095 5.62099 -1.16441e-15)
(14.8839 4.64172 1.25597e-15)
(15.1486 3.75255 0)
(15.4922 2.94958 0)
(15.9037 2.22901 -1.2412e-15)
(16.3727 1.59092 0)
(16.892 1.03192 1.19487e-15)
(17.4541 0.550761 1.51219e-17)
(18.0509 0.146917 0)
(18.6753 -0.180147 -1.59726e-15)
(19.32 -0.430972 -2.51258e-15)
(19.978 -0.605172 -1.88172e-15)
(20.6416 -0.701867 -1.77193e-15)
(21.3024 -0.719307 3.32347e-15)
(21.9477 -0.656934 0)
(22.5594 -0.517566 1.39955e-15)
(23.1191 -0.310245 1.50928e-15)
(23.6156 -0.0485358 6.77223e-16)
(24.0441 0.255068 0)
(24.4019 0.589412 -7.81561e-17)
(24.687 0.943118 -6.05852e-16)
(24.8991 1.30505 2.3555e-15)
(25.0392 1.6652 -1.56417e-17)
(25.1085 2.01523 -4.43169e-15)
(25.1081 2.3472 4.17021e-15)
(25.0315 2.65487 -1.28341e-18)
(24.8791 2.92585 1.3098e-16)
(24.5891 3.15356 -3.30157e-14)
(24.2269 3.22236 1.57406e-14)
(23.4202 3.13104 2.96005e-14)
(19.2324 14.6574 1.37238e-17)
(19.9175 15.2308 -5.9388e-17)
(20.7254 15.8091 0)
(21.6179 16.352 -3.13733e-16)
(22.5522 16.817 0)
(23.5708 17.2185 0)
(24.6441 17.5366 1.70207e-17)
(25.75 17.7553 -7.16645e-17)
(26.8919 17.87 -7.22896e-17)
(28.0528 17.8727 1.28048e-16)
(29.2219 17.7567 1.38362e-16)
(30.393 17.5157 2.4175e-16)
(31.5511 17.1446 0)
(32.6825 16.6388 7.02162e-16)
(33.7711 15.9962 -2.6456e-16)
(34.7973 15.2177 0)
(35.7406 14.3081 7.01815e-16)
(36.5802 13.2766 8.72628e-16)
(37.2949 12.1376 0)
(37.8648 10.912 8.04898e-16)
(38.274 9.62517 -7.89018e-16)
(38.513 8.30769 0)
(38.5793 6.9935 -9.18464e-17)
(38.4802 5.71609 -4.51598e-18)
(38.2306 4.50124 4.24684e-17)
(37.8506 3.35992 5.92494e-16)
(37.3598 2.29301 -4.06183e-18)
(36.7719 1.30224 -1.27835e-17)
(36.0956 0.392909 -7.56507e-18)
(35.3392 -0.430498 2.03858e-17)
(34.5102 -1.16502 3.65841e-16)
(33.6137 -1.80732 7.61525e-16)
(32.651 -2.35341 -3.20351e-17)
(31.6234 -2.79749 8.61378e-16)
(30.5149 -3.13218 1.57908e-15)
(29.3378 -3.33141 5.08958e-15)
(27.976 -3.38223 6.7022e-15)
(26.6786 -3.04918 -2.39211e-16)
(24.8273 -2.62051 1.69273e-14)
(18.6188 14.0613 -1.52958e-16)
(18.0478 13.4312 -5.18146e-16)
(17.4707 12.6733 9.95723e-16)
(16.9008 11.801 0)
(16.4074 10.8622 1.71518e-15)
(15.9901 9.84589 0)
(15.6718 8.77045 -9.62365e-16)
(15.4715 7.69763 3.85669e-15)
(15.3913 6.66943 -2.96538e-15)
(15.422 5.69367 0)
(15.5496 4.78544 2.15854e-15)
(15.7599 3.95768 2.16307e-15)
(16.0428 3.20566 0)
(16.3892 2.52512 -2.20458e-15)
(16.7911 1.91579 5.48339e-16)
(17.2432 1.37438 -5.48254e-16)
(17.74 0.900401 5.43146e-16)
(18.2753 0.494507 1.02215e-15)
(18.8431 0.157663 -1.48917e-17)
(19.437 -0.109043 1.38539e-15)
(20.0499 -0.303822 4.41484e-16)
(20.6743 -0.424761 -4.25622e-16)
(21.3015 -0.46957 -1.56996e-15)
(21.9192 -0.437218 1.48694e-15)
(22.5096 -0.329716 -1.2383e-15)
(23.0548 -0.154282 -1.51858e-15)
(23.543 0.0774233 -6.43599e-16)
(23.9681 0.353667 -9.52828e-18)
(24.3262 0.663531 8.40795e-17)
(24.6145 0.99588 5.78915e-16)
(24.8318 1.33958 8.22109e-18)
(24.9785 1.68441 -1.50844e-17)
(25.0552 2.02156 4.44909e-15)
(25.0626 2.34262 -4.2857e-15)
(24.9941 2.64043 1.31224e-16)
(24.85 2.9012 -8.28239e-15)
(24.5738 3.11668 1.58968e-14)
(24.2276 3.17147 0)
(23.4963 3.06387 -2.83705e-14)
(19.7986 14.0201 3.09947e-17)
(20.443 14.5479 0)
(21.202 15.0805 0)
(22.0384 15.5801 5.6969e-16)
(22.9101 16.0071 -1.91772e-17)
(23.8589 16.3764 0)
(24.8562 16.6698 0)
(25.8814 16.8731 3.73777e-16)
(26.9387 16.9829 -4.29265e-17)
(28.0129 16.9923 -5.02521e-17)
(29.095 16.8951 -2.78679e-16)
(30.1808 16.6857 -1.56464e-16)
(31.2577 16.3589 2.5623e-16)
(32.3142 15.9097 -7.5709e-17)
(33.3367 15.3347 0)
(34.3077 14.6332 0)
(35.2086 13.8077 -1.84216e-15)
(36.0194 12.8652 -3.58422e-16)
(36.7203 11.8169 3.5758e-16)
(37.2915 10.6804 -7.80665e-16)
(37.7162 9.47805 1.45435e-15)
(37.9836 8.2379 6.70391e-16)
(38.0892 6.99118 -6.4011e-16)
(38.0372 5.76932 -7.29694e-16)
(37.8388 4.59673 1.10422e-16)
(37.5096 3.48489 -5.64755e-16)
(37.0663 2.43778 -6.05452e-17)
(36.5219 1.45992 1.14349e-17)
(35.8854 0.557862 -1.14338e-17)
(35.1649 -0.262507 2.6212e-17)
(34.3682 -0.99699 -4.08497e-17)
(33.5007 -1.64134 -3.57235e-16)
(32.5644 -2.19069 -3.07446e-17)
(31.5611 -2.63833 4.97574e-17)
(30.4764 -2.97611 0)
(29.3211 -3.17596 -4.76122e-15)
(27.9925 -3.22647 -6.23398e-15)
(26.6864 -2.89243 0)
(24.9722 -2.44539 0)
(19.2197 13.4712 0)
(18.6801 12.8916 4.80051e-16)
(18.1318 12.1933 -1.53116e-15)
(17.5871 11.3882 -6.96958e-16)
(17.1119 10.5226 -1.59243e-15)
(16.7042 9.58397 0)
(16.3862 8.58858 0)
(16.1764 7.59531 -1.73129e-15)
(16.0767 6.64337 1.79464e-15)
(16.0783 5.73895 0)
(16.1686 4.89558 -9.53196e-16)
(16.3345 4.12519 -1.01142e-15)
(16.5672 3.4224 9.98873e-16)
(16.8587 2.7822 1.03153e-15)
(17.2026 2.20385 -2.002e-15)
(17.5952 1.68403 0)
(18.0327 1.22232 -4.82664e-16)
(18.5104 0.819983 1.15114e-17)
(19.0239 0.478846 2.27507e-15)
(19.5676 0.201174 -4.42511e-16)
(20.1353 -0.0100205 4.30568e-16)
(20.7196 -0.151888 -3.85103e-16)
(21.3121 -0.221449 5.60399e-16)
(21.9007 -0.21705 -2.99442e-15)
(22.4684 -0.139705 -1.18179e-15)
(22.9973 0.00508193 1.20409e-15)
(23.4754 0.207369 -7.8917e-17)
(23.8953 0.456371 0)
(24.2523 0.741565 -7.21356e-17)
(24.5428 1.05211 5.26714e-16)
(24.7646 1.37699 -1.05603e-15)
(24.9175 1.70584 2.15027e-15)
(25.0013 2.02946 -8.57278e-15)
(25.0163 2.33898 8.48076e-15)
(24.956 2.62636 -1.25864e-16)
(24.8206 2.87657 7.84006e-15)
(24.5591 3.07957 2.4376e-16)
(24.2297 3.12191 -4.54817e-16)