/*--------------------------------*- C++ -*----------------------------------*\
| =========                 |                                                 |
| \\      /  F ield         | OpenFOAM: The Open Source CFD Toolbox           |
|  \\    /   O peration     | Version:  3.0.0                                 |
|   \\  /    A nd           | Web:      www.OpenFOAM.org                      |
|    \\/     M anipulation  |                                                 |
\*---------------------------------------------------------------------------*/
FoamFile
{
    version     2.0;
    format      ascii;
    class       volScalarField;
    location    "0.011";
    object      p;
}
// * * * * * * * * * * * * * * * * * * * * * * * * * * * * * * * * * * * * * //

dimensions      [1 -1 -2 0 0 0 0];

internalField   nonuniform List<scalar> 
1000
(
100000
100000
100000
100000
100000
100000
100000
100000
100000
100000
100000
100000
100000
100000
100000
100000
100000
100000
100000
100000
100000
100000
100000
100000
100000
100000
100000
99999.9
99999.9
99999.9
99999.8
99999.8
99999.7
99999.6
99999.5
99999.4
99999.2
99998.9
99998.6
99998.2
99997.6
99997
99996.1
99995.1
99993.8
99992.2
99990.2
99987.8
99984.8
99981.2
99976.9
99971.6
99965.3
99957.9
99949.1
99938.6
99926.4
99912.2
99895.7
99876.7
99854.8
99829.9
99801.6
99769.6
99733.6
99693.3
99648.5
99598.9
99544.3
99484.3
99418.8
99347.7
99270.7
99187.7
99098.7
99003.5
98902.3
98794.8
98681.3
98561.7
98436.1
98304.7
98167.5
98024.8
97876.6
97723.2
97564.8
97401.5
97233.5
97061.1
96884.4
96703.8
96519.2
96331.1
96139.5
95944.7
95746.8
95546.1
95342.6
95136.6
94928.3
94717.7
94505.1
94290.5
94074.1
93856
93636.4
93415.3
93192.9
92969.2
92744.4
92518.5
92291.6
92063.9
91835.3
91605.9
91375.8
91145.1
90913.8
90682
90449.7
90217
89983.9
89750.5
89516.8
89282.8
89048.6
88814.2
88579.7
88345
88110.3
87875.4
87640.6
87405.7
87170.8
86936
86701.2
86466.4
86231.8
85997.3
85762.9
85528.7
85294.6
85060.7
84826.9
84593.4
84360.1
84127.1
83894.3
83661.7
83429.4
83197.4
82965.7
82734.2
82503.1
82272.3
82041.8
81811.7
81581.9
81352.4
81123.3
80894.6
80666.2
80438.2
80210.6
79983.3
79756.5
79530
79304
79078.3
78853.1
78628.3
78403.9
78179.9
77956.4
77733.2
77510.5
77288.3
77066.5
76845.1
76624.2
76403.7
76183.6
75964.1
75744.9
75526.2
75308
75090.3
74873
74656.1
74439.8
74223.8
74008.4
73793.4
73578.9
73364.9
73151.3
72938.2
72725.6
72513.5
72301.8
72090.6
71879.9
71669.7
71459.9
71250.6
71041.8
70833.5
70625.7
70418.3
70211.4
70005
69799.1
69593.7
69388.7
69184.2
68980.2
68776.7
68573.7
68371.1
68169.1
67967.5
67766.4
67565.8
67365.6
67166
66966.8
66768.1
66569.9
66372.2
66174.9
65978.1
65781.8
65586
65390.7
65195.8
65001.5
64807.6
64614.1
64421.2
64228.7
64036.7
63845.2
63654.2
63463.6
63273.6
63083.9
62894.8
62706.1
62517.9
62330.2
62143
61956.2
61769.9
61584.1
61398.7
61213.8
61029.4
60845.4
60661.9
60478.9
60296.4
60114.3
59932.6
59751.5
59570.8
59390.5
59210.8
59031.5
58852.6
58674.2
58496.3
58318.8
58141.8
57965.3
57789.2
57613.5
57438.3
57263.6
57089.3
56915.5
56742.1
56569.2
56396.8
56224.8
56053.2
55882.1
55711.4
55541.2
55371.4
55202.1
55033.2
54864.8
54696.8
54529.3
54362.2
54195.5
54029.3
53863.5
53698.2
53533.3
53368.8
53204.8
53041.3
52878.1
52715.4
52553.1
52391.3
52229.9
52068.9
51908.4
51748.3
51588.6
51429.4
51270.6
51112.2
50954.2
50796.7
50639.6
50482.9
50326.7
50170.9
50015.5
49860.5
49705.9
49551.8
49398.1
49244.8
49091.9
48939.5
48787.5
48635.9
48484.7
48333.9
48183.5
48033.6
47884.1
47735
47586.3
47438
47290.1
47142.7
46995.6
46849
46702.8
46556.9
46411.5
46266.6
46122
45977.8
45834
45690.7
45547.7
45405.2
45263
45121.3
44980
44839
44698.5
44558.4
44418.7
44279.4
44140.5
44002
43863.9
43726.2
43588.9
43452
43315.5
43179.4
43043.7
42908.4
42773.5
42639
42504.9
42371.2
42238
42105.1
41972.6
41840.5
41708.8
41577.5
41446.7
41316.2
41186.1
41056.4
40927.2
40798.3
40669.8
40541.8
40414.1
40286.9
40160
40033.6
39907.5
39781.9
39656.7
39531.9
39407.5
39283.5
39160
39036.8
38914.1
38791.8
38669.9
38548.4
38427.3
38306.7
38186.5
38066.7
37947.4
37828.5
37710
37592
37474.4
37357.3
37240.6
37124.4
37008.6
36893.2
36778.4
36664
36550.1
36436.6
36323.7
36211.2
36099.3
35987.8
35876.8
35766.4
35656.4
35547
35438.2
35329.9
35222.1
35114.9
35008.3
34902.2
34796.8
34691.9
34587.7
34484.1
34381.2
34278.9
34177.3
34076.4
33976.2
33876.7
33778
33680
33582.9
33486.5
33391
33296.3
33202.5
33109.6
33017.7
32926.7
32836.8
32747.8
32660
32573.2
32487.6
32403.1
32319.9
32237.9
32157.2
32077.9
31999.9
31923.4
31848.4
31774.9
31703
31632.7
31564.1
31497.2
31432.1
31368.8
31307.4
31248
31190.4
31134.9
31081.4
31030
30980.7
30933.5
30888.4
30845.5
30804.8
30766.2
30729.8
30695.6
30663.4
30633.4
30605.4
30579.4
30555.3
30533.2
30512.8
30494.2
30477.3
30462
30448.1
30435.7
30424.5
30414.6
30405.8
30398.1
30391.2
30385.3
30380.1
30375.6
30371.7
30368.4
30365.5
30363.1
30361
30359.3
30357.8
30356.6
30355.6
30354.7
30354
30353.4
30352.9
30352.5
30352.2
30351.9
30351.7
30351.5
30351.4
30351.2
30351.1
30351
30351
30350.9
30350.9
30350.8
30350.8
30350.8
30350.7
30350.7
30350.7
30350.7
30350.6
30350.6
30350.6
30350.6
30350.6
30350.6
30350.6
30350.6
30350.6
30350.5
30350.5
30350.5
30350.5
30350.5
30350.5
30350.5
30350.5
30350.5
30350.5
30350.5
30350.5
30350.5
30350.4
30350.4
30350.4
30350.4
30350.4
30350.4
30350.4
30350.4
30350.4
30350.4
30350.4
30350.4
30350.4
30350.4
30350.4
30350.3
30350.3
30350.3
30350.3
30350.3
30350.3
30350.3
30350.3
30350.3
30350.3
30350.3
30350.2
30350.2
30350.2
30350.2
30350.2
30350.2
30350.2
30350.2
30350.2
30350.2
30350.2
30350.1
30350.1
30350.1
30350.1
30350.1
30350.1
30350.1
30350.1
30350.1
30350.1
30350.1
30350.1
30350.1
30350.1
30350.1
30350.1
30350.1
30350.1
30350.1
30350.1
30350.1
30350.1
30350.1
30350.1
30350.1
30350.1
30350.1
30350.1
30350.1
30350.1
30350.1
30350.1
30350.1
30350.1
30350.1
30350.1
30350.1
30350.1
30350.1
30350.1
30350.1
30350.1
30350.1
30350.1
30350.1
30350.1
30350
30350
30350
30350
30350
30350
30350
30350
30350
30350
30350
30350
30350
30350
30350
30350
30350
30350
30350
30350
30350
30350
30350
30349.9
30349.9
30349.9
30349.9
30349.9
30349.9
30349.9
30349.9
30349.9
30349.9
30349.9
30349.9
30349.9
30349.9
30349.9
30349.9
30349.9
30349.9
30349.9
30349.9
30349.9
30349.9
30349.9
30349.9
30349.9
30349.9
30349.9
30349.9
30349.9
30349.8
30349.8
30349.8
30349.8
30349.8
30349.8
30349.8
30349.8
30349.8
30349.8
30349.8
30349.8
30349.8
30349.8
30349.8
30349.8
30349.8
30349.8
30349.8
30349.8
30349.8
30349.8
30349.8
30349.8
30349.8
30349.8
30349.8
30349.8
30349.8
30349.8
30349.7
30349.7
30349.7
30349.7
30349.7
30349.7
30349.7
30349.7
30349.7
30349.7
30349.7
30349.7
30349.7
30349.7
30349.7
30349.7
30349.7
30349.7
30349.7
30349.7
30349.7
30349.7
30349.7
30349.7
30349.7
30349.7
30349.7
30349.7
30349.7
30349.7
30349.7
30349.7
30349.7
30349.7
30349.6
30349.6
30349.6
30349.6
30349.6
30349.6
30349.6
30349.6
30349.6
30349.6
30349.6
30349.6
30349.6
30349.6
30349.6
30349.6
30349.6
30349.6
30349.6
30349.6
30349.6
30349.6
30349.6
30349.6
30349.6
30349.6
30349.6
30349.6
30349.6
30349.6
30349.6
30349.6
30349.5
30349.5
30349.5
30349.5
30349.5
30349.4
30349.4
30349.4
30349.3
30349.3
30349.2
30349.2
30349.2
30349.1
30349.1
30349
30349
30349
30349
30349
30349.1
30349.1
30349.1
30349.2
30349.2
30349.3
30349.3
30349.4
30349.4
30349.5
30349.5
30349.6
30349.6
30349.6
30349.6
30349.6
30349.6
30349.6
30349.6
30349.6
30349.6
30349.6
30349.6
30349.5
30349.5
30349.5
30349.5
30349.5
30349.5
30349.4
30349.4
30349.4
30349.4
30349.4
30349.4
30349.4
30349.4
30349.4
30349.4
30349.4
30349.4
30349.4
30349.4
30349.3
30349.3
30349.3
30349.3
30349.3
30349.3
30349.3
30349.3
30349.3
30349.3
30349.3
30349.3
30349.3
30349.3
30349.3
30349.3
30349.3
30349.3
30349.3
30349.3
30349.3
30349.3
30349.3
30349.3
30349.3
30349.3
30349.3
30349.3
30349.3
30349.3
30349.3
30349.3
30349.3
30349.3
30349.3
30349.3
30349.3
30349.3
30349.3
30349.2
30349.2
30349.2
30349.2
30349.2
30349.2
30349.2
30349.2
30349.2
30349.2
30349.2
30349.2
30349.2
30349.2
30349.2
30349.2
30349.2
30349.2
30349.2
30349.2
30349.2
30349.2
30349.2
30349.2
30349.1
30349.1
30349.1
30349.1
30349.1
30349.1
30349.1
30349.1
30349.1
30349.1
30349.1
30349.1
30349.1
30349.1
30349.1
30349.1
30349.1
30349.1
30349.1
30349.1
30349.1
30349.1
30349.1
30349.1
30349.1
30349.1
30349.1
30349.1
30349
30349
30349
30349
30349
30348.9
30348.9
30348.9
30348.9
30348.9
30348.9
30349
30349.2
30349.5
30350.2
30351.3
30353
30355.4
30358.9
30363.7
30369.9
30377.8
30387.6
30399.2
30412.6
30427.7
30444.1
30461.5
30479.3
30497.1
30514.2
30530.3
30544.9
30557.8
30568.8
30577.8
30584.9
30590.4
30594.4
30597.2
30599.1
30600.3
30601.1
30601.5
30601.7
30601.7
30601.8
30601.8
30601.8
)
;

boundaryField
{
    sides
    {
        type            zeroGradient;
    }
    empty
    {
        type            empty;
    }
}


// ************************************************************************* //
