/*--------------------------------*- C++ -*----------------------------------*\
| =========                 |                                                 |
| \\      /  F ield         | OpenFOAM: The Open Source CFD Toolbox           |
|  \\    /   O peration     | Version:  3.0.0                                 |
|   \\  /    A nd           | Web:      www.OpenFOAM.org                      |
|    \\/     M anipulation  |                                                 |
\*---------------------------------------------------------------------------*/
FoamFile
{
    version     2.0;
    format      ascii;
    class       surfaceScalarField;
    location    "0.011";
    object      phi;
}
// * * * * * * * * * * * * * * * * * * * * * * * * * * * * * * * * * * * * * //

dimensions      [1 0 -1 0 0 0 0];

internalField   nonuniform List<scalar> 
999
(
4.96042e-08
8.54507e-08
1.34184e-07
2.02914e-07
3.01435e-07
4.43489e-07
6.48486e-07
9.43876e-07
1.36841e-06
1.97665e-06
2.84516e-06
4.08098e-06
5.83318e-06
8.30855e-06
1.17928e-05
1.66791e-05
2.35061e-05
3.30091e-05
4.6187e-05
6.43916e-05
8.94442e-05
0.000123788
0.000170684
0.000234472
0.00032089
0.000437503
0.000594228
0.000804008
0.00108366
0.0014549
0.0019457
0.00259184
0.00343886
0.00454447
0.00598141
0.00784082
0.0102363
0.0133088
0.017232
0.0222185
0.0285279
0.036474
0.0464348
0.0588625
0.0742941
0.0933637
0.116815
0.145513
0.180459
0.222801
0.273846
0.335072
0.408134
0.494874
0.597318
0.717684
0.858369
1.02194
1.21114
1.42882
1.67797
1.96165
2.28297
2.64505
3.05099
3.5038
4.00638
4.56146
5.17159
5.83904
6.56585
7.35374
8.20411
9.11802
10.0962
11.139
12.2465
13.4183
14.654
15.9525
17.3126
18.7331
20.2123
21.7483
23.3392
24.9829
26.6773
28.42
30.2088
32.0414
33.9155
35.8286
37.7787
39.7634
41.7806
43.8282
45.904
48.0062
50.1329
52.2822
54.4523
56.6418
58.8489
61.0723
63.3104
65.562
67.8258
70.1006
72.3853
74.6788
76.9802
79.2885
81.6029
83.9224
86.2464
88.5741
90.9048
93.2379
95.5728
97.9088
100.246
102.582
104.919
107.255
109.589
111.922
114.254
116.582
118.908
121.232
123.551
125.868
128.18
130.489
132.793
135.092
137.387
139.677
141.962
144.241
146.515
148.783
151.045
153.301
155.551
157.795
160.032
162.263
164.487
166.704
168.915
171.118
173.315
175.504
177.685
179.86
182.027
184.187
186.338
188.483
190.619
192.748
194.869
196.982
199.088
201.185
203.274
205.355
207.428
209.493
211.55
213.599
215.639
217.671
219.695
221.711
223.718
225.717
227.707
229.689
231.663
233.628
235.585
237.533
239.473
241.405
243.328
245.243
247.149
249.046
250.936
252.816
254.688
256.552
258.407
260.254
262.092
263.922
265.743
267.556
269.36
271.156
272.943
274.722
276.492
278.254
280.008
281.753
283.49
285.218
286.938
288.649
290.352
292.047
293.733
295.411
297.08
298.742
300.395
302.039
303.675
305.303
306.923
308.535
310.138
311.733
313.319
314.898
316.468
318.031
319.585
321.13
322.668
324.198
325.719
327.233
328.738
330.235
331.724
333.206
334.679
336.144
337.601
339.05
340.492
341.925
343.351
344.768
346.178
347.58
348.974
350.36
351.739
353.109
354.472
355.827
357.175
358.514
359.846
361.171
362.487
363.796
365.097
366.391
367.677
368.956
370.227
371.491
372.747
373.995
375.236
376.47
377.696
378.915
380.126
381.33
382.526
383.716
384.898
386.072
387.239
388.399
389.552
390.698
391.836
392.967
394.091
395.208
396.318
397.42
398.516
399.604
400.685
401.76
402.827
403.887
404.941
405.987
407.026
408.059
409.084
410.103
411.115
412.119
413.118
414.108
415.095
416.069
417.045
418.003
418.967
419.91
420.862
421.793
422.728
423.651
424.566
425.484
426.378
427.288
428.166
429.063
429.933
430.809
431.674
432.53
433.387
434.229
435.071
435.905
436.73
437.553
438.366
439.174
439.977
440.772
441.562
442.345
443.121
443.893
444.657
445.415
446.168
446.914
447.654
448.389
449.117
449.839
450.555
451.265
451.969
452.667
453.359
454.045
454.726
455.4
456.069
456.731
457.388
458.039
458.685
459.324
459.958
460.586
461.208
461.825
462.435
463.041
463.64
464.234
464.822
465.405
465.982
466.553
467.119
467.68
468.234
468.784
469.328
469.866
470.399
470.926
471.449
471.965
472.476
472.982
473.483
473.978
474.468
474.953
475.432
475.906
476.375
476.838
477.296
477.749
478.197
478.64
479.077
479.51
479.937
480.359
480.776
481.188
481.595
481.997
482.393
482.785
483.172
483.553
483.93
484.302
484.669
485.031
485.387
485.739
486.087
486.429
486.766
487.099
487.426
487.749
488.067
488.38
488.688
488.992
489.291
489.585
489.874
490.159
490.439
490.714
490.984
491.25
491.511
491.767
492.019
492.266
492.509
492.746
492.98
493.208
493.432
493.652
493.867
494.077
494.283
494.484
494.681
494.873
495.06
495.243
495.422
495.596
495.766
495.931
496.092
496.248
496.4
496.547
496.69
496.829
496.963
497.093
497.219
497.34
497.457
497.569
497.678
497.782
497.882
497.977
498.069
498.157
498.24
498.319
498.395
498.466
498.534
498.598
498.658
498.715
498.768
498.818
498.864
498.907
498.947
498.983
499.017
499.048
499.076
499.102
499.125
499.146
499.165
499.181
499.196
499.209
499.221
499.231
499.239
499.247
499.253
499.258
499.263
499.266
499.269
499.271
499.273
499.275
499.276
499.276
499.277
499.277
499.277
499.276
499.276
499.276
499.275
499.274
499.274
499.273
499.272
499.272
499.271
499.27
499.269
499.268
499.267
499.266
499.265
499.265
499.264
499.263
499.262
499.261
499.26
499.259
499.258
499.257
499.256
499.255
499.254
499.253
499.252
499.251
499.25
499.249
499.248
499.247
499.246
499.245
499.243
499.242
499.241
499.24
499.239
499.238
499.237
499.236
499.235
499.233
499.232
499.231
499.23
499.229
499.227
499.226
499.225
499.224
499.223
499.221
499.22
499.219
499.218
499.216
499.215
499.214
499.212
499.211
499.21
499.208
499.207
499.206
499.204
499.203
499.201
499.2
499.199
499.197
499.196
499.194
499.193
499.191
499.19
499.188
499.187
499.185
499.184
499.182
499.18
499.179
499.177
499.176
499.174
499.172
499.171
499.169
499.167
499.166
499.164
499.162
499.16
499.158
499.157
499.155
499.153
499.151
499.149
499.147
499.145
499.144
499.142
499.14
499.138
499.136
499.134
499.132
499.129
499.127
499.125
499.123
499.121
499.119
499.117
499.114
499.112
499.11
499.108
499.105
499.103
499.101
499.098
499.096
499.093
499.091
499.088
499.086
499.083
499.081
499.078
499.075
499.073
499.07
499.067
499.064
499.062
499.059
499.056
499.053
499.05
499.047
499.044
499.041
499.038
499.035
499.032
499.028
499.025
499.022
499.019
499.015
499.012
499.008
499.005
499.001
498.998
498.994
498.99
498.987
498.983
498.979
498.975
498.971
498.967
498.963
498.959
498.955
498.95
498.946
498.942
498.937
498.933
498.928
498.923
498.919
498.914
498.909
498.904
498.899
498.894
498.888
498.883
498.878
498.872
498.867
498.861
498.855
498.849
498.843
498.837
498.831
498.825
498.818
498.812
498.805
498.799
498.792
498.785
498.777
498.77
498.763
498.755
498.747
498.739
498.731
498.723
498.715
498.706
498.697
498.688
498.679
498.67
498.66
498.65
498.64
498.63
498.62
498.609
498.598
498.587
498.575
498.563
498.551
498.538
498.526
498.513
498.499
498.485
498.471
498.456
498.441
498.426
498.41
498.393
498.376
498.359
498.341
498.322
498.303
498.283
498.262
498.241
498.219
498.196
498.172
498.148
498.122
498.096
498.068
498.039
498.01
497.978
497.946
497.911
497.876
497.838
497.799
497.758
497.715
497.669
497.62
497.568
497.512
497.453
497.39
497.324
497.256
497.187
497.117
497.047
496.976
496.902
496.819
496.719
496.59
496.414
496.168
495.823
495.345
494.693
493.823
492.687
491.235
489.418
487.19
484.507
481.337
477.652
473.439
468.697
463.435
457.681
451.471
444.858
437.902
430.674
423.25
415.711
408.137
400.608
393.2
385.983
379.017
372.357
366.045
360.114
354.589
349.483
344.802
340.543
336.697
333.249
330.18
327.467
325.085
323.008
321.208
319.659
318.333
317.206
316.253
315.453
314.785
314.23
313.772
313.396
313.088
312.839
312.637
312.475
312.345
312.241
312.159
312.094
312.042
312.002
311.97
311.946
311.926
311.911
311.899
311.89
311.883
311.877
311.873
311.869
311.866
311.864
311.862
311.86
311.859
311.858
311.857
311.856
311.855
311.854
311.854
311.853
311.853
311.852
311.852
311.852
311.851
311.851
311.851
311.851
311.85
311.85
311.85
311.85
311.849
311.849
311.849
311.849
311.849
311.848
311.848
311.848
311.848
311.848
311.848
311.847
311.847
311.847
311.847
311.847
311.847
311.846
311.846
311.846
311.846
311.846
311.845
311.845
311.845
311.845
311.845
311.845
311.844
311.844
311.844
311.844
311.844
311.843
311.843
311.843
311.843
311.843
311.843
311.843
311.842
311.842
311.842
311.842
311.842
311.842
311.842
311.841
311.841
311.841
311.841
311.841
311.841
311.841
311.84
311.84
311.84
311.84
311.84
311.84
311.84
311.839
311.839
311.839
311.839
311.839
311.839
311.839
311.839
311.838
311.838
311.837
311.836
311.834
311.831
311.826
311.819
311.808
311.794
311.777
311.754
311.726
311.694
311.656
311.614
311.568
311.521
311.472
311.424
311.378
311.335
311.296
311.263
311.234
311.211
311.193
311.179
311.169
311.162
311.157
311.154
311.153
311.151
311.151
311.15
311.15
311.15
311.15
)
;

boundaryField
{
    sides
    {
        type            calculated;
        value           nonuniform List<scalar> 2(311.15 -2.15477e-08);
    }
    empty
    {
        type            empty;
        value           nonuniform 0();
    }
}


// ************************************************************************* //
