/*--------------------------------*- C++ -*----------------------------------*\
| =========                 |                                                 |
| \\      /  F ield         | OpenFOAM: The Open Source CFD Toolbox           |
|  \\    /   O peration     | Version:  3.0.0                                 |
|   \\  /    A nd           | Web:      www.OpenFOAM.org                      |
|    \\/     M anipulation  |                                                 |
\*---------------------------------------------------------------------------*/
FoamFile
{
    version     2.0;
    format      ascii;
    class       volScalarField;
    location    "0.011";
    object      T;
}
// * * * * * * * * * * * * * * * * * * * * * * * * * * * * * * * * * * * * * //

dimensions      [0 0 0 1 0 0 0];

internalField   nonuniform List<scalar> 
1000
(
348.432
348.432
348.432
348.432
348.432
348.432
348.432
348.432
348.432
348.432
348.432
348.432
348.432
348.432
348.432
348.432
348.432
348.432
348.432
348.432
348.432
348.432
348.432
348.432
348.432
348.432
348.432
348.432
348.432
348.432
348.432
348.432
348.432
348.432
348.432
348.431
348.431
348.431
348.431
348.43
348.43
348.429
348.428
348.427
348.426
348.424
348.422
348.42
348.417
348.413
348.409
348.404
348.397
348.39
348.381
348.371
348.359
348.344
348.328
348.309
348.287
348.262
348.234
348.202
348.166
348.126
348.081
348.031
347.977
347.917
347.851
347.78
347.703
347.62
347.53
347.435
347.333
347.225
347.111
346.99
346.864
346.731
346.593
346.448
346.298
346.143
345.982
345.816
345.646
345.47
345.29
345.106
344.917
344.725
344.528
344.329
344.125
343.919
343.709
343.496
343.281
343.063
342.842
342.619
342.394
342.167
341.938
341.707
341.474
341.239
341.003
340.765
340.526
340.285
340.043
339.8
339.555
339.31
339.063
338.816
338.567
338.318
338.067
337.816
337.564
337.312
337.058
336.804
336.55
336.294
336.038
335.782
335.525
335.267
335.009
334.751
334.492
334.233
333.973
333.713
333.452
333.191
332.93
332.669
332.407
332.145
331.883
331.62
331.357
331.094
330.831
330.567
330.304
330.04
329.776
329.511
329.247
328.983
328.718
328.453
328.188
327.923
327.658
327.393
327.127
326.862
326.596
326.331
326.065
325.799
325.534
325.268
325.002
324.736
324.47
324.204
323.938
323.672
323.406
323.14
322.874
322.607
322.341
322.075
321.809
321.543
321.277
321.011
320.745
320.479
320.213
319.946
319.68
319.414
319.149
318.883
318.617
318.351
318.085
317.819
317.553
317.288
317.022
316.756
316.491
316.225
315.96
315.695
315.429
315.164
314.899
314.633
314.368
314.103
313.838
313.573
313.308
313.044
312.779
312.514
312.25
311.985
311.721
311.456
311.192
310.928
310.664
310.4
310.136
309.872
309.608
309.344
309.08
308.817
308.553
308.29
308.027
307.763
307.5
307.237
306.974
306.711
306.449
306.186
305.923
305.661
305.398
305.136
304.874
304.612
304.35
304.088
303.826
303.564
303.302
303.041
302.779
302.518
302.257
301.996
301.735
301.474
301.213
300.952
300.691
300.431
300.17
299.91
299.65
299.39
299.13
298.87
298.61
298.35
298.091
297.831
297.572
297.313
297.053
296.794
296.536
296.277
296.018
295.759
295.501
295.243
294.984
294.726
294.468
294.21
293.953
293.695
293.437
293.18
292.923
292.665
292.408
292.151
291.895
291.638
291.381
291.124
290.869
290.611
290.358
290.096
289.849
289.581
289.343
289.062
288.841
288.542
288.341
288.021
287.84
287.506
287.333
287
286.815
286.506
286.289
286.015
285.766
285.519
285.253
285.012
284.75
284.5
284.248
283.991
283.743
283.488
283.235
282.984
282.73
282.479
282.227
281.975
281.724
281.472
281.22
280.969
280.718
280.467
280.216
279.965
279.715
279.465
279.214
278.964
278.714
278.464
278.215
277.965
277.716
277.467
277.218
276.969
276.72
276.471
276.223
275.975
275.727
275.479
275.231
274.983
274.736
274.489
274.242
273.995
273.748
273.501
273.255
273.009
272.763
272.517
272.271
272.026
271.781
271.536
271.291
271.046
270.802
270.557
270.313
270.069
269.826
269.582
269.339
269.096
268.853
268.611
268.368
268.126
267.884
267.643
267.401
267.16
266.919
266.679
266.438
266.198
265.959
265.719
265.48
265.241
265.002
264.764
264.526
264.288
264.051
263.814
263.577
263.341
263.105
262.869
262.634
262.399
262.165
261.931
261.697
261.464
261.231
260.999
260.768
260.536
260.306
260.075
259.846
259.617
259.388
259.16
258.933
258.707
258.481
258.255
258.031
257.807
257.584
257.362
257.141
256.921
256.701
256.483
256.265
256.049
255.833
255.619
255.406
255.194
254.984
254.775
254.567
254.361
254.156
253.953
253.752
253.552
253.354
253.159
252.965
252.773
252.584
252.397
252.212
252.03
251.85
251.673
251.499
251.328
251.16
250.996
250.835
250.677
250.523
250.372
250.226
250.083
249.945
249.811
249.681
249.556
249.435
249.319
249.208
249.101
249
248.903
248.811
248.724
248.642
248.566
248.493
248.426
248.363
248.305
248.251
248.202
248.157
248.116
248.078
248.044
248.014
247.987
247.962
247.941
247.922
247.905
247.89
247.878
247.867
247.857
247.849
247.842
247.837
247.832
247.828
247.824
247.822
247.819
247.818
247.816
247.815
247.814
247.814
247.813
247.813
247.813
247.813
247.813
247.813
247.813
247.813
247.814
247.814
247.814
247.815
247.815
247.815
247.816
247.816
247.817
247.817
247.818
247.818
247.819
247.819
247.82
247.82
247.821
247.821
247.822
247.822
247.823
247.823
247.824
247.824
247.825
247.825
247.826
247.826
247.827
247.827
247.828
247.828
247.829
247.83
247.83
247.831
247.831
247.832
247.833
247.833
247.834
247.834
247.835
247.836
247.836
247.837
247.837
247.838
247.839
247.839
247.84
247.841
247.841
247.842
247.843
247.843
247.844
247.845
247.845
247.846
247.847
247.848
247.848
247.849
247.85
247.851
247.851
247.852
247.853
247.854
247.854
247.855
247.856
247.857
247.858
247.858
247.859
247.86
247.861
247.862
247.863
247.863
247.864
247.865
247.866
247.867
247.868
247.869
247.87
247.871
247.872
247.873
247.874
247.875
247.876
247.877
247.878
247.879
247.88
247.881
247.882
247.883
247.884
247.885
247.886
247.888
247.889
247.89
247.891
247.892
247.893
247.894
247.896
247.897
247.898
247.899
247.901
247.902
247.903
247.904
247.906
247.907
247.908
247.91
247.911
247.913
247.914
247.915
247.917
247.918
247.92
247.921
247.923
247.924
247.926
247.928
247.929
247.931
247.932
247.934
247.936
247.938
247.939
247.941
247.943
247.945
247.946
247.948
247.95
247.952
247.954
247.956
247.958
247.96
247.962
247.964
247.966
247.968
247.971
247.973
247.975
247.977
247.98
247.982
247.984
247.987
247.989
247.992
247.994
247.997
248
248.002
248.005
248.008
248.011
248.013
248.016
248.019
248.022
248.025
248.029
248.032
248.035
248.038
248.042
248.045
248.049
248.052
248.056
248.06
248.063
248.067
248.071
248.075
248.079
248.084
248.088
248.092
248.097
248.101
248.106
248.111
248.116
248.121
248.126
248.131
248.137
248.142
248.148
248.154
248.16
248.166
248.172
248.178
248.185
248.192
248.199
248.206
248.213
248.221
248.229
248.237
248.245
248.254
248.262
248.272
248.281
248.291
248.301
248.311
248.322
248.333
248.345
248.357
248.369
248.382
248.395
248.409
248.424
248.439
248.455
248.472
248.489
248.507
248.526
248.546
248.567
248.59
248.613
248.638
248.665
248.694
248.725
248.757
248.79
248.825
248.86
248.894
248.93
248.966
249.004
249.049
249.104
249.178
249.281
249.425
249.627
249.907
250.285
250.787
251.44
252.271
253.31
254.584
256.121
257.948
260.086
262.557
265.375
268.551
272.089
275.988
280.238
284.825
289.723
294.904
300.327
305.951
311.722
317.588
323.491
329.371
335.169
340.83
346.301
351.536
356.495
361.148
365.47
369.447
373.072
376.347
379.28
381.883
384.174
386.174
387.907
389.397
390.669
391.746
392.653
393.411
394.04
394.56
394.986
395.334
395.617
395.845
396.028
396.174
396.29
396.383
396.455
396.513
396.558
396.593
396.62
396.642
396.659
396.672
396.682
396.69
396.697
396.702
396.706
396.709
396.712
396.714
396.716
396.717
396.719
396.72
396.721
396.721
396.722
396.723
396.723
396.724
396.724
396.724
396.725
396.725
396.725
396.726
396.726
396.726
396.726
396.727
396.727
396.727
396.727
396.727
396.727
396.728
396.728
396.728
396.728
396.728
396.728
396.729
396.729
396.729
396.729
396.729
396.729
396.729
396.73
396.73
396.73
396.73
396.73
396.73
396.731
396.731
396.731
396.731
396.731
396.731
396.731
396.731
396.732
396.732
396.732
396.732
396.732
396.732
396.732
396.732
396.733
396.733
396.733
396.733
396.733
396.733
396.733
396.733
396.733
396.733
396.733
396.733
396.733
396.734
396.734
396.734
396.734
396.734
396.734
396.734
396.734
396.734
396.734
396.734
396.734
396.734
396.734
396.734
396.734
396.734
396.735
396.735
396.736
396.738
396.74
396.746
396.752
396.762
396.777
396.796
396.821
396.852
396.89
396.936
396.988
397.046
397.108
397.174
397.241
397.307
397.37
397.429
397.482
397.528
397.567
397.598
397.623
397.642
397.656
397.665
397.672
397.676
397.678
397.679
397.68
397.68
397.68
397.68
397.68
)
;

boundaryField
{
    sides
    {
        type            zeroGradient;
    }
    empty
    {
        type            empty;
    }
}


// ************************************************************************* //
