/*--------------------------------*- C++ -*----------------------------------*\
| =========                 |                                                 |
| \\      /  F ield         | OpenFOAM: The Open Source CFD Toolbox           |
|  \\    /   O peration     | Version:  3.0.0                                 |
|   \\  /    A nd           | Web:      www.OpenFOAM.org                      |
|    \\/     M anipulation  |                                                 |
\*---------------------------------------------------------------------------*/
FoamFile
{
    version     2.0;
    format      ascii;
    class       volVectorField;
    location    "0.011";
    object      U;
}
// * * * * * * * * * * * * * * * * * * * * * * * * * * * * * * * * * * * * * //

dimensions      [0 1 -1 0 0 0 0];

internalField   nonuniform List<vector> 
1000
(
(6.34329e-09 0 0)
(1.69721e-08 0 0)
(2.73421e-08 0 0)
(4.19888e-08 0 0)
(6.28269e-08 0 0)
(9.28075e-08 0 0)
(1.36062e-07 0 0)
(1.98436e-07 0 0)
(2.88188e-07 0 0)
(4.16957e-07 0 0)
(6.01108e-07 0 0)
(8.63549e-07 0 0)
(1.23625e-06 0 0)
(1.76362e-06 0 0)
(2.50715e-06 0 0)
(3.5516e-06 0 0)
(5.01331e-06 0 0)
(7.0514e-06 0 0)
(9.88244e-06 0 0)
(1.38001e-05 0 0)
(1.92007e-05 0 0)
(2.66171e-05 0 0)
(3.67622e-05 0 0)
(5.05857e-05 0 0)
(6.93472e-05 0 0)
(9.47097e-05 0 0)
(0.000128858 0 0)
(0.000174651 0 0)
(0.000235809 0 0)
(0.000317153 0 0)
(0.000424895 0 0)
(0.000567008 0 0)
(0.000753665 0 0)
(0.000997786 0 0)
(0.00131569 0 0)
(0.00172788 0 0)
(0.00225999 0 0)
(0.00294387 0 0)
(0.00381888 0 0)
(0.0049334 0 0)
(0.00634655 0 0)
(0.00813011 0 0)
(0.0103707 0 0)
(0.0131724 0 0)
(0.0166589 0 0)
(0.0209771 0 0)
(0.0262995 0 0)
(0.0328279 0 0)
(0.0407961 0 0)
(0.0504734 0 0)
(0.062168 0 0)
(0.0762292 0 0)
(0.0930502 0 0)
(0.11307 0 0)
(0.136775 0 0)
(0.164698 0 0)
(0.19742 0 0)
(0.235568 0 0)
(0.279808 0 0)
(0.330848 0 0)
(0.389428 0 0)
(0.456313 0 0)
(0.532289 0 0)
(0.618149 0 0)
(0.714688 0 0)
(0.822691 0 0)
(0.942921 0 0)
(1.07611 0 0)
(1.22295 0 0)
(1.38409 0 0)
(1.5601 0 0)
(1.7515 0 0)
(1.95873 0 0)
(2.18215 0 0)
(2.42205 0 0)
(2.67863 0 0)
(2.95201 0 0)
(3.24223 0 0)
(3.54925 0 0)
(3.87296 0 0)
(4.21318 0 0)
(4.56967 0 0)
(4.94213 0 0)
(5.33023 0 0)
(5.73356 0 0)
(6.1517 0 0)
(6.58421 0 0)
(7.0306 0 0)
(7.49038 0 0)
(7.96306 0 0)
(8.44812 0 0)
(8.94505 0 0)
(9.45335 0 0)
(9.97252 0 0)
(10.5021 0 0)
(11.0415 0 0)
(11.5903 0 0)
(12.1482 0 0)
(12.7145 0 0)
(13.289 0 0)
(13.8712 0 0)
(14.4607 0 0)
(15.0572 0 0)
(15.6603 0 0)
(16.2697 0 0)
(16.885 0 0)
(17.506 0 0)
(18.1324 0 0)
(18.7638 0 0)
(19.4002 0 0)
(20.0411 0 0)
(20.6865 0 0)
(21.336 0 0)
(21.9895 0 0)
(22.6468 0 0)
(23.3077 0 0)
(23.972 0 0)
(24.6397 0 0)
(25.3105 0 0)
(25.9843 0 0)
(26.6609 0 0)
(27.3403 0 0)
(28.0223 0 0)
(28.7069 0 0)
(29.3938 0 0)
(30.083 0 0)
(30.7745 0 0)
(31.4681 0 0)
(32.1637 0 0)
(32.8612 0 0)
(33.5607 0 0)
(34.2619 0 0)
(34.9649 0 0)
(35.6695 0 0)
(36.3758 0 0)
(37.0836 0 0)
(37.7928 0 0)
(38.5035 0 0)
(39.2156 0 0)
(39.929 0 0)
(40.6437 0 0)
(41.3596 0 0)
(42.0767 0 0)
(42.795 0 0)
(43.5143 0 0)
(44.2347 0 0)
(44.9562 0 0)
(45.6786 0 0)
(46.402 0 0)
(47.1263 0 0)
(47.8515 0 0)
(48.5776 0 0)
(49.3045 0 0)
(50.0322 0 0)
(50.7607 0 0)
(51.4899 0 0)
(52.2198 0 0)
(52.9505 0 0)
(53.6818 0 0)
(54.4138 0 0)
(55.1464 0 0)
(55.8796 0 0)
(56.6134 0 0)
(57.3478 0 0)
(58.0827 0 0)
(58.8182 0 0)
(59.5542 0 0)
(60.2907 0 0)
(61.0277 0 0)
(61.7652 0 0)
(62.5031 0 0)
(63.2415 0 0)
(63.9803 0 0)
(64.7195 0 0)
(65.4591 0 0)
(66.1991 0 0)
(66.9395 0 0)
(67.6803 0 0)
(68.4215 0 0)
(69.1629 0 0)
(69.9048 0 0)
(70.6469 0 0)
(71.3894 0 0)
(72.1322 0 0)
(72.8753 0 0)
(73.6186 0 0)
(74.3623 0 0)
(75.1062 0 0)
(75.8505 0 0)
(76.5949 0 0)
(77.3397 0 0)
(78.0846 0 0)
(78.8299 0 0)
(79.5753 0 0)
(80.321 0 0)
(81.0669 0 0)
(81.813 0 0)
(82.5594 0 0)
(83.3059 0 0)
(84.0526 0 0)
(84.7996 0 0)
(85.5467 0 0)
(86.294 0 0)
(87.0415 0 0)
(87.7892 0 0)
(88.537 0 0)
(89.285 0 0)
(90.0332 0 0)
(90.7815 0 0)
(91.53 0 0)
(92.2786 0 0)
(93.0273 0 0)
(93.7763 0 0)
(94.5253 0 0)
(95.2745 0 0)
(96.0238 0 0)
(96.7732 0 0)
(97.5228 0 0)
(98.2725 0 0)
(99.0223 0 0)
(99.7722 0 0)
(100.522 0 0)
(101.272 0 0)
(102.023 0 0)
(102.773 0 0)
(103.523 0 0)
(104.274 0 0)
(105.025 0 0)
(105.775 0 0)
(106.526 0 0)
(107.277 0 0)
(108.028 0 0)
(108.779 0 0)
(109.53 0 0)
(110.281 0 0)
(111.033 0 0)
(111.784 0 0)
(112.536 0 0)
(113.287 0 0)
(114.039 0 0)
(114.79 0 0)
(115.542 0 0)
(116.294 0 0)
(117.046 0 0)
(117.798 0 0)
(118.549 0 0)
(119.301 0 0)
(120.053 0 0)
(120.806 0 0)
(121.558 0 0)
(122.31 0 0)
(123.062 0 0)
(123.814 0 0)
(124.567 0 0)
(125.319 0 0)
(126.072 0 0)
(126.824 0 0)
(127.576 0 0)
(128.329 0 0)
(129.081 0 0)
(129.834 0 0)
(130.587 0 0)
(131.339 0 0)
(132.092 0 0)
(132.845 0 0)
(133.597 0 0)
(134.35 0 0)
(135.103 0 0)
(135.855 0 0)
(136.608 0 0)
(137.361 0 0)
(138.114 0 0)
(138.867 0 0)
(139.62 0 0)
(140.372 0 0)
(141.125 0 0)
(141.878 0 0)
(142.631 0 0)
(143.384 0 0)
(144.137 0 0)
(144.89 0 0)
(145.642 0 0)
(146.395 0 0)
(147.148 0 0)
(147.901 0 0)
(148.654 0 0)
(149.407 0 0)
(150.16 0 0)
(150.913 0 0)
(151.665 0 0)
(152.418 0 0)
(153.171 0 0)
(153.924 0 0)
(154.677 0 0)
(155.43 0 0)
(156.182 0 0)
(156.935 0 0)
(157.688 0 0)
(158.441 0 0)
(159.193 0 0)
(159.946 0 0)
(160.699 0 0)
(161.451 0 0)
(162.204 0 0)
(162.957 0 0)
(163.709 0 0)
(164.462 0 0)
(165.214 0 0)
(165.967 0 0)
(166.719 0 0)
(167.471 0 0)
(168.224 0 0)
(168.976 0 0)
(169.728 0 0)
(170.481 0 0)
(171.233 0 0)
(171.985 0 0)
(172.737 0 0)
(173.489 0 0)
(174.241 0 0)
(174.993 0 0)
(175.745 0 0)
(176.497 0 0)
(177.249 0 0)
(178.001 0 0)
(178.752 0 0)
(179.504 0 0)
(180.255 0 0)
(181.007 0 0)
(181.758 0 0)
(182.51 0 0)
(183.261 0 0)
(184.012 0 0)
(184.764 0 0)
(185.515 0 0)
(186.266 0 0)
(187.017 0 0)
(187.767 0 0)
(188.518 0 0)
(189.269 0 0)
(190.02 0 0)
(190.77 0 0)
(191.521 0 0)
(192.271 0 0)
(193.021 0 0)
(193.771 0 0)
(194.521 0 0)
(195.271 0 0)
(196.021 0 0)
(196.771 0 0)
(197.52 0 0)
(198.27 0 0)
(199.019 0 0)
(199.768 0 0)
(200.518 0 0)
(201.267 0 0)
(202.015 0 0)
(202.764 0 0)
(203.513 0 0)
(204.261 0 0)
(205.009 0 0)
(205.758 0 0)
(206.506 0 0)
(207.253 0 0)
(208.001 0 0)
(208.749 0 0)
(209.496 0 0)
(210.243 0 0)
(210.99 0 0)
(211.737 0 0)
(212.483 0 0)
(213.23 0 0)
(213.976 0 0)
(214.722 0 0)
(215.468 0 0)
(216.213 0 0)
(216.959 0 0)
(217.704 0 0)
(218.448 0 0)
(219.193 0 0)
(219.937 0 0)
(220.681 0 0)
(221.425 0 0)
(222.169 0 0)
(222.912 0 0)
(223.655 0 0)
(224.398 0 0)
(225.14 0 0)
(225.882 0 0)
(226.624 0 0)
(227.365 0 0)
(228.106 0 0)
(228.846 0 0)
(229.587 0 0)
(230.327 0 0)
(231.066 0 0)
(231.805 0 0)
(232.544 0 0)
(233.282 0 0)
(234.019 0 0)
(234.757 0 0)
(235.493 0 0)
(236.229 0 0)
(236.965 0 0)
(237.7 0 0)
(238.435 0 0)
(239.169 0 0)
(239.902 0 0)
(240.635 0 0)
(241.367 0 0)
(242.098 0 0)
(242.829 0 0)
(243.559 0 0)
(244.288 0 0)
(245.017 0 0)
(245.744 0 0)
(246.471 0 0)
(247.197 0 0)
(247.922 0 0)
(248.646 0 0)
(249.369 0 0)
(250.091 0 0)
(250.812 0 0)
(251.532 0 0)
(252.25 0 0)
(252.968 0 0)
(253.684 0 0)
(254.399 0 0)
(255.112 0 0)
(255.824 0 0)
(256.535 0 0)
(257.244 0 0)
(257.951 0 0)
(258.657 0 0)
(259.361 0 0)
(260.063 0 0)
(260.763 0 0)
(261.461 0 0)
(262.157 0 0)
(262.85 0 0)
(263.542 0 0)
(264.23 0 0)
(264.917 0 0)
(265.6 0 0)
(266.281 0 0)
(266.959 0 0)
(267.634 0 0)
(268.306 0 0)
(268.974 0 0)
(269.638 0 0)
(270.299 0 0)
(270.956 0 0)
(271.609 0 0)
(272.258 0 0)
(272.902 0 0)
(273.541 0 0)
(274.175 0 0)
(274.804 0 0)
(275.428 0 0)
(276.046 0 0)
(276.657 0 0)
(277.263 0 0)
(277.861 0 0)
(278.453 0 0)
(279.038 0 0)
(279.615 0 0)
(280.184 0 0)
(280.744 0 0)
(281.296 0 0)
(281.839 0 0)
(282.372 0 0)
(282.895 0 0)
(283.408 0 0)
(283.91 0 0)
(284.401 0 0)
(284.88 0 0)
(285.348 0 0)
(285.803 0 0)
(286.245 0 0)
(286.674 0 0)
(287.089 0 0)
(287.491 0 0)
(287.878 0 0)
(288.251 0 0)
(288.609 0 0)
(288.951 0 0)
(289.279 0 0)
(289.591 0 0)
(289.887 0 0)
(290.168 0 0)
(290.433 0 0)
(290.683 0 0)
(290.918 0 0)
(291.137 0 0)
(291.342 0 0)
(291.531 0 0)
(291.707 0 0)
(291.869 0 0)
(292.017 0 0)
(292.153 0 0)
(292.277 0 0)
(292.389 0 0)
(292.49 0 0)
(292.581 0 0)
(292.662 0 0)
(292.734 0 0)
(292.798 0 0)
(292.855 0 0)
(292.904 0 0)
(292.948 0 0)
(292.985 0 0)
(293.018 0 0)
(293.046 0 0)
(293.07 0 0)
(293.091 0 0)
(293.109 0 0)
(293.124 0 0)
(293.136 0 0)
(293.147 0 0)
(293.156 0 0)
(293.163 0 0)
(293.169 0 0)
(293.174 0 0)
(293.179 0 0)
(293.182 0 0)
(293.185 0 0)
(293.187 0 0)
(293.189 0 0)
(293.191 0 0)
(293.192 0 0)
(293.194 0 0)
(293.194 0 0)
(293.195 0 0)
(293.196 0 0)
(293.196 0 0)
(293.197 0 0)
(293.197 0 0)
(293.197 0 0)
(293.198 0 0)
(293.198 0 0)
(293.198 0 0)
(293.198 0 0)
(293.198 0 0)
(293.198 0 0)
(293.199 0 0)
(293.199 0 0)
(293.199 0 0)
(293.199 0 0)
(293.199 0 0)
(293.199 0 0)
(293.199 0 0)
(293.199 0 0)
(293.199 0 0)
(293.199 0 0)
(293.199 0 0)
(293.199 0 0)
(293.199 0 0)
(293.199 0 0)
(293.2 0 0)
(293.2 0 0)
(293.2 0 0)
(293.2 0 0)
(293.2 0 0)
(293.2 0 0)
(293.2 0 0)
(293.2 0 0)
(293.2 0 0)
(293.2 0 0)
(293.2 0 0)
(293.2 0 0)
(293.2 0 0)
(293.2 0 0)
(293.2 0 0)
(293.2 0 0)
(293.2 0 0)
(293.2 0 0)
(293.2 0 0)
(293.2 0 0)
(293.2 0 0)
(293.2 0 0)
(293.2 0 0)
(293.201 0 0)
(293.201 0 0)
(293.201 0 0)
(293.201 0 0)
(293.201 0 0)
(293.201 0 0)
(293.201 0 0)
(293.201 0 0)
(293.201 0 0)
(293.201 0 0)
(293.201 0 0)
(293.201 0 0)
(293.201 0 0)
(293.201 0 0)
(293.201 0 0)
(293.201 0 0)
(293.201 0 0)
(293.201 0 0)
(293.202 0 0)
(293.202 0 0)
(293.202 0 0)
(293.202 0 0)
(293.202 0 0)
(293.202 0 0)
(293.202 0 0)
(293.202 0 0)
(293.202 0 0)
(293.202 0 0)
(293.202 0 0)
(293.202 0 0)
(293.202 0 0)
(293.202 0 0)
(293.202 0 0)
(293.202 0 0)
(293.202 0 0)
(293.202 0 0)
(293.202 0 0)
(293.202 0 0)
(293.202 0 0)
(293.202 0 0)
(293.202 0 0)
(293.202 0 0)
(293.202 0 0)
(293.202 0 0)
(293.202 0 0)
(293.202 0 0)
(293.202 0 0)
(293.202 0 0)
(293.202 0 0)
(293.202 0 0)
(293.202 0 0)
(293.202 0 0)
(293.202 0 0)
(293.202 0 0)
(293.202 0 0)
(293.202 0 0)
(293.202 0 0)
(293.202 0 0)
(293.202 0 0)
(293.202 0 0)
(293.202 0 0)
(293.202 0 0)
(293.202 0 0)
(293.202 0 0)
(293.202 0 0)
(293.202 0 0)
(293.202 0 0)
(293.202 0 0)
(293.202 0 0)
(293.202 0 0)
(293.202 0 0)
(293.202 0 0)
(293.202 0 0)
(293.202 0 0)
(293.202 0 0)
(293.202 0 0)
(293.202 0 0)
(293.202 0 0)
(293.202 0 0)
(293.202 0 0)
(293.202 0 0)
(293.202 0 0)
(293.202 0 0)
(293.202 0 0)
(293.202 0 0)
(293.202 0 0)
(293.202 0 0)
(293.202 0 0)
(293.202 0 0)
(293.202 0 0)
(293.202 0 0)
(293.202 0 0)
(293.202 0 0)
(293.202 0 0)
(293.202 0 0)
(293.202 0 0)
(293.202 0 0)
(293.202 0 0)
(293.202 0 0)
(293.202 0 0)
(293.202 0 0)
(293.202 0 0)
(293.202 0 0)
(293.202 0 0)
(293.202 0 0)
(293.202 0 0)
(293.203 0 0)
(293.203 0 0)
(293.203 0 0)
(293.203 0 0)
(293.203 0 0)
(293.203 0 0)
(293.203 0 0)
(293.203 0 0)
(293.203 0 0)
(293.203 0 0)
(293.203 0 0)
(293.203 0 0)
(293.203 0 0)
(293.203 0 0)
(293.203 0 0)
(293.203 0 0)
(293.203 0 0)
(293.203 0 0)
(293.203 0 0)
(293.203 0 0)
(293.203 0 0)
(293.203 0 0)
(293.203 0 0)
(293.203 0 0)
(293.203 0 0)
(293.203 0 0)
(293.203 0 0)
(293.203 0 0)
(293.203 0 0)
(293.203 0 0)
(293.203 0 0)
(293.203 0 0)
(293.203 0 0)
(293.203 0 0)
(293.203 0 0)
(293.203 0 0)
(293.203 0 0)
(293.203 0 0)
(293.203 0 0)
(293.203 0 0)
(293.203 0 0)
(293.203 0 0)
(293.203 0 0)
(293.203 0 0)
(293.203 0 0)
(293.203 0 0)
(293.203 0 0)
(293.203 0 0)
(293.203 0 0)
(293.203 0 0)
(293.203 0 0)
(293.203 0 0)
(293.203 0 0)
(293.203 0 0)
(293.203 0 0)
(293.203 0 0)
(293.203 0 0)
(293.203 0 0)
(293.203 0 0)
(293.203 0 0)
(293.203 0 0)
(293.203 0 0)
(293.203 0 0)
(293.203 0 0)
(293.203 0 0)
(293.203 0 0)
(293.203 0 0)
(293.203 0 0)
(293.203 0 0)
(293.203 0 0)
(293.203 0 0)
(293.203 0 0)
(293.203 0 0)
(293.203 0 0)
(293.203 0 0)
(293.203 0 0)
(293.203 0 0)
(293.203 0 0)
(293.203 0 0)
(293.203 0 0)
(293.203 0 0)
(293.203 0 0)
(293.203 0 0)
(293.203 0 0)
(293.203 0 0)
(293.203 0 0)
(293.203 0 0)
(293.203 0 0)
(293.203 0 0)
(293.203 0 0)
(293.203 0 0)
(293.203 0 0)
(293.203 0 0)
(293.203 0 0)
(293.203 0 0)
(293.203 0 0)
(293.203 0 0)
(293.203 0 0)
(293.203 0 0)
(293.203 0 0)
(293.203 0 0)
(293.203 0 0)
(293.203 0 0)
(293.202 0 0)
(293.202 0 0)
(293.202 0 0)
(293.202 0 0)
(293.202 0 0)
(293.202 0 0)
(293.202 0 0)
(293.202 0 0)
(293.202 0 0)
(293.202 0 0)
(293.202 0 0)
(293.202 0 0)
(293.202 0 0)
(293.202 0 0)
(293.202 0 0)
(293.201 0 0)
(293.201 0 0)
(293.2 0 0)
(293.199 0 0)
(293.198 0 0)
(293.197 0 0)
(293.196 0 0)
(293.194 0 0)
(293.193 0 0)
(293.191 0 0)
(293.189 0 0)
(293.188 0 0)
(293.187 0 0)
(293.185 0 0)
(293.184 0 0)
(293.184 0 0)
(293.184 0 0)
(293.184 0 0)
(293.185 0 0)
(293.185 0 0)
(293.187 0 0)
(293.188 0 0)
(293.189 0 0)
(293.191 0 0)
(293.192 0 0)
(293.194 0 0)
(293.195 0 0)
(293.196 0 0)
(293.197 0 0)
(293.198 0 0)
(293.199 0 0)
(293.2 0 0)
(293.2 0 0)
(293.201 0 0)
(293.201 0 0)
(293.201 0 0)
(293.201 0 0)
(293.202 0 0)
(293.202 0 0)
(293.202 0 0)
(293.202 0 0)
(293.202 0 0)
(293.202 0 0)
(293.202 0 0)
(293.202 0 0)
(293.202 0 0)
(293.202 0 0)
(293.202 0 0)
(293.202 0 0)
(293.202 0 0)
(293.202 0 0)
(293.202 0 0)
(293.202 0 0)
(293.202 0 0)
(293.202 0 0)
(293.201 0 0)
(293.201 0 0)
(293.202 0 0)
(293.202 0 0)
(293.202 0 0)
(293.202 0 0)
(293.202 0 0)
(293.201 0 0)
(293.201 0 0)
(293.201 0 0)
(293.201 0 0)
(293.201 0 0)
(293.201 0 0)
(293.201 0 0)
(293.201 0 0)
(293.201 0 0)
(293.201 0 0)
(293.201 0 0)
(293.201 0 0)
(293.201 0 0)
(293.201 0 0)
(293.201 0 0)
(293.201 0 0)
(293.201 0 0)
(293.201 0 0)
(293.201 0 0)
(293.201 0 0)
(293.201 0 0)
(293.201 0 0)
(293.201 0 0)
(293.201 0 0)
(293.201 0 0)
(293.201 0 0)
(293.201 0 0)
(293.201 0 0)
(293.201 0 0)
(293.201 0 0)
(293.201 0 0)
(293.201 0 0)
(293.201 0 0)
(293.201 0 0)
(293.201 0 0)
(293.201 0 0)
(293.201 0 0)
(293.2 0 0)
(293.2 0 0)
(293.2 0 0)
(293.2 0 0)
(293.2 0 0)
(293.2 0 0)
(293.2 0 0)
(293.2 0 0)
(293.2 0 0)
(293.2 0 0)
(293.2 0 0)
(293.2 0 0)
(293.2 0 0)
(293.2 0 0)
(293.2 0 0)
(293.2 0 0)
(293.2 0 0)
(293.2 0 0)
(293.2 0 0)
(293.2 0 0)
(293.2 0 0)
(293.2 0 0)
(293.2 0 0)
(293.2 0 0)
(293.2 0 0)
(293.2 0 0)
(293.2 0 0)
(293.2 0 0)
(293.2 0 0)
(293.2 0 0)
(293.2 0 0)
(293.2 0 0)
(293.2 0 0)
(293.2 0 0)
(293.2 0 0)
(293.2 0 0)
(293.2 0 0)
(293.2 0 0)
(293.199 0 0)
(293.199 0 0)
(293.199 0 0)
(293.199 0 0)
(293.199 0 0)
(293.199 0 0)
(293.199 0 0)
(293.199 0 0)
(293.199 0 0)
(293.199 0 0)
(293.199 0 0)
(293.199 0 0)
(293.199 0 0)
(293.2 0 0)
(293.2 0 0)
(293.2 0 0)
(293.2 0 0)
(293.2 0 0)
(293.2 0 0)
(293.2 0 0)
(293.199 0 0)
(293.197 0 0)
(293.193 0 0)
(293.186 0 0)
(293.175 0 0)
(293.158 0 0)
(293.134 0 0)
(293.099 0 0)
(293.053 0 0)
(292.992 0 0)
(292.916 0 0)
(292.822 0 0)
(292.711 0 0)
(292.583 0 0)
(292.439 0 0)
(292.284 0 0)
(292.12 0 0)
(291.953 0 0)
(291.787 0 0)
(291.627 0 0)
(291.478 0 0)
(291.343 0 0)
(291.224 0 0)
(291.124 0 0)
(291.042 0 0)
(290.977 0 0)
(290.928 0 0)
(290.892 0 0)
(290.866 0 0)
(290.849 0 0)
(290.839 0 0)
(290.833 0 0)
(290.829 0 0)
(290.828 0 0)
(290.827 0 0)
(290.827 0 0)
(290.826 0 0)
(290.826 0 0)
)
;

boundaryField
{
    sides
    {
        type            zeroGradient;
    }
    empty
    {
        type            empty;
    }
}


// ************************************************************************* //
