/*--------------------------------*- C++ -*----------------------------------*\
| =========                 |                                                 |
| \\      /  F ield         | OpenFOAM: The Open Source CFD Toolbox           |
|  \\    /   O peration     | Version:  3.0.0                                 |
|   \\  /    A nd           | Web:      www.OpenFOAM.org                      |
|    \\/     M anipulation  |                                                 |
\*---------------------------------------------------------------------------*/
FoamFile
{
    version     2.0;
    format      ascii;
    class       volScalarField;
    location    "5.25";
    object      p;
}
// * * * * * * * * * * * * * * * * * * * * * * * * * * * * * * * * * * * * * //

dimensions      [0 2 -2 0 0 0 0];

internalField   nonuniform List<scalar> 
4096
(
-0.0268414
-0.04547
-0.0474876
-0.0446368
-0.0387612
-0.0312486
-0.0234659
-0.0157997
-0.00774073
0.00131458
0.0107411
0.0177956
0.0185982
0.0105487
-0.00480916
-0.0131622
-0.0137867
-0.0354029
-0.0375903
-0.0368712
-0.0341376
-0.029404
-0.0229437
-0.0146819
-0.00453285
0.00686698
0.0173655
0.02356
0.0225774
0.0134312
-0.00126513
-0.003211
0.00277688
-0.0203972
-0.0213586
-0.0205437
-0.0187403
-0.0156214
-0.0111256
-0.00489482
0.00336682
0.0132016
0.0227155
0.0288094
0.0287294
0.0209975
0.00809844
0.0115309
0.01883
-0.00284295
-0.00181173
-0.000455805
0.000448907
0.00123687
0.00261809
0.00544595
0.010525
0.017781
0.025635
0.0312895
0.0321547
0.0265251
0.0166365
0.0250755
0.0329062
0.0154808
0.0190383
0.0213125
0.0213478
0.0196641
0.0173026
0.0158386
0.0167537
0.0205226
0.0259904
0.0307537
0.0324727
0.0293762
0.0233553
0.0360333
0.0435388
0.032247
0.0386474
0.0423247
0.0420929
0.0381748
0.0320496
0.0258739
0.0218946
0.0213245
0.0236697
0.0270818
0.0295313
0.0292048
0.0274022
0.0431113
0.0494069
0.0448837
0.0539717
0.059314
0.0594202
0.0539602
0.0446621
0.0340375
0.0250906
0.0198481
0.0186509
0.0203693
0.0233441
0.0257095
0.0279914
0.0454184
0.0495042
0.0510862
0.0621514
0.0689944
0.0698021
0.0637494
0.0523156
0.0383076
0.0251771
0.0157235
0.0111754
0.0111835
0.0144791
0.0191379
0.024824
0.0425867
0.0435933
0.0495952
0.0613845
0.0690863
0.0705668
0.0647919
0.0526761
0.0368892
0.0211276
0.00882891
0.00189609
0.000660183
0.00416557
0.0104279
0.0183859
0.0350285
0.0325166
0.04052
0.0515489
0.0592105
0.0612395
0.0562866
0.0447785
0.0290645
0.0126807
-0.000301649
-0.0079521
-0.00949646
-0.0057737
0.00114734
0.00975499
0.0240393
0.0177667
0.0252448
0.0342637
0.0410278
0.0433503
0.0396373
0.0299174
0.0161188
0.00157209
-0.0100497
-0.0165007
-0.017216
-0.0132966
-0.0068174
0.000865219
0.0113523
0.00107438
0.00612601
0.0124101
0.0177645
0.0202503
0.0181668
0.0112492
0.000907663
-0.0100719
-0.018051
-0.0215793
-0.0206094
-0.0167165
-0.0119811
-0.00719432
-0.00122763
-0.0151577
-0.0138355
-0.0104949
-0.00660841
-0.00382375
-0.00384244
-0.00716731
-0.01287
-0.018633
-0.0219118
-0.0215915
-0.0186648
-0.015347
-0.013544
-0.0131728
-0.01249
-0.0285633
-0.0313768
-0.0309049
-0.0284
-0.0252569
-0.0230203
-0.0224363
-0.0229406
-0.0230036
-0.0209059
-0.0165824
-0.0120793
-0.0100274
-0.01186
-0.0164423
-0.020805
-0.0355181
-0.0428872
-0.0451387
-0.0443146
-0.0414394
-0.0376026
-0.0334351
-0.0288117
-0.0229488
-0.0154378
-0.00758334
-0.00241462
-0.00215381
-0.00758009
-0.0166224
-0.0245821
-0.0311431
-0.0450483
-0.0490579
-0.0484282
-0.0443467
-0.0379395
-0.0304035
-0.0222939
-0.0136015
-0.00431423
0.00466598
0.0107254
0.0111255
0.00442153
-0.00803566
-0.0178859
-0.028014
-0.0445781
-0.0451252
-0.0403736
-0.0331427
-0.0255986
-0.0191331
-0.0134321
-0.00713354
0.000759066
0.00953168
0.0164607
0.0176242
0.0100971
-0.00511434
-0.01536
-0.0165846
-0.0357304
-0.0372064
-0.0352214
-0.0313063
-0.0260668
-0.0200369
-0.0129601
-0.00423972
0.0059663
0.0157373
0.0217282
0.0210194
0.0123612
-0.00219058
-0.00713136
-0.00231716
-0.022553
-0.0231329
-0.0212644
-0.0183092
-0.0145055
-0.0101873
-0.00491449
0.00202357
0.0106187
0.0192696
0.0250385
0.0251459
0.0180372
0.00549238
0.00520112
0.011623
-0.00714897
-0.00612414
-0.00405758
-0.00234521
-0.000696922
0.000709685
0.00280095
0.0066746
0.0126819
0.019633
0.024992
0.0261826
0.0213438
0.0120289
0.0166008
0.0241699
0.00898708
0.0120979
0.0146323
0.0152143
0.0142472
0.0120716
0.0101507
0.0100899
0.0127353
0.0174045
0.0220331
0.0243034
0.0221812
0.0168527
0.0260069
0.0341688
0.0239158
0.0294205
0.0328067
0.0325852
0.0293004
0.0234397
0.017158
0.0125865
0.0112302
0.0130675
0.0166264
0.0198653
0.0206212
0.0195333
0.0325242
0.040296
0.0353883
0.0431622
0.047706
0.047205
0.0422183
0.0332613
0.0227381
0.0136437
0.00812333
0.00689478
0.00915753
0.0131713
0.0166488
0.0195822
0.0352754
0.041429
0.0411088
0.0507724
0.0565128
0.0562949
0.0503338
0.0390662
0.0252637
0.0123349
0.00312563
-0.000900155
0.000114361
0.00471838
0.0104656
0.0165297
0.033663
0.0366791
0.0399965
0.0505723
0.0571908
0.0576741
0.0514639
0.0390983
0.0233111
0.00782035
-0.00395569
-0.00994179
-0.00976279
-0.0046822
0.0026944
0.0108391
0.0276611
0.0267713
0.0319834
0.0422567
0.0491605
0.0503729
0.0447302
0.032545
0.0163669
1.74636e-05
-0.0126861
-0.0193223
-0.0192533
-0.0137498
-0.00557842
0.00327751
0.0180965
0.0129673
0.0182066
0.0270443
0.0336184
0.0355053
0.0310969
0.0203359
0.00545995
-0.00980237
-0.0215786
-0.0273319
-0.0265414
-0.0207346
-0.0128151
-0.00482975
0.00644935
-0.00284379
0.000802221
0.00742325
0.0132185
0.0157696
0.0131742
0.00497656
-0.00699873
-0.0193267
-0.0282953
-0.031705
-0.0295136
-0.0237697
-0.0174138
-0.0120641
-0.00550198
-0.0181657
-0.0174039
-0.0133059
-0.00842446
-0.00505759
-0.00534406
-0.0100586
-0.0178468
-0.0257201
-0.0304799
-0.0305255
-0.0266591
-0.0216193
-0.0181649
-0.0170786
-0.0159314
-0.0303406
-0.0333119
-0.031752
-0.0277955
-0.0236289
-0.0214586
-0.022273
-0.0251637
-0.0276908
-0.0273638
-0.0235962
-0.0183133
-0.014735
-0.0151417
-0.0191533
-0.0233498
-0.0363776
-0.0436973
-0.0447349
-0.0422191
-0.0379946
-0.0339751
-0.0311638
-0.0289795
-0.0256499
-0.0198262
-0.012409
-0.00641571
-0.00492496
-0.00931816
-0.0180858
-0.0261455
-0.0325627
-0.0455101
-0.0479545
-0.045191
-0.0393587
-0.0326992
-0.0267605
-0.0213512
-0.0150779
-0.00708871
0.00147706
0.00818721
0.00935868
0.00328894
-0.00903654
-0.0197035
-0.0221421
-0.0360106
-0.0372486
-0.0332776
-0.0269483
-0.0204255
-0.0149558
-0.0103568
-0.00540646
0.0010162
0.00858222
0.0149799
0.0166998
0.0109662
-0.0018448
-0.0128075
-0.0162977
-0.0314518
-0.0333262
-0.0313074
-0.0270287
-0.021373
-0.0151768
-0.0086162
-0.00129967
0.00687683
0.0146329
0.0193116
0.0183393
0.0106427
-0.00224182
-0.00980145
-0.00823318
-0.02318
-0.0237718
-0.0213486
-0.0174758
-0.0127592
-0.0077512
-0.0023779
0.00377432
0.0106898
0.01714
0.0208064
0.0195432
0.0123752
0.000804865
-0.00347145
0.000295984
-0.012719
-0.0116106
-0.00876939
-0.00587031
-0.00305947
-0.00051501
0.00230369
0.0060984
0.0109773
0.0158749
0.0187771
0.0178717
0.0122214
0.00325184
0.00297513
0.00876358
-0.00107437
0.00192945
0.00503478
0.00676729
0.00708962
0.00635621
0.00569139
0.00626711
0.00850767
0.0116198
0.0139197
0.0138367
0.0104224
0.00492239
0.00893465
0.0164137
0.0103559
0.0153099
0.0188818
0.0195024
0.0172897
0.012975
0.00830116
0.0050373
0.00412215
0.00520629
0.00698489
0.00806322
0.00734217
0.00567157
0.0137847
0.0219988
0.019484
0.0264029
0.0305795
0.0304316
0.0260738
0.0184623
0.00981736
0.00258381
-0.00166176
-0.0026863
-0.00135639
0.00103396
0.00310866
0.0050389
0.0166429
0.0241327
0.0248149
0.0330755
0.0378692
0.0374187
0.031606
0.02143
0.0094687
-0.00128358
-0.00855843
-0.0114702
-0.0104374
-0.00671578
-0.0020571
0.00298884
0.0168331
0.0223778
0.0249307
0.033793
0.0390586
0.0387371
0.0323084
0.0206604
0.00646173
-0.00683152
-0.0163344
-0.0205434
-0.0195013
-0.0145209
-0.00784072
-0.000669879
0.0138813
0.0163884
0.0196456
0.0281566
0.033553
0.0336483
0.0274558
0.0155518
0.000537712
-0.0139087
-0.0244169
-0.0290074
-0.0274872
-0.0213596
-0.0133385
-0.00528077
0.00809124
0.00718638
0.00988756
0.0170189
0.0220924
0.0227873
0.0176113
0.00671617
-0.00756513
-0.021537
-0.0315606
-0.0354016
-0.0328827
-0.0257962
-0.0173274
-0.00969699
0.000909322
-0.0035502
-0.00258831
0.00232316
0.00664784
0.00804658
0.00456839
-0.00412228
-0.0161334
-0.0279584
-0.0359507
-0.0379146
-0.0339394
-0.0263448
-0.0185341
-0.0127546
-0.00626446
-0.013864
-0.0155513
-0.0132489
-0.00994285
-0.00761949
-0.00892371
-0.0144554
-0.022906
-0.031158
-0.0358228
-0.0350468
-0.0295275
-0.0221395
-0.0162886
-0.0137704
-0.0121616
-0.0220552
-0.0268624
-0.0270565
-0.0246863
-0.0217667
-0.0206266
-0.0224746
-0.0265279
-0.0302089
-0.0306717
-0.0267716
-0.0200633
-0.0138747
-0.0112537
-0.0130315
-0.0162789
-0.0266222
-0.0347876
-0.0371901
-0.0359328
-0.0327227
-0.0295482
-0.0277601
-0.0270581
-0.0255823
-0.0214326
-0.0145956
-0.0075572
-0.00363357
-0.00495881
-0.0112111
-0.0183189
-0.0252605
-0.0370629
-0.0399378
-0.0376948
-0.0325256
-0.0268172
-0.022214
-0.0185337
-0.0142117
-0.00795991
-0.000287908
0.00640135
0.00889003
0.00501205
-0.00497681
-0.0151503
-0.0132179
-0.0246952
-0.0273463
-0.0250413
-0.0202843
-0.0149191
-0.0101629
-0.00614069
-0.00187839
0.00385884
0.0109777
0.0174522
0.0200086
0.0160442
0.00563186
-0.00614618
-0.0139376
-0.0253082
-0.0278039
-0.0259737
-0.0215691
-0.0158099
-0.0098578
-0.00415338
0.00170298
0.00816801
0.0145395
0.0186551
0.0181102
0.0117531
0.000682266
-0.00928687
-0.0131187
-0.0228627
-0.0234341
-0.020518
-0.0159575
-0.0107805
-0.0057552
-0.000986846
0.00391335
0.00914383
0.0138832
0.0162541
0.0143953
0.00763433
-0.00270441
-0.0102951
-0.011157
-0.0183207
-0.0168609
-0.0132233
-0.00915686
-0.00553127
-0.00261275
-1.5322e-05
0.00288023
0.00626086
0.00931275
0.0104657
0.0082614
0.00232119
-0.00593653
-0.0101031
-0.00794616
-0.0120062
-0.00857265
-0.00446968
-0.00150195
-0.000152052
-0.000204832
-0.00068622
-0.000552609
0.000570694
0.00201715
0.00242361
0.000697008
-0.00345163
-0.00866033
-0.00877902
-0.0037175
-0.00470137
0.000589769
0.00494721
0.00667443
0.00548316
0.00204063
-0.00205649
-0.00519905
-0.00662227
-0.00671422
-0.00657715
-0.00718175
-0.00885624
-0.0105486
-0.00656603
0.000549306
0.00223221
0.00896724
0.0135159
0.0141593
0.0106583
0.00399237
-0.00370577
-0.0102091
-0.0142207
-0.0157005
-0.0154652
-0.0145249
-0.013491
-0.0117967
-0.00426486
0.00363694
0.00707005
0.0147532
0.0194815
0.0194313
0.0142554
0.00504907
-0.00567918
-0.0151351
-0.0214174
-0.0239853
-0.0234019
-0.0207512
-0.0171989
-0.0127468
-0.00288611
0.00456535
0.00863204
0.0165956
0.021435
0.0211598
0.0151628
0.00444906
-0.00831549
-0.0198729
-0.0277574
-0.0309175
-0.0296999
-0.0254097
-0.0197853
-0.0135987
-0.00275707
0.0029695
0.00655589
0.0139881
0.0187444
0.0186539
0.0127232
0.00168058
-0.0118318
-0.0243212
-0.0328311
-0.0358901
-0.0337251
-0.0279636
-0.0209666
-0.0141784
-0.00378234
-0.000698192
0.00139342
0.00740114
0.0117541
0.0121542
0.00708747
-0.00308936
-0.0159697
-0.0280313
-0.0359844
-0.0381068
-0.0346533
-0.0276532
-0.020042
-0.0137596
-0.00558953
-0.0052855
-0.00560548
-0.00184948
0.00168329
0.00261928
-0.000830455
-0.00897545
-0.0198627
-0.0300774
-0.0362652
-0.0366225
-0.0316122
-0.0237332
-0.0163485
-0.0116394
-0.00706145
-0.00953011
-0.0127738
-0.0118108
-0.00938634
-0.00775386
-0.00919091
-0.0144889
-0.0222583
-0.0294339
-0.0328338
-0.0308166
-0.0242564
-0.0161036
-0.00991405
-0.00774126
-0.007492
-0.0126256
-0.0189137
-0.0206616
-0.0194566
-0.0173126
-0.0165685
-0.0185277
-0.0224317
-0.0257424
-0.0256933
-0.021118
-0.0134417
-0.00597738
-0.00207181
-0.00319659
-0.00718527
-0.0147465
-0.0236953
-0.0274604
-0.027245
-0.0247133
-0.0219869
-0.0206171
-0.0204131
-0.0195088
-0.0158581
-0.00911365
-0.00130488
0.00422021
0.0048538
6.9805e-05
-0.00742821
-0.0153823
-0.0258052
-0.029218
-0.0277363
-0.0235858
-0.0190695
-0.0156084
-0.0129107
-0.00944849
-0.00390819
0.00336442
0.0101369
0.0134177
0.0109717
0.00269135
-0.00758273
0.000270275
-0.0109479
-0.0156349
-0.015505
-0.0123219
-0.00758632
-0.00274498
0.00159066
0.00606006
0.0122037
0.0197592
0.0269788
0.0305404
0.0281499
0.0198483
0.00771044
-0.00632123
-0.0164835
-0.019925
-0.0187859
-0.0147089
-0.00916108
-0.00355202
0.00156148
0.006661
0.0124673
0.0185646
0.0230598
0.0237105
0.0189207
0.00937101
-0.00131363
-0.0119422
-0.0194385
-0.0202882
-0.0175513
-0.0130476
-0.00805691
-0.00350504
0.000449965
0.00430558
0.00853705
0.0126336
0.0149763
0.0137385
0.00808434
-0.000981449
-0.00930343
-0.0163996
-0.0206634
-0.0189529
-0.0149748
-0.0106554
-0.00703907
-0.00455637
-0.00283947
-0.00114455
0.000966152
0.00304361
0.00375322
0.00165856
-0.00359688
-0.0108297
-0.0157214
-0.0187307
-0.0195294
-0.0154868
-0.0107469
-0.00721649
-0.00570247
-0.00610552
-0.00742558
-0.00848944
-0.00870626
-0.00845424
-0.00884577
-0.0107823
-0.0145621
-0.0189276
-0.0197761
-0.0185067
-0.0160726
-0.0101059
-0.00501316
-0.00262849
-0.00357058
-0.00724036
-0.0119898
-0.0161068
-0.018685
-0.0199142
-0.0206791
-0.0217348
-0.0232805
-0.0242576
-0.0211479
-0.0163906
-0.0113797
-0.00407094
0.00112921
0.00239667
-0.000807927
-0.00752061
-0.0155418
-0.022588
-0.0273298
-0.0296645
-0.0302737
-0.0299073
-0.0289528
-0.0267251
-0.0204199
-0.0134814
-0.00701838
0.00103876
0.00627117
0.00678063
0.00197594
-0.00701434
-0.0176255
-0.0270494
-0.033488
-0.0364715
-0.0365415
-0.0346017
-0.0314049
-0.0267966
-0.0184744
-0.0107683
-0.0041507
0.0039758
0.00919962
0.00945846
0.00396926
-0.00618246
-0.0183837
-0.0292636
-0.03669
-0.0398126
-0.0390717
-0.0356438
-0.030812
-0.0250056
-0.0161044
-0.00886321
-0.00331243
0.00415358
0.00923585
0.00970539
0.00445151
-0.00571671
-0.0181269
-0.0294021
-0.0369289
-0.0395788
-0.0377869
-0.0330907
-0.0273471
-0.0214758
-0.0134808
-0.00767125
-0.00424575
0.00172345
0.00638434
0.00735578
0.00313483
-0.00588758
-0.0172924
-0.0277203
-0.0343255
-0.0358
-0.0326891
-0.026948
-0.0209787
-0.0161076
-0.0104227
-0.0065671
-0.00615456
-0.00252656
0.00128081
0.00283749
0.000241428
-0.00666266
-0.0159043
-0.0242995
-0.0289647
-0.0285687
-0.0238799
-0.0173046
-0.0117011
-0.00865325
-0.00645511
-0.0048725
-0.00804318
-0.00739524
-0.00485925
-0.00279961
-0.00345985
-0.00758084
-0.0137644
-0.0191774
-0.0210888
-0.0183241
-0.011976
-0.00487929
-0.000182494
0.000478995
-0.00142307
-0.00256116
-0.00939271
-0.0118162
-0.0108106
-0.00846635
-0.00716804
-0.00821022
-0.010857
-0.0127378
-0.0114862
-0.00628526
0.00139995
0.00842215
0.0116242
0.00959742
0.00394105
-0.00098874
-0.0109078
-0.0154341
-0.0155811
-0.0130333
-0.010053
-0.00824335
-0.0074029
-0.0057824
-0.00154581
0.00554944
0.013631
0.0195234
0.0205138
0.0157778
0.00697159
-0.00106436
-0.0111708
-0.0154286
-0.0150224
-0.0120178
-0.00837288
-0.00520624
-0.00227765
0.00162939
0.00760252
0.0151854
0.0222758
0.0259827
0.024164
0.0163972
0.00627413
0.0159923
0.00258591
-0.00418525
-0.00604094
-0.00382742
0.00115485
0.007009
0.0126583
0.0186685
0.0258683
0.0345738
0.0427644
0.0473025
0.0456054
0.0373266
0.0263445
0.00598109
-0.00626845
-0.010886
-0.0109069
-0.0076087
-0.00236118
0.00327248
0.00867939
0.014382
0.0209698
0.028146
0.0340454
0.0361623
0.0325992
0.0234058
0.0139346
-0.00341432
-0.0129378
-0.0146219
-0.0129568
-0.00938823
-0.00500114
-0.000872248
0.0028084
0.00664114
0.0111927
0.016137
0.0198864
0.0204246
0.0163458
0.00791151
0.00163754
-0.0126781
-0.0186475
-0.0172149
-0.0139268
-0.0103583
-0.00745418
-0.00575359
-0.00484779
-0.00380554
-0.00192836
0.000561649
0.00240611
0.00204994
-0.00157505
-0.00803803
-0.0102971
-0.0197452
-0.0216352
-0.0172983
-0.0127648
-0.00971794
-0.0089593
-0.0104336
-0.0130006
-0.0152198
-0.0161801
-0.015964
-0.0155401
-0.0160409
-0.0182887
-0.0217874
-0.0197155
-0.0234062
-0.0211957
-0.0145871
-0.00932691
-0.00719942
-0.00888264
-0.013756
-0.0199597
-0.0254851
-0.0291146
-0.0307393
-0.0310927
-0.0310545
-0.0312628
-0.031252
-0.025336
-0.0239277
-0.0182531
-0.0101038
-0.00449762
-0.00329257
-0.00712428
-0.0149529
-0.0243429
-0.0327444
-0.0385723
-0.0414972
-0.0420601
-0.0410497
-0.0390944
-0.0358406
-0.0272587
-0.022365
-0.01429
-0.00531981
0.000478464
0.00114086
-0.00404147
-0.0138327
-0.0254441
-0.0358874
-0.0432169
-0.0468451
-0.0472026
-0.0451407
-0.041437
-0.0359443
-0.0261323
-0.0190707
-0.0104563
-0.0014293
0.0044979
0.00517315
-0.000320103
-0.0108032
-0.0233711
-0.0347703
-0.0427474
-0.0464764
-0.0463514
-0.0434148
-0.0387329
-0.0324919
-0.0232263
-0.0151923
-0.00750795
0.000918401
0.00685542
0.00803609
0.00321965
-0.0066667
-0.0188468
-0.0300106
-0.0376841
-0.0408755
-0.0400325
-0.0364789
-0.0316348
-0.0259706
-0.0183784
-0.01079
-0.00529703
0.00165083
0.00733386
0.00925149
0.00587992
-0.00230436
-0.0128567
-0.0225827
-0.0289504
-0.0308855
-0.0290292
-0.0250364
-0.0206872
-0.0166538
-0.011848
-0.00557355
-0.00338577
0.00121684
0.00606433
0.00872569
0.00724546
0.00158588
-0.00629975
-0.013492
-0.0175386
-0.0175204
-0.0142815
-0.00988427
-0.00644537
-0.00475327
-0.00366617
0.000642548
-0.00128702
0.000180159
0.00364196
0.00674736
0.00727612
0.00460176
8.74056e-05
-0.00376442
-0.00473022
-0.00216138
0.00278228
0.00762104
0.00995206
0.00897066
0.00584625
0.00734093
0.000956187
-0.00102721
0.00064713
0.0038185
0.00617294
0.00652257
0.00561626
0.00544927
0.00785771
0.0131637
0.0198154
0.0249889
0.0260822
0.0225518
0.0158022
0.0124117
0.00233
-0.00231117
-0.0022096
0.00076839
0.0044881
0.00734238
0.00966314
0.0128927
0.0183575
0.025894
0.0336215
0.0385997
0.038414
0.0323042
0.0226519
0.0162102
0.00476943
-0.0006465
-0.00155824
0.000540103
0.00398833
0.00792739
0.012265
0.0177777
0.0251212
0.0337362
0.041516
0.0456174
0.043934
0.0363194
0.0260628
0.0284437
0.0115793
0.00352272
0.000663751
0.00294233
0.00905346
0.0165022
0.0238834
0.0315627
0.0404529
0.0503265
0.0591839
0.0639209
0.0618622
0.0524786
0.0426383
0.0178925
0.00138251
-0.00434126
-0.00551193
-0.00283213
0.00252211
0.00889275
0.0155835
0.0229261
0.0313169
0.0402593
0.0476858
0.0509496
0.047808
0.0375206
0.0298634
0.00767223
-0.0071326
-0.0100906
-0.0099108
-0.00733398
-0.00321747
0.00118398
0.00557581
0.0105199
0.0166009
0.0234412
0.0293205
0.0319361
0.0291387
0.0202862
0.0168088
-0.00377043
-0.0152904
-0.0147676
-0.0127874
-0.0103009
-0.00801088
-0.00662803
-0.0057614
-0.00434736
-0.00150738
0.00263402
0.00673733
0.00888954
0.00707025
0.000559522
0.00201427
-0.0135034
-0.020444
-0.0164574
-0.0127996
-0.0107537
-0.0109281
-0.0133418
-0.0167217
-0.0193562
-0.0200264
-0.0186133
-0.0161202
-0.014065
-0.0142841
-0.0174894
-0.011145
-0.0196938
-0.0214995
-0.0146838
-0.00983325
-0.00854785
-0.011368
-0.0176409
-0.0252534
-0.03183
-0.0357842
-0.0367523
-0.0354622
-0.0331292
-0.03132
-0.0306805
-0.0204124
-0.0222366
-0.0191811
-0.0104435
-0.00485783
-0.00429257
-0.00928903
-0.0186887
-0.0297427
-0.0395333
-0.0461093
-0.0488902
-0.048379
-0.0456017
-0.0418899
-0.0378035
-0.0252627
-0.0217672
-0.0150468
-0.00525525
0.000818566
0.00109965
-0.00506559
-0.016282
-0.0294478
-0.0412731
-0.0495342
-0.0534411
-0.0533602
-0.0502557
-0.0453411
-0.03899
-0.0260424
-0.0190345
-0.0104509
-0.000380028
0.00609062
0.00671103
0.000593815
-0.0109012
-0.0246207
-0.037133
-0.0460216
-0.0503507
-0.0504343
-0.0472858
-0.0420854
-0.035162
-0.0234494
-0.0146935
-0.00611111
0.00350999
0.0102509
0.0117387
0.0067675
-0.00357737
-0.0163535
-0.0281925
-0.0366172
-0.0406494
-0.0406401
-0.0377334
-0.0331542
-0.0271917
-0.0178924
-0.0089636
-0.00207414
0.00626562
0.0129471
0.0155398
0.0124683
0.0043993
-0.00613987
-0.0160364
-0.0228814
-0.0258465
-0.0253793
-0.0228366
-0.0195444
-0.0157163
-0.00967829
-0.0017533
0.00193025
0.00805186
0.0140886
0.0176499
0.0168357
0.0117917
0.00449393
-0.00235071
-0.0066072
-0.00763311
-0.00618792
-0.00389647
-0.00220815
-0.00123746
0.000768976
0.00672752
0.00607449
0.00909162
0.0137801
0.0178671
0.0192835
0.017591
0.0141452
0.0111214
0.0103254
0.011996
0.0150008
0.017365
0.0174664
0.0152764
0.0129983
0.0157244
0.00995763
0.0093745
0.0121636
0.0162645
0.0195357
0.0210377
0.0215485
0.0226913
0.0257034
0.0304701
0.0354059
0.0381614
0.036931
0.0317563
0.0254631
0.0230803
0.0125985
0.00889387
0.00977362
0.0134105
0.017756
0.0217322
0.0256827
0.0306491
0.0372128
0.044839
0.0515348
0.0546732
0.0523701
0.0445318
0.0353423
0.0307527
0.0167427
0.0106317
0.00893127
0.010731
0.0149315
0.0203928
0.0266387
0.0340584
0.042948
0.0525971
0.0608444
0.0649156
0.0625654
0.0537915
0.0443582
0.0328499
0.0133325
0.0051334
0.00242852
0.00589383
0.0134424
0.0224292
0.0312981
0.0402844
0.050129
0.0603792
0.0689132
0.0728272
0.0694888
0.0584204
0.0493029
0.0231799
0.00287501
-0.00366316
-0.00534444
-0.00253898
0.00360182
0.011282
0.0196535
0.0287833
0.0388393
0.0490104
0.057168
0.060609
0.0568717
0.0451686
0.0381553
0.0133519
-0.00651921
-0.0108567
-0.0115926
-0.00910847
-0.00425984
0.00136897
0.00725345
0.0138044
0.0215503
0.0300192
0.0373831
0.0411321
0.0386033
0.0285029
0.026017
0.00188916
-0.0154085
-0.016251
-0.0152021
-0.0129559
-0.0101953
-0.00799419
-0.00615169
-0.00358353
0.000685146
0.00655859
0.0125579
0.016458
0.0155
0.00795756
0.0109446
-0.00799774
-0.0208098
-0.0177709
-0.0148181
-0.0130909
-0.01321
-0.0154601
-0.0185848
-0.0207055
-0.0203796
-0.0173699
-0.0128372
-0.0087028
-0.00767768
-0.0116751
-0.0032203
-0.0143394
-0.021465
-0.0150503
-0.0105719
-0.00966891
-0.0128703
-0.0196386
-0.0277356
-0.0344784
-0.0379816
-0.0377044
-0.0344987
-0.0300153
-0.026769
-0.0266033
-0.0137438
-0.0169035
-0.0181774
-0.00937121
-0.00389603
-0.00376844
-0.00947961
-0.0198491
-0.031903
-0.0423778
-0.0490086
-0.0510116
-0.0489679
-0.0442875
-0.0391458
-0.0351384
-0.0197985
-0.0163385
-0.0127713
-0.00260279
0.00351766
0.0033373
-0.0036912
-0.0160788
-0.0304325
-0.0431936
-0.0518558
-0.0554592
-0.0543993
-0.0498882
-0.0437549
-0.0372124
-0.0214397
-0.013503
-0.00691883
0.00374414
0.0103739
0.0105844
0.00362791
-0.00895233
-0.0237836
-0.0372262
-0.0466892
-0.0511311
-0.0508514
-0.0469535
-0.0409611
-0.0336834
-0.019222
-0.00901278
-0.00148605
0.00891907
0.0159424
0.01715
0.0115074
0.000314202
-0.0133085
-0.0258958
-0.034941
-0.0394261
-0.0396648
-0.0367161
-0.031881
-0.0256227
-0.013689
-0.00311609
0.00338453
0.0127467
0.0198413
0.022397
0.0188543
0.0102501
-0.000777722
-0.0111325
-0.0185827
-0.0222612
-0.0226014
-0.02073
-0.0177679
-0.0138728
-0.00529561
0.00409921
0.00790758
0.0153182
0.0219899
0.0256454
0.0246303
0.0193905
0.0119905
0.00501124
0.000275588
-0.00166843
-0.00151673
-0.000532529
0.000229093
0.000981882
0.00536929
0.0125658
0.0121627
0.0166914
0.0222068
0.0265521
0.0280068
0.0264443
0.0232911
0.0205318
0.0194072
0.0200829
0.0214576
0.0220101
0.0206496
0.0177763
0.0177886
0.0212078
0.0156609
0.0166909
0.020446
0.0249266
0.0283983
0.0303107
0.0314938
0.0332593
0.0363102
0.0402219
0.0434437
0.044089
0.041051
0.0348805
0.0304472
0.028473
0.017644
0.0152095
0.0171075
0.0210368
0.0256683
0.0303271
0.035359
0.0413919
0.0484979
0.0557075
0.0610028
0.061976
0.0579334
0.0486642
0.0409877
0.0366552
0.0207135
0.0150524
0.0136106
0.015854
0.0212238
0.0281433
0.0358651
0.0445016
0.0541536
0.0639122
0.0716442
0.0749194
0.0710017
0.0605957
0.052155
0.0276756
0.00797801
0.000642767
-0.000576809
0.00407322
0.0127101
0.022494
0.0319479
0.0412875
0.0510666
0.0606584
0.0679506
0.0702966
0.065416
0.0530191
0.0435186
0.0185667
-0.00259143
-0.00932029
-0.0105225
-0.00683304
0.000489065
0.00932474
0.0188089
0.0288361
0.0394228
0.0496386
0.0573623
0.0599753
0.0551154
0.0422317
0.0339777
0.0090505
-0.0124476
-0.0177064
-0.0182077
-0.0146082
-0.00816325
-0.000899395
0.00637062
0.0139541
0.0223803
0.0312079
0.0386061
0.0420087
0.038674
0.0273165
0.0228523
-0.00136884
-0.0209891
-0.0231632
-0.0220641
-0.0185871
-0.0140629
-0.0100979
-0.00677069
-0.00321784
0.00181712
0.00830327
0.0147493
0.018772
0.0173265
0.00850851
0.00918863
-0.0096839
-0.0253769
-0.0236179
-0.0205731
-0.0177064
-0.0162173
-0.0169331
-0.0188958
-0.0201125
-0.0190194
-0.0152277
-0.00994142
-0.00532338
-0.00451936
-0.00985027
-0.00356116
-0.014013
-0.0243798
-0.018882
-0.0141895
-0.0123486
-0.0143691
-0.0201204
-0.0275228
-0.033681
-0.0365514
-0.0354311
-0.0312714
-0.0260365
-0.0227909
-0.0239857
-0.0126957
-0.0142655
-0.0189166
-0.0106014
-0.00488799
-0.00419144
-0.00928982
-0.0192363
-0.0310798
-0.0413533
-0.0475748
-0.0488152
-0.0457663
-0.0401679
-0.0348137
-0.0320035
-0.017261
-0.0114996
-0.0111995
-0.00124446
0.00496033
0.00488059
-0.00210307
-0.0145699
-0.0290863
-0.0419159
-0.0503633
-0.0533729
-0.0514276
-0.0460063
-0.039475
-0.0337521
-0.0175366
-0.00704512
-0.00341565
0.00713638
0.0136167
0.0134759
0.00610201
-0.00692043
-0.0221222
-0.0357516
-0.0451209
-0.0491514
-0.048209
-0.0435454
-0.0370717
-0.0301844
-0.0143719
-0.00181778
0.00320447
0.0135791
0.0202458
0.020739
0.0143383
0.00248871
-0.0115836
-0.0243732
-0.0333829
-0.0376364
-0.0374832
-0.0340175
-0.0287338
-0.0225176
-0.00857924
0.00383547
0.00838819
0.0178742
0.0245551
0.0261232
0.0216427
0.0122802
0.000808341
-0.00971983
-0.0171727
-0.0208098
-0.0210831
-0.0190184
-0.015769
-0.0117013
-0.000745671
0.00989657
0.0123375
0.0201477
0.0264395
0.0291967
0.0271288
0.0211219
0.0133411
0.00623837
0.00143918
-0.000697712
-0.000851668
-8.01086e-05
0.000666649
0.00159489
0.00865231
0.0163257
0.0152345
0.0205394
0.0259464
0.0294945
0.0300097
0.0277896
0.0243621
0.0215224
0.020277
0.0204999
0.0211614
0.021073
0.0192887
0.0165085
0.019071
0.0224694
0.0168287
0.019001
0.0229508
0.0268824
0.0296301
0.0310893
0.0321899
0.0339986
0.0368752
0.0401218
0.0422614
0.0418139
0.0379303
0.0314367
0.029332
0.0272728
0.0166891
0.0156386
0.0177733
0.0214546
0.0257288
0.0302972
0.0355369
0.0417818
0.0487686
0.0552568
0.0593316
0.0591453
0.0537282
0.0438474
0.0377545
0.0321635
0.0163972
0.0116256
0.0112263
0.014602
0.0208332
0.0284278
0.0366272
0.0453799
0.0546569
0.0634197
0.0696046
0.0709659
0.0658858
0.0540467
0.045875
0.0150928
-0.00207623
-0.00797933
-0.00763461
-0.00204212
0.00674937
0.0161934
0.0251195
0.0338277
0.0427118
0.0510473
0.0568081
0.0575465
0.0516495
0.0390656
0.0283166
0.00613922
-0.0124914
-0.0186229
-0.0186632
-0.0138463
-0.0058756
0.00338216
0.0127829
0.0223708
0.0322182
0.041378
0.0478433
0.0491496
0.0433893
0.0303297
0.019667
-0.00301477
-0.0220206
-0.0272311
-0.0264626
-0.0212163
-0.0132732
-0.00499307
0.00263389
0.0100145
0.0178172
0.0257212
0.0319729
0.0340527
0.0296735
0.017843
0.00962013
-0.0117674
-0.0293043
-0.0320652
-0.0298517
-0.024361
-0.0177208
-0.0121203
-0.00799528
-0.0043061
0.000300123
0.00607411
0.0116173
0.0145146
0.0119761
0.00250156
-0.00158964
-0.0176552
-0.0319827
-0.0312543
-0.0272417
-0.0222095
-0.0182377
-0.0168746
-0.0175812
-0.018429
-0.0175397
-0.0142527
-0.0096444
-0.00592101
-0.00619128
-0.0124224
-0.0113319
-0.0190206
-0.0289739
-0.0245622
-0.0190345
-0.0151228
-0.0147244
-0.0183737
-0.0243882
-0.029968
-0.032769
-0.0318653
-0.0281194
-0.0235779
-0.0213536
-0.0237525
-0.0173444
-0.0159247
-0.0212411
-0.0138721
-0.00751846
-0.00518765
-0.00832742
-0.0165429
-0.027171
-0.0367845
-0.0426999
-0.0438293
-0.0408551
-0.0356307
-0.0311248
-0.0297135
-0.0188224
-0.00984921
-0.0112515
-0.00213576
0.0043409
0.00517683
-0.000596033
-0.0118969
-0.0255057
-0.0376915
-0.0456588
-0.0482712
-0.0460527
-0.040617
-0.0345825
-0.0301698
-0.0163333
-0.00277836
-0.00163977
0.00808499
0.0142629
0.0141748
0.00716932
-0.00532104
-0.0199358
-0.0329606
-0.0417035
-0.0450962
-0.0435849
-0.0385346
-0.0321118
-0.0261726
-0.0111936
0.00377738
0.0059073
0.0153787
0.0211881
0.0209106
0.0140764
0.0021682
-0.0116205
-0.023858
-0.0321359
-0.035584
-0.0346493
-0.0305067
-0.0248708
-0.0191067
-0.00468112
0.00916508
0.0108829
0.0194681
0.024914
0.0250641
0.0195116
0.00959828
-0.00186705
-0.0119382
-0.0186519
-0.02144
-0.0208669
-0.017982
-0.0141048
-0.0100277
0.00236882
0.0133866
0.0135162
0.0206193
0.0255894
0.0265366
0.0230144
0.0161075
0.00809445
0.00129316
-0.00290119
-0.00433454
-0.00377976
-0.00228918
-0.000794223
0.000470133
0.00952436
0.0166763
0.0142161
0.0191966
0.0234457
0.0252639
0.0241682
0.0208596
0.0170229
0.014264
0.0133442
0.0139258
0.0149381
0.0151493
0.0140808
0.0118614
0.0165067
0.0189825
0.013144
0.0154745
0.0186746
0.021191
0.022482
0.0228853
0.0234479
0.0250943
0.0279179
0.0310354
0.0329831
0.0324778
0.0289677
0.0230658
0.022733
0.0198892
0.0102375
0.00977698
0.0116543
0.0144816
0.0177514
0.0215321
0.0261755
0.0320281
0.0385417
0.0443592
0.0476885
0.0469809
0.0415891
0.0322901
0.0272384
0.0200102
0.00645272
0.0028213
0.00342327
0.00733363
0.0135549
0.020819
0.0284729
0.0365486
0.0447676
0.052084
0.0565913
0.0563382
0.0502869
0.0388484
0.03047
-0.000482154
-0.0138849
-0.0182968
-0.0169186
-0.0112717
-0.00342758
0.00464581
0.0122342
0.0197374
0.0275528
0.0348571
0.0396588
0.0397139
0.033646
0.0218139
0.0099504
-0.00854414
-0.0230136
-0.0279083
-0.0267353
-0.0212218
-0.0133682
-0.00499959
0.00313664
0.0112778
0.0196216
0.0274406
0.0327201
0.033155
0.027171
0.014968
0.00258076
-0.0160894
-0.0305884
-0.0347296
-0.0326028
-0.0259709
-0.0175392
-0.00958092
-0.0028873
0.0032013
0.00957702
0.0160548
0.0209945
0.0219873
0.0170344
0.00578083
-0.00527953
-0.0222497
-0.0353199
-0.0374972
-0.0338223
-0.0266234
-0.0187866
-0.0127659
-0.00904114
-0.00634502
-0.0030413
0.00137575
0.00563888
0.00739355
0.00412156
-0.00503723
-0.0131039
-0.0252304
-0.0355385
-0.0348523
-0.0295674
-0.0224937
-0.0165727
-0.0139186
-0.0142913
-0.0157151
-0.01594
-0.013949
-0.0106579
-0.00797019
-0.00915853
-0.0153521
-0.0191065
-0.0237367
-0.0305495
-0.0267154
-0.0201625
-0.0140786
-0.0112314
-0.0128998
-0.0178908
-0.0234953
-0.0270572
-0.0272739
-0.0247329
-0.021392
-0.0201523
-0.0228658
-0.0216228
-0.0179277
-0.0213654
-0.0148762
-0.00779439
-0.00349561
-0.00420567
-0.0102449
-0.0194743
-0.0286029
-0.034765
-0.0365959
-0.0345487
-0.0304125
-0.0269257
-0.0262182
-0.0201262
-0.00940068
-0.0103781
-0.00232363
0.00442314
0.00664221
0.00277821
-0.00663911
-0.0188198
-0.0301826
-0.0378714
-0.0406051
-0.0387956
-0.0340255
-0.0288153
-0.0253466
-0.0153505
-0.000472809
-0.000328055
0.00812516
0.0139697
0.0143711
0.00842168
-0.00278011
-0.0161678
-0.028187
-0.0361971
-0.0390978
-0.0373622
-0.0323652
-0.0263187
-0.0212763
-0.00884414
0.00684678
0.00687016
0.0148412
0.0196347