/*--------------------------------*- C++ -*----------------------------------*\
| =========                 |                                                 |
| \\      /  F ield         | OpenFOAM: The Open Source CFD Toolbox           |
|  \\    /   O peration     | Version:  3.0.0                                 |
|   \\  /    A nd           | Web:      www.OpenFOAM.org                      |
|    \\/     M anipulation  |                                                 |
\*---------------------------------------------------------------------------*/
FoamFile
{
    version     2.0;
    format      ascii;
    class       surfaceScalarField;
    location    "5.25";
    object      phi;
}
// * * * * * * * * * * * * * * * * * * * * * * * * * * * * * * * * * * * * * //

dimensions      [0 3 -1 0 0 0 0];

internalField   nonuniform List<scalar> 
11520
(
-0.000465639
-0.000234424
0.00041898
-0.000433757
-6.92444e-05
0.000358994
-0.000347638
7.89933e-05
0.000276559
-0.000217913
0.000208764
0.000166597
-5.90235e-05
0.000313487
3.94343e-05
0.000109027
0.000382978
-8.60472e-05
0.000261092
0.000406611
-0.000185119
0.00037081
0.000377007
-0.000234063
0.000417092
0.000291217
-0.000222075
0.000390292
0.00015146
-0.00015792
0.000294945
-2.78973e-05
-6.27487e-05
0.000148093
-0.000212153
4.41553e-05
-2.52222e-05
-0.000353522
0.000151544
-0.000196114
-0.000415927
0.000249583
-0.000338577
-0.000397205
0.000326473
-0.000322671
0.000364602
-0.000584368
-0.000352723
0.00035772
-0.000550225
-0.000195483
0.000310804
-0.000456024
-5.88843e-05
0.000244411
-0.000313687
6.14659e-05
0.000147833
-0.000139595
0.000162426
2.85099e-05
4.33504e-05
0.000236612
-9.69277e-05
0.000206716
0.000273277
-0.000204719
0.000321559
0.000260888
-0.000269725
0.000366362
0.000190617
-0.000277538
0.000333354
6.11611e-05
-0.000232584
0.000229318
-0.000112477
-0.000152118
7.2627e-05
-0.000292931
-5.34836e-05
-0.000110487
-0.000431551
5.14865e-05
-0.000290209
-0.000493787
0.000151989
-0.000440736
-0.00047812
0.000236054
-0.00040371
0.000286552
-0.000660516
-0.000445304
0.000292541
-0.000624327
-0.00030025
0.000259315
-0.000526117
-0.000177475
0.000207919
-0.000378649
-6.87379e-05
0.000124698
-0.000198369
2.54514e-05
1.4938e-05
-8.08352e-06
0.000100798
-0.000107102
0.000163576
0.000147906
-0.000220466
0.000286197
0.000153388
-0.000301033
0.000335889
0.000103311
-0.000331506
0.0003028
-8.64935e-06
-0.00030988
0.00019326
-0.0001697
-0.000246864
2.73891e-05
-0.000342524
-0.000156526
-0.000165225
-0.00047843
-5.18327e-05
-0.000352405
-0.00054307
5.40631e-05
-0.000508183
-0.000533248
0.000147683
-0.000460288
0.000212008
-0.000694449
-0.000501369
0.000227
-0.00065805
-0.000370662
0.000210081
-0.000559004
-0.000260652
0.000174273
-0.000410921
-0.000162477
0.000105187
-0.000229845
-7.54555e-05
6.17479e-06
-3.80284e-05
-1.85095e-06
-0.000109743
0.000137553
5.14398e-05
-0.000225809
0.000266764
7.15168e-05
-0.000319721
0.000323661
4.1839e-05
-0.000372329
0.00029491
-4.8864e-05
-0.000374961
0.000184632
-0.000192687
-0.000330869
1.37567e-05
-0.000355539
-0.000250431
-0.000185399
-0.000489729
-0.000147271
-0.000377812
-0.000559824
-3.73335e-05
-0.000536796
-0.000558691
6.44535e-05
-0.000490328
0.000141359
-0.00069084
-0.000514129
0.000166011
-0.00065674
-0.000398402
0.000166119
-0.000559904
-0.000298271
0.000145533
-0.000414442
-0.000207701
9.09036e-05
-0.000236389
-0.0001265
4.56827e-06
-4.69459e-05
-5.5472e-05
-0.000103432
0.000128652
2.71488e-07
-0.000218558
0.000261869
2.99088e-05
-0.000321295
0.000326056
1.68896e-05
-0.000391853
0.000304694
-5.33778e-05
-0.000416292
0.000198673
-0.000178877
-0.000390935
2.80717e-05
-0.000331092
-0.000322106
-0.000173202
-0.000464734
-0.000223491
-0.000368238
-0.000542485
-0.000112689
-0.0005291
-0.000551957
-6.49197e-06
-0.000491341
7.90084e-05
-0.000656282
-0.000482819
0.000115108
-0.000627466
-0.000380848
0.000129654
-0.00053601
-0.000286767
0.000121518
-0.000396029
-0.000200057
8.0013e-05
-0.000223255
-0.000122098
6.26671e-06
-3.84461e-05
-5.34464e-05
-9.09821e-05
0.000134873
2.19273e-06
-0.000200604
0.00027009
3.63756e-05
-0.000305604
0.000341055
3.42598e-05
-0.000386815
0.000329168
-1.99123e-05
-0.000427332
0.000231884
-0.000129317
-0.000418149
6.69345e-05
-0.000272028
-0.000361556
-0.000132096
-0.000406205
-0.000270211
-0.000327306
-0.000492685
-0.000162636
-0.000489361
-0.000513482
-5.69328e-05
-0.000463013
3.09759e-05
-0.00059669
-0.000412309
8.07358e-05
-0.000576348
-0.00032119
0.000103581
-0.000493433
-0.0002293
0.000102446
-0.000361369
-0.000142824
7.01438e-05
-0.000195472
-6.53931e-05
7.47477e-06
-1.63373e-05
1.69485e-06
-7.74831e-05
0.000153854
5.57841e-05
-0.000177078
0.000290141
9.03634e-05
-0.000276584
0.00036779
9.3129e-05
-0.000358995
0.000367241
4.89308e-05
-0.000406985
0.000282711
-4.88422e-05
-0.000408568
0.000128287
-0.000184442
-0.000362624
-6.46288e-05
-0.000320015
-0.000279969
-0.000258279
-0.000415117
-0.000179065
-0.000421807
-0.000446645
-7.89568e-05
-0.000407175
4.47153e-06
-0.000516347
-0.000312318
6.96536e-05
-0.00050775
-0.000227727
9.21667e-05
-0.000436311
-0.000134593
8.97568e-05
-0.000314288
-4.56064e-05
6.01173e-05
-0.000156617
3.32691e-05
4.80978e-06
1.62825e-05
9.95451e-05
-6.86173e-05
0.000183294
0.000151057
-0.000154649
0.000320698
0.000182865
-0.000241313
0.000405451
0.000185228
-0.00031468
0.000418028
0.000144664
-0.000359503
0.000349834
5.31951e-05
-0.000363588
0.000210326
-7.81269e-05
-0.000323846
2.69805e-05
-0.000215387
-0.00024904
-0.000163817
-0.000317691
-0.00015665
-0.000329782
-0.000358086
-6.599e-05
-0.00032851
6.46275e-06
-0.000418892
-0.000196138
8.80118e-05
-0.000424811
-0.000112262
9.99791e-05
-0.000367382
-1.51776e-05
8.69042e-05
-0.000257172
7.77835e-05
5.12905e-05
-0.000109026
0.000158603
-2.68727e-06
5.74392e-05
0.000223997
-6.84721e-05
0.000221157
0.000271727
-0.000139994
0.000359879
0.000298018
-0.000208365
0.00045191
0.000295385
-0.000263457
0.000478673
0.000252532
-0.000293884
0.000429433
0.00016212
-0.0002901
0.000308609
3.24825e-05
-0.000249267
0.000138234
-0.000105756
-0.000178774
-4.8239e-05
-0.000212186
-9.45209e-05
-0.000217107
-0.000257722
-1.52897e-05
-0.000234926
4.1679e-05
-0.000309667
-7.9098e-05
0.00013821
-0.000331477
1.0763e-05
0.0001313
-0.000289555
0.000114227
9.89835e-05
-0.000192456
0.000211733
4.83183e-05
-5.45831e-05
0.00029393
-1.31416e-05
0.000104907
0.000356843
-7.71077e-05
0.000265115
0.000398367
-0.000136822
0.00040467
0.000415755
-0.000185201
0.000502853
0.000403331
-0.000215909
0.000542889
0.000352933
-0.000222377
0.000512798
0.000258563
-0.000200138
0.000412664
0.000128355
-0.000149195
0.000258438
-9.16398e-06
-7.71722e-05
7.93236e-05
-0.000114967
1.66435e-06
-9.16995e-05
-0.000160124
7.01503e-05
-0.000137479
0.000111457
-0.00019978
2.19586e-05
0.000216001
-0.000235675
0.000124584
0.000187006
-0.000208211
0.000237073
0.000130697
-0.000123987
0.000340014
5.78491e-05
3.51415e-06
0.000422819
-1.9609e-05
0.000155608
0.000481005
-8.97586e-05
0.000311525
0.000512929
-0.000143734
0.000450105
0.00051723
-0.000174857
0.000551798
0.000490388
-0.000179711
0.000600615
0.000426362
-0.000157189
0.000585389
0.000322693
-0.000108765
0.000503904
0.000189364
-3.98246e-05
0.000366814
5.42941e-05
4.02016e-05
0.000198307
-4.53189e-05
0.000118039
3.00327e-05
-8.2436e-05
0.00017946
-5.26843e-05
0.000208719
-0.000109988
8.96184e-05
0.000307629
-0.000152699
0.00020952
0.000260808
-0.000134402
0.000334554
0.000182166
-5.97749e-05
0.000445333
8.48229e-05
5.90333e-05
0.000529644
-1.46228e-05
0.000204008
0.00058205
-9.87115e-05
0.000354618
0.000601588
-0.00015492
0.000489592
0.000588736
-0.000175254
0.000589169
0.000542194
-0.000158107
0.000638918
0.000459634
-0.00010686
0.000629149
0.000341659
-3.02731e-05
0.000558071
0.000201757
6.06808e-05
0.000434593
6.94587e-05
0.0001522
0.000278725
-2.00644e-05
0.00023265
0.000118845
-4.34903e-05
0.000291536
1.72064e-07
0.000315919
-6.72935e-05
0.000110189
0.00039152
-0.000105773
0.000247284
0.000336551
-8.67452e-05
0.000386931
0.000244059
-1.40094e-05
0.000508764
0.000126742
0.00010093
0.000598228
4.91821e-06
0.000241061
0.000647238
-9.82734e-05
0.000385937
0.000654804
-0.000164297
0.000513748
0.000623248
-0.000182013
0.000605064
0.000554894
-0.000149833
0.000645647
0.000450118
-7.55688e-05
0.000628705
0.000313897
2.5521e-05
0.000555768
0.000164424
0.000135183
0.000437165
3.36986e-05
0.000237003
0.00029132
-4.48586e-05
0.000320958
0.000143418
-5.31625e-05
0.000380399
4.80013e-06
0.000405436
-9.16001e-05
7.80088e-05
0.000447063
-0.000116081
0.000228473
0.000392943
-8.57768e-05
0.000380369
0.000297989
-4.82676e-06
0.000514016
0.000171071
0.000114829
0.000612935
3.25685e-05
0.000255576
0.000665117
-9.03312e-05
0.000396178
0.000666511
-0.000171805
0.000514986
0.000620228
-0.00019487
0.0005921
0.000531032
-0.000156297
0.000614894
0.000403594
-6.70583e-05
0.000580238
0.000247898
5.05525e-05
0.000494245
8.7654e-05
0.000171841
0.000370784
-4.2739e-05
0.00027924
0.000228483
-0.000111549
0.000365151
9.03782e-05
-0.000107033
0.000425732
-4.01965e-05
0.000452847
-0.000179675
1.29151e-06
0.000465647
-0.000188721
0.000159166
0.000415962
-0.000143398
0.000316271
0.000327113
-4.75157e-05
0.000456239
0.000201127
8.64394e-05
0.000564161
5.36243e-05
0.000238255
0.000625284
-8.74721e-05
0.000383242
0.000630625
-0.0001888
0.00049621
0.00057958
-0.00022386
0.000557023
0.000477367
-0.000184784
0.00055604
0.000332046
-8.6557e-05
0.000496246
0.000159118
4.02524e-05
0.000389562
-1.09348e-05
0.000166114
0.0002546
-0.000142852
0.00027442
0.000110298
-0.000204864
0.000360677
-2.24111e-05
-0.000191496
0.000422378
-0.000121923
0.000451137
-0.000307286
0.000449144
-0.000312804
0.000405509
-0.000259944
0.000326155
-0.000149352
0.000205542
7.52374e-06
5.42346e-05
0.0001869
-0.000100967
0.000354601
-0.000221069
0.000474739
-0.000269759
0.000521932
-0.000233967
0.000490676
-0.000132346
0.000396386
-3.42073e-06
0.000264414
0.000122098
0.000117822
0.000227694
-2.69892e-05
0.000312561
-0.000156291
0.000375855
0.000408651
-0.000420499
-0.000215942
0.000556847
-0.000359336
-4.19969e-05
0.000435272
-0.000246233
0.000119791
0.000301457
-9.66082e-05
0.000258392
0.0001515
6.91085e-05
0.000361654
-1.28157e-06
0.000226714
0.000418612
-0.000133984
0.000351824
0.000424631
-0.000217667
0.000425503
0.000382381
-0.000228438
0.000437532
0.00029573
-0.000160824
0.000386271
0.000165591
-3.26666e-05
0.000277653
-1.5143e-06
0.000124401
0.00012613
-0.000179409
0.000280098
-4.57435e-05
-0.00032416
0.000413121
-0.000210057
-0.000396763
0.000509142
-0.000339878
-0.000387276
0.00055851
-0.000314477
0.000552274
-0.000513803
-0.000341497
0.000486315
-0.000449069
-0.000178664
0.000382738
-0.000326115
-2.88179e-05
0.000270068
-0.000161659
0.000103942
0.000137826
2.13243e-05
0.000211137
-3.95602e-06
0.000194931
0.000282667
-0.00013459
0.000330768
0.000310107
-0.000226033
0.000406979
0.000288841
-0.000252396
0.000413444
0.00021666
-0.000204933
0.000351609
9.32231e-05
-9.83824e-05
0.000231299
-7.17198e-05
3.83983e-05
6.90176e-05
-0.000248229
0.000177617
-0.000111978
-0.00039194
0.000300262
-0.000283808
-0.000466764
0.00039382
-0.000420594
-0.00046458
0.000450144
-0.000398209
0.000460451
-0.000572722
-0.00044301
0.000398565
-0.000506446
-0.000295766
0.00031014
-0.0003802
-0.000162229
0.000215084
-0.000210879
-4.06313e-05
9.99502e-05
-2.11791e-05
6.40528e-05
-2.76769e-05
0.000160975
0.00014387
-0.000150458
0.000305718
0.000189448
-0.00024455
0.000388461
0.00019079
-0.000285725
0.00039659
0.000139143
-0.000262117
0.00033084
3.0826e-05
-0.000181734
0.00020244
-0.000123726
-6.64572e-05
3.07548e-05
-0.000293142
6.00717e-05
-0.000158157
-0.000433837
0.000178976
-0.000335062
-0.000511516
0.000275721
-0.000474804
-0.000517878
0.000340723
-0.000458596
0.000365802
-0.000599644
-0.000509357
0.000299857
-0.000533591
-0.000379273
0.000227535
-0.000407738
-0.000262198
0.000148389
-0.000239107
-0.000153148
4.90731e-05
-4.99019e-05
-5.48878e-05
-6.40898e-05
0.000133756
2.72159e-05
-0.000176747
0.000282703
8.44498e-05
-0.000269758
0.000371345
0.000104701
-0.000322274
0.000384114
7.46145e-05
-0.00032057
0.000319142
-1.37247e-05
-0.000265438
0.000187482
-0.000152163
-0.000170772
1.07031e-05
-0.000310792
-5.60024e-05
-0.000182394
-0.000447624
5.96123e-05
-0.00036118
-0.00052904
0.000158976
-0.000500912
-0.000544579
0.000230885
-0.000493278
0.000268264
-0.000600591
-0.000534054
0.000199807
-0.000536416
-0.000420633
0.000143304
-0.000413574
-0.000317577
7.80702e-05
-0.000249282
-0.000219561
-6.97569e-06
-6.48338e-05
-0.000128555
-0.000106213
0.000115125
-4.83274e-05
-0.000207847
0.000263479
1.41344e-05
-0.000296596
0.000355192
4.69075e-05
-0.000355215
0.00037281
3.47743e-05
-0.00036963
0.000311602
-3.37213e-05
-0.000335087
0.000181342
-0.000154411
-0.000258428
4.5968e-06
-0.000301004
-0.00015515
-0.000188294
-0.000433798
-4.44271e-05
-0.000365573
-0.000519144
5.46951e-05
-0.000502926
-0.000543359
0.000129641
-0.000500399
0.000174694
-0.000582394
-0.000515804
0.000109268
-0.00052192
-0.000416857
6.54034e-05
-0.000404398
-0.00032381
1.02295e-05
-0.000246898
-0.000234067
-6.29809e-05
-6.98782e-05
-0.000149624
-0.000149684
0.000103755
-7.33696e-05
-0.000239573
0.000248476
-1.0447e-05
-0.000320744
0.000340797
2.81793e-05
-0.000379197
0.00036259
2.80156e-05
-0.000401849
0.000306985
-2.45972e-05
-0.000380852
0.000181933
-0.000129586
-0.000317921
9.62457e-06
-0.000265249
-0.000225002
-0.000178967
-0.000394635
-0.000120782
-0.000352039
-0.000483582
-2.51257e-05
-0.000485557
-0.000515021
4.8247e-05
-0.000479779
9.47824e-05
-0.000549975
-0.000458036
3.96439e-05
-0.000495077
-0.00036998
1.80657e-06
-0.00038519
-0.00028298
-4.82713e-05
-0.000236154
-0.000198227
-0.000114732
-6.78874e-05
-0.000118923
-0.000191493
9.82893e-05
-4.73074e-05
-0.000269722
0.000238506
1.24324e-05
-0.000340174
0.000330306
5.18154e-05
-0.00039202
0.000356157
5.7256e-05
-0.000414087
0.000307839
1.47405e-05
-0.000398004
0.00019126
-7.88813e-05
-0.000342695
2.70725e-05
-0.000206319
-0.000257366
-0.000154478
-0.000333392
-0.000159662
-0.000322107
-0.000425317
-6.97011e-05
-0.00045176
-0.0004618
-2.52437e-06
-0.000433019
3.92517e-05
-0.000505048
-0.000367576
1.14188e-06
-0.000458353
-0.000286967
-3.75423e-05
-0.000357882
-0.000201929
-9.17658e-05
-0.000218698
-0.000119407
-0.000157887
-5.96839e-05
-4.39394e-05
-0.000229187
9.91111e-05
2.26632e-05
-0.000297383
0.000234832
7.72093e-05
-0.000355147
0.000326606
0.000113148
-0.000394419
0.000357505
0.000118739
-0.000407061
0.000318589
8.04951e-05
-0.000386342
0.000213562
-6.66904e-06
-0.000330774
6.04823e-05
-0.000129036
-0.000248049
-0.000112357
-0.000254848
-0.000154746
-0.000274539
-0.000348858
-7.09262e-05
-0.000402109
-0.000388277
-1.1943e-05
-0.000363551
1.79847e-05
-0.00044792
-0.000254868
4.53465e-06
-0.000411462
-0.00017683
-4.66147e-05
-0.000322227
-9.07325e-05
-0.000113527
-0.000193982
-8.73065e-06
-0.000187631
-4.42961e-05
6.35164e-05
-0.000259829
0.000107293
0.000124226
-0.000321624
0.000239407
0.000171575
-0.000366474
0.000332301
0.000200762
-0.000388874
0.00036983
0.000202047
-0.000384294
0.000342655
0.000163111
-0.000349325
0.000252146
7.80891e-05
-0.000284349
0.000112846
-4.17942e-05
-0.000197209
-5.00561e-05
-0.000166702
-0.000104018
-0.000207642
-0.000261115
-2.46774e-05
-0.00033532
-0.000300639
2.47497e-05
-0.000277228
3.87258e-05
-0.000378153
-0.000132169
5.36588e-05
-0.000353948
-5.09684e-05
-1.87677e-05
-0.000277206
3.87315e-05
-0.000107222
-0.000160428
0.000121009
-0.000198199
-2.01922e-05
0.000189284
-0.000279145
0.000124623
0.000242328
-0.000340025
0.000253794
0.000279783
-0.000374202
0.00034866
0.000298789
-0.000378094
0.00039388
0.000291674
-0.000350756
0.000380018
0.000247781
-0.000293184
0.000306212
0.000161333
-0.000209575
0.000182957
4.22157e-05
-0.000109951
3.1306e-05
-8.10758e-05
-1.11468e-05
-0.000122139
-0.000173043
6.70368e-05
-0.00025199
-0.000208706
0.000108068
-0.000182173
0.000104417
-0.000298952
-1.5315e-05
0.000146717
-0.000287569
7.63006e-05
4.8353e-05
-0.000223252
0.000172904
-6.77922e-05
-0.000117471
0.000256328
-0.000183251
1.37169e-05
0.000319567
-0.00028108
0.000152089
0.000362334
-0.000348136
0.000278351
0.000386283
-0.000376495
0.000374813
0.000390956
-0.000363487
0.000427032
0.000371026
-0.000311282
0.000425676
0.000317651
-0.000225704
0.000368373
0.000226061
-0.000116191
0.000261796
0.000105947
3.02082e-06
0.00012249
-1.46792e-05
0.000113111
-2.61806e-05
-0.000100436
0.000194103
-0.000158286
-0.000127055
0.000229915
-9.14218e-05
0.000211063
-0.000221485
7.54319e-05
0.000271588
-0.000219706
0.000185544
0.000149786
-0.000164831
0.000294437
5.75749e-06
-6.76385e-05
0.000382164
-0.000138205
5.60497e-05
0.000440891
-0.000259635
0.000188529
0.000471618
-0.000340474
0.000311205
0.000478599
-0.000369912
0.000407179
0.000464579
-0.000344851
0.000462783
0.000427017
-0.000269702
0.00046934
0.000359249
-0.000155015
0.000423906
0.000257899
-1.66773e-05
0.00033096
0.000133778
0.000125797
0.00020304
1.55013e-05
0.000249939
6.04698e-05
-6.16995e-05
0.000336484
-7.14852e-05
-7.48724e-05
0.000371309
-2.44544e-05
0.000344246
-0.000166981
0.000118487
0.000403312
-0.000166514
0.000252307
0.000269321
-0.000113593
0.000380069
0.000105505
-1.90641e-05
0.000478782
-6.44046e-05
0.000101106
0.000538059
-0.00021242
0.000229251
0.000558678
-0.000313478
0.000347383
0.000547939
-0.000351769
0.000439205
0.000512675
-0.000321932
0.000491948
0.000453883
-0.000229443
0.000497898
0.000367133
-8.94028e-05
0.000454889
0.000250985
7.54447e-05
0.000367098
0.000118429
0.000238323
0.000245452
-9.79262e-08
0.000374248
0.00010833
-6.93039e-05
0.000465685
-1.99502e-05
-6.86186e-05
0.000502426
-2.59475e-06
0.000475759
-0.000159672
0.000100825
0.000510693
-0.000149887
0.000256209
0.000379256
-8.80741e-05
0.000405197
0.000211048
1.38237e-05
0.000522048
2.59069e-05
0.000138213
0.000591496
-0.000145258
0.000266181
0.000610608
-0.000270229
0.000379798
0.000587448
-0.000324931
0.000463563
0.000532911
-0.00029887
0.000505986
0.000452171
-0.000197008
0.000501222
0.000343825
-3.89861e-05
0.000449013
0.000209132
0.000144614
0.000354926
6.44305e-05
0.000319927
0.000230912
-5.7474e-05
0.00046063
9.52266e-05
-0.000121427
0.000552959
-2.85129e-05
-0.00011078
0.000591633
-3.50839e-05
0.000570527
-0.000209
2.74444e-05
0.000572107
-0.000185251
0.000195697
0.000452727
-0.000107701
0.0003592
0.000295559
1.1618e-05
0.000493326
0.00011053
0.000152307
0.000579686
-7.52542e-05
0.000290876
0.000608994
-0.000224427
0.000405858
0.000585328
-0.000301662
0.00048104
0.000520794
-0.000286925
0.000507074
0.000424204
-0.00018285
0.000481806
0.000297232
-1.46955e-05
0.000409035
0.000144298
0.000177858
0.000297843
-1.35427e-05
0.000355278
0.000163519
-0.000141604
0.000492874
2.47036e-05
-0.000203912
0.000581978
-9.64344e-05
-0.000188783
0.000621519
-0.00011152
0.000607059
-0.00030131
0.000582602
-0.00027328
0.000477732
-0.000184751
0.000339035
-4.41e-05
0.000165297
0.000126401
-2.32363e-05
0.000294755
-0.000188607
0.000428097
-0.000286275
0.00050326
-0.000285814
0.000511082
-0.000186595
0.00045518
-1.87965e-05
0.000348618
0.000170422
0.000212607
0.000339555
6.61043e-05
0.000467051
-7.38317e-05
0.000550102
-0.000192599
0.0005909
0.000585327
-0.00031222
-0.000153796
0.000638086
-0.000227624
4.90874e-06
0.000469436
-0.000101675
0.000154737
0.000291545
4.77346e-05
0.0002772
0.0001081
0.000197437
0.000358094
-6.30838e-05
0.000323072
0.000389519
-0.000194369
0.000405279
0.000374981
-0.000254813
0.000434193
0.000325592
-0.000223884
0.000409502
0.000248642
-0.000104068
0.000336701
0.000142557
7.84781e-05
0.000223949
6.95602e-06
0.000285258
8.32329e-05
-0.000141632
0.00047871
-6.71974e-05
-0.000267566
0.000629943
-0.000203449
-0.000334204
0.000720164
-0.000301548
-0.000326989
0.000741127
-0.000258415
0.000692969
-0.000374285
-0.000270663
0.000567183
-0.000285167
-0.000124303
0.000422832
-0.000147985
1.59633e-05
0.000271659
1.82083e-05
0.000138245
0.000110588
0.000187429
0.000231394
-4.64767e-05
0.000331054
0.000285922
-0.000174617
0.00042487
0.000298169
-0.000243038
0.000456095
0.000270436
-0.000228465
0.0004249
0.000204895
-0.00012999
0.000339939
0.000100458
2.86779e-05
0.000213201
-3.87439e-05
0.000210837
5.93078e-05
-0.000191363
0.000381241
-0.00010244
-0.00032061
0.000515055
-0.000248177
-0.000392737
0.00059809
-0.000354432
-0.000395798
0.000625209
-0.000338479
0.000596367
-0.000412931
-0.000369409
0.000462534
-0.000323427
-0.000240274
0.000336606
-0.00018383
-0.000116126
0.000207577
-1.26355e-05
-2.34649e-06
6.93472e-05
0.000164798
9.37091e-05
-6.7425e-05
0.000319334
0.00016381
-0.000182883
0.000423927
0.00020055
-0.000251524
0.000461956
0.000198142
-0.000251461
0.00043114
0.000151559
-0.000177965
0.000340202
5.77476e-05
-4.8086e-05
0.000203456
-7.64001e-05
0.000107945
3.89126e-05
-0.000226333
0.000259585
-0.000131143
-0.00035524
0.000383661
-0.000281771
-0.000431788
0.0004654
-0.000390414
-0.000445194
0.000498761
-0.000399354
0.000483972
-0.000431207
-0.000439057
0.000336482
-0.000343074
-0.00032797
0.000227098
-0.000205767
-0.000221389
0.000116345
-3.70951e-05
-0.000119935
-2.01028e-06
0.000138917
-2.78992e-05
-0.000118494
0.000295237
4.88663e-05
-0.000218123
0.000405098
0.000102371
-0.000281439
0.000449454
0.000122109
-0.000290597
0.00042232
9.68371e-05
-0.000238713
0.000330356
1.98247e-05
-0.000135551
0.000188893
-0.000102213
-3.49618e-06
1.90358e-05
-0.000244168
0.000131689
-0.000154007
-0.000370028
0.000247443
-0.000304404
-0.000449971
0.000327556
-0.000410679
-0.000472762
0.000364729
-0.000437611
0.000360073
-0.000435864
-0.000474002
0.000203557
-0.000350002
-0.000379235
0.000108707
-0.000217556
-0.000288263
1.24975e-05
-5.6119e-05
-0.000199393
-8.89542e-05
0.00011233
-0.000114667
-0.000187894
0.000263092
-3.79207e-05
-0.000271822
0.000371655
2.37832e-05
-0.000326572
0.000418653
5.86605e-05
-0.000338765
0.000395264
5.19127e-05
-0.000301316
0.000305437
-6.91911e-06
-0.000218517
0.000164282
-0.000113591
-0.000105894
-4.95927e-06
-0.00024468
1.4604e-05
-0.00017532
-0.000365911
0.000121817
-0.000320502
-0.000447915
0.000197822
-0.000420411
-0.000478032
0.00023482
-0.000451728
0.00023546
-0.00043349
-0.000472875
7.87382e-05
-0.000350602
-0.000390872
-5.84743e-06
-0.00022502
-0.000312322
-9.12929e-05
-7.32284e-05
-0.00023406
-0.000180106
8.42809e-05
-0.000157528
-0.000264333
0.000225424
-8.49614e-05
-0.000333675
0.000328039
-2.17908e-05
-0.000377785
0.000373838
2.08e-05
-0.000387136
0.000352738
2.69741e-05
-0.00035581
0.000266572
-1.63818e-05
-0.000285224
0.000129626
-0.000108347
-0.000186218
-3.42814e-05
-0.000228568
-7.7208e-05
-0.00019714
-0.000344619
2.07852e-05
-0.00033325
-0.000427318
9.03863e-05
-0.000424145
-0.000461989
0.0001231
-0.000441865
0.000123667
-0.000427225
-0.000437577
-2.33645e-05
-0.000348691
-0.000365254
-0.000102346
-0.000230859
-0.000294514
-0.000183911
-9.00196e-05
-0.000224305
-0.000265325
5.53463e-05
-0.000155589
-0.000338798
0.000185351
-8.92996e-05
-0.000395388
0.000280028
-2.92017e-05
-0.00042744
0.000322473
1.50209e-05
-0.000428686
0.000302632
2.80058e-05
-0.000395278
0.00022113
-4.70165e-06
-0.000328182
9.11149e-05
-8.51725e-05
-0.000235854
-6.40216e-05
-0.000196344
-0.000134452
-0.000216645
-0.000307764
-4.38932e-05
-0.000341824
-0.000390013
1.81728e-05
-0.000423179
-0.000426709
4.3551e-05
-0.000409654
3.8796e-05
-0.000416906
-0.00037261
-8.87969e-05
-0.000343136
-0.000305981
-0.000170585
-0.000234155
-0.000239698
-0.000255563
-0.000104674
-0.000175188
-0.000336486
2.86007e-05
-0.000113624
-0.000404427
0.00014772
-5.47949e-05
-0.000451007
0.000234519
-7.61839e-07
-0.000470385
0.000273633
4.05551e-05
-0.000459067
0.000255509
5.50899e-05
-0.000416022
0.000180107
2.8002e-05
-0.000343643
5.91805e-05
-4.49457e-05
-0.000250074
-8.5268e-05
-0.000149589
-0.000150356
-0.000226814
-0.000257181
-6.37837e-05
-0.0003417
-0.000337971
-8.0824e-06
-0.000414776
-0.000374023
8.44695e-06
-0.000357434
-7.13401e-06
-0.000398193
-0.000283097
-0.000106673
-0.000330703
-0.000219445
-0.00020064
-0.000231098
-0.000154772
-0.000298057
-0.000112818
-9.43711e-05
-0.000386728
9.14688e-06
-3.98008e-05
-0.000455617
0.000118491
1.02894e-05
-0.000496052
0.000198831
5.56684e-05
-0.000503244
0.000236119
9.05491e-05
-0.000476155
0.000221482
0.000102379
-0.000416946
0.00015426
7.67053e-05
-0.000330805
4.44439e-05
7.84985e-06
-0.000227328
-8.82122e-05
-9.22844e-05
-0.000121857
-0.000219172
-0.000196435
-3.38034e-05
-0.000325985
-0.000274599
1.87639e-05
-0.000393993
-0.000307582
2.63163e-05
-0.000288646
-4.16707e-06
-0.000366921
-0.000176945
-6.94693e-05
-0.00030704
-0.000112843
-0.000185251
-0.000216997
-4.75698e-05
-0.000304467
-0.000109231
9.42451e-06
-0.000409761
2.6122e-06
5.62608e-05
-0.000487049
0.000103738
9.55952e-05
-0.000526457
0.000179347
0.000129395
-0.000523536
0.00021675
0.000154269
-0.000479218
0.000207665
0.000159627
-0.000398919
0.000150784
0.000131884
-0.000291482
5.3927e-05
6.45969e-05
-0.000169465
-6.61272e-05
-3.21322e-05
-5.00489e-05
-0.000187505
-0.000132323
4.61198e-05
-0.000289066
-0.000205744
9.97428e-05
-0.000355784
-0.000232708
9.99125e-05
-0.000208574
5.2458e-05
-0.000320961
-6.52781e-05
2.45453e-05
-0.000269477
4.49947e-06
-0.000120474
-0.000188482
7.30155e-05
-0.000269372
-8.98503e-05
0.000127216
-0.000399675
1.35425e-05
0.00016504
-0.000493252
0.000108072
0.000190891
-0.000537961
0.000180378
0.000209454
-0.000528861
0.000219068
0.000220267
-0.000468174
0.000216538
0.000215142
-0.000364266
0.000170995
0.000181817
-0.000230094
8.80922e-05
0.000113647
-8.23379e-05
-1.87937e-05
1.93697e-05
5.84048e-05
-0.000131487
-7.56462e-05
0.000169127
-0.000230234
-0.000141604
0.000228709
-0.000299136
-0.00015869
0.000224799
-0.000125057
0.000159877
-0.000263859
3.4985e-05
0.000167524
-0.000219819
0.000118459
-8.21334e-06
-0.000145696
0.00019493
-0.00019028
-5.35659e-05
0.000248635
-0.000351754
4.37495e-05
0.000277135
-0.000469045
0.000133327
0.000287256
-0.000526417
0.000202975
0.000286953
-0.000517059
0.000242494
0.000279454
-0.000443559
0.0002452
0.000259476
-0.000316741
0.000209345
0.000216374
-0.000153717
0.000138902
0.000143738
2.36743e-05
4.39919e-05
4.99131e-05
0.000190163
-6.07637e-05
-4.03618e-05
0.000319411
-0.000158033
-9.69063e-05
0.000389056
-0.000230769
-0.000100524
0.00038588
-5.26195e-05
0.000308698
-0.000208736
0.000100643
0.000337466
-0.000167487
0.000206532
0.000139998
-9.48096e-05
0.000299091
-7.13331e-05
-3.83264e-06
0.000358668
-0.000265414
9.09979e-05
0.000381867
-0.000411982
0.000177618
0.000376693
-0.000489535
0.000244476
0.000355786
-0.000487461
0.000282471
0.000326895
-0.000407367
0.000286171
0.000288143
-0.00026181
0.000254632
0.000230689
-7.21786e-05
0.000191374
0.000148723
0.000133718
0.000104014
5.07324e-05
0.000324864
4.08075e-06
-3.79498e-05
0.000471769
-9.29898e-05
-8.64647e-05
0.000552314
-0.00016927
-7.62975e-05
0.000554479
-1.20571e-05
0.000474851
-0.000177555
0.000109981
0.000498219
-0.000130625
0.000241789
0.00029707
-5.00508e-05
0.000358186
7.1378e-05
4.83208e-05
0.000434484
-0.000148281
0.000148138
0.000462316
-0.000325525
0.000235477
0.000448921
-0.000429796
0.000299431
0.000410512
-0.000443612
0.000332293
0.000360414
-0.000365252
0.000330529
0.000301031
-0.000208132
0.00029492
0.000225628
1.68409e-06
0.000229534
0.000129298
0.000229424
0.000140902
2.15698e-05
0.000437721
3.91439e-05
-7.08313e-05
0.00059527
-6.08699e-05
-0.000116107
0.000682615
-0.000140382
-9.6902e-05
0.00069175
-2.0939e-05
0.000619718
-0.000188411
5.78984e-05
0.000612969
-0.000129785
0.000209261
0.000426627
-3.22025e-05
0.00034838
0.000207783
8.61754e-05
0.000448036
-2.13999e-05
0.000203433
0.000493228
-0.000223423
0.00030056
0.000484987
-0.000357621
0.000364779
0.000439412
-0.000394781
0.000389843
0.000374862
-0.000326437
0.000375442
0.000298597
-0.000166015
0.000325544
0.000205981
5.48491e-05
0.000246294
9.30569e-05
0.00029335
0.000145109
-2.85516e-05
0.000506584
3.31447e-05
-0.000129922
0.00066393
-7.41936e-05
-0.000177926
0.000751135
-0.00015789
-0.0001572
0.000765514
-7.83765e-05
0.000706238
-0.000240462
0.000661723
-0.000175715
0.000498578
-6.13876e-05
0.000302314
8.58416e-05
8.28956e-05
0.000237414
-0.000127575
0.000362251
-0.000283226
0.000438532
-0.000343186
0.000458747
-0.000290228
0.000426493
-0.000136451
0.000351014
8.17633e-05
0.0002442
0.000315232
0.000120342
0.000518598
-5.93505e-06
0.00066458
-0.000119957
0.000745632
-0.000207553
0.000763766
0.000719588
-0.000154693
-4.38767e-05
0.000641517
-5.31605e-05
7.9703e-05
0.000445912
7.26231e-05
0.000193203
0.000238693
0.000203498
0.000276065
3.58727e-05
0.000315733
0.000316068
-0.000138934
0.000388817
0.000312286
-0.000255121
0.000412125
0.00027741
-0.000283536
0.000386915
0.000228166
-0.00021104
0.000322982
0.000171479
-4.9312e-05
0.000232861
0.000102106
0.000168993
0.000127253
1.39212e-05
0.00040301
1.57077e-05
-8.56974e-05
0.000613206
-9.0295e-05
-0.000172462
0.000768045
-0.000175726
-0.000217409
0.000846524
-0.000224586
-0.000205397
0.000840894
-0.000143679
0.000757573
-0.000182446
-0.000135597
0.000585311
-7.61383e-05
-2.37204e-05
0.000419947
6.16385e-05
8.43086e-05
0.000242777
0.000211008
0.000172969
6.43142e-05
0.000345184
0.000231468
-9.60533e-05
0.000438337
0.0002548
-0.000210284
0.000474458
0.000246814
-0.000248562
0.000452459
0.000216233
-0.000194534
0.000383183
0.000166934
-5.61682e-05
0.000281799
9.52834e-05
0.000136883
0.000161964
-5.66927e-07
0.00034516
3.53186e-05
-0.000108942
0.00053113
-8.52752e-05
-0.000203802
0.000666989
-0.00018411
-0.000257848
0.000737364
-0.000244479
-0.000258236
0.000738417
-0.000210488
0.000674738
-0.000200357
-0.000219882
0.00047556
-9.53165e-05
-0.000125579
0.000333425
4.42189e-05
-3.14294e-05
0.000183779
0.000199753
5.27741e-05
3.40084e-05
0.000345244
0.000119763
-0.00010121
0.000453149
0.000164332
-0.000200321
0.000503
0.000184106
-0.000238667
0.000489095
0.000178517
-0.00019984
0.000420183
0.000145035
-8.71533e-05
0.000312168
7.93724e-05
7.58397e-05
0.000181279
-1.67231e-05
0.00025499
4.25783e-05
-0.000127607
0.000416951
-8.81583e-05
-0.000226196
0.000536792
-0.000193945
-0.000287058
0.000600396
-0.00025846
-0.00029914
0.00060418
-0.00026592
0.000552559
-0.000210406
-0.000285666
0.000334275
-0.000108956
-0.000209807
0.000209876