/*--------------------------------*- C++ -*----------------------------------*\
| =========                 |                                                 |
| \\      /  F ield         | OpenFOAM: The Open Source CFD Toolbox           |
|  \\    /   O peration     | Version:  3.0.0                                 |
|   \\  /    A nd           | Web:      www.OpenFOAM.org                      |
|    \\/     M anipulation  |                                                 |
\*---------------------------------------------------------------------------*/
FoamFile
{
    version     2.0;
    format      ascii;
    class       volVectorField;
    location    "5.25";
    object      U;
}
// * * * * * * * * * * * * * * * * * * * * * * * * * * * * * * * * * * * * * //

dimensions      [0 1 -1 0 0 0 0];

internalField   nonuniform List<vector> 
4096
(
(-0.12571 -0.0435161 0.0842058)
(-0.116921 6.53204e-06 0.0773773)
(-0.102939 0.0385143 0.0638912)
(-0.0746899 0.0711092 0.042144)
(-0.0365767 0.0962512 0.014037)
(0.00668672 0.111755 -0.0165051)
(0.0492902 0.11566 -0.043827)
(0.0843465 0.106936 -0.0617161)
(0.105402 0.0852088 -0.0663922)
(0.108236 0.050501 -0.0587036)
(0.0920634 0.00519259 -0.0426308)
(0.0596555 -0.0428266 -0.0216536)
(0.0166665 -0.080777 0.00246739)
(-0.0298343 -0.0977869 0.0277197)
(-0.073257 -0.092357 0.0505145)
(-0.0978513 -0.0719629 0.0655188)
(-0.158642 -0.0756858 0.0709556)
(-0.146454 -0.0344284 0.0668042)
(-0.132095 0.00234369 0.0565103)
(-0.101222 0.0349177 0.0373316)
(-0.0593655 0.0619535 0.0105834)
(-0.0120075 0.0809689 -0.0203314)
(0.0342519 0.0889194 -0.0500749)
(0.0716333 0.0831708 -0.0722592)
(0.0931573 0.0622884 -0.0821993)
(0.0948202 0.0267474 -0.0793388)
(0.0764745 -0.0191979 -0.0663374)
(0.0414639 -0.065984 -0.0461888)
(-0.00408212 -0.10138 -0.0212442)
(-0.0529813 -0.116845 0.00561624)
(-0.0990982 -0.112296 0.0305964)
(-0.122537 -0.0934014 0.0484132)
(-0.180216 -0.104 0.0581237)
(-0.165097 -0.0651419 0.0572387)
(-0.150611 -0.0319049 0.0502977)
(-0.118621 -0.00253845 0.0339418)
(-0.0753031 0.0225773 0.00901141)
(-0.0262252 0.0419465 -0.0216408)
(0.0220857 0.0528993 -0.053268)
(0.0616691 0.0520711 -0.0797181)
(0.0849781 0.0364359 -0.0955719)
(0.0873456 0.00509844 -0.0985868)
(0.0682511 -0.0381516 -0.0897044)
(0.0312122 -0.0835489 -0.0711432)
(-0.0168859 -0.118587 -0.0455645)
(-0.0681681 -0.134576 -0.0166675)
(-0.116412 -0.13108 0.0112117)
(-0.13831 -0.11199 0.0325908)
(-0.189585 -0.123658 0.0463535)
(-0.173446 -0.0882028 0.0496139)
(-0.159112 -0.0585373 0.0465368)
(-0.126965 -0.0322312 0.0335483)
(-0.0835115 -0.00914933 0.0111033)
(-0.0342478 0.00995576 -0.0185303)
(0.0146689 0.0230118 -0.0512558)
(0.0556564 0.0265457 -0.0814436)
(0.0809608 0.0164801 -0.103234)
(0.0850409 -0.0095208 -0.112686)
(0.0664667 -0.0487093 -0.108757)
(0.0285574 -0.0917672 -0.0926493)
(-0.0211903 -0.126269 -0.0672031)
(-0.0741441 -0.143324 -0.0368187)
(-0.123695 -0.141711 -0.00641758)
(-0.144712 -0.12334 0.0183408)
(-0.187839 -0.132697 0.0363446)
(-0.172854 -0.10107 0.0440485)
(-0.159019 -0.0743681 0.0450148)
(-0.127492 -0.050436 0.0357965)
(-0.0848223 -0.0290759 0.0164808)
(-0.0363751 -0.0106062 -0.011218)
(0.0120826 0.00349475 -0.0439129)
(0.0535387 0.0101374 -0.0766033)
(0.0804565 0.0049551 -0.103341)
(0.0866863 -0.01549 -0.118858)
(0.0697627 -0.0499278 -0.120218)
(0.0324237 -0.0902317 -0.107414)
(-0.0176648 -0.124424 -0.0832074)
(-0.0713432 -0.143205 -0.0524539)
(-0.121442 -0.144132 -0.0206063)
(-0.142664 -0.127404 0.00652855)
(-0.176878 -0.130204 0.0287742)
(-0.165025 -0.102344 0.0403443)
(-0.152196 -0.0776899 0.0448369)
(-0.122037 -0.0552171 0.0392604)
(-0.0808107 -0.0350247 0.0234267)
(-0.0337439 -0.0172485 -0.00148523)
(0.0136722 -0.00292157 -0.0327306)
(0.0549741 0.00547194 -0.0660399)
(0.0830741 0.00385145 -0.0957351)
(0.0916166 -0.011781 -0.115867)
(0.0772618 -0.041656 -0.122041)
(0.0418843 -0.0792983 -0.11301)
(-0.00719616 -0.1135 -0.0911065)
(-0.0606392 -0.13445 -0.0613481)
(-0.110693 -0.138264 -0.0295543)
(-0.133351 -0.12392 -0.00163446)
(-0.15856 -0.116749 0.0245943)
(-0.151414 -0.0921404 0.0384984)
(-0.140231 -0.0685168 0.0451978)
(-0.11214 -0.0465152 0.0424025)
(-0.0728708 -0.0267627 0.029838)
(-0.0274968 -0.00947646 0.00826102)
(0.0186551 0.0046022 -0.0201674)
(0.0595439 0.0135613 -0.0518822)
(0.0885991 0.0139241 -0.0818351)
(0.09961 0.00165872 -0.104152)
(0.0886257 -0.0245993 -0.113696)
(0.0564809 -0.0600825 -0.108188)
(0.00964048 -0.0945676 -0.0892648)
(-0.0427728 -0.11782 -0.0617435)
(-0.0924814 -0.124537 -0.0315952)
(-0.117779 -0.113018 -0.00475183)
(-0.134341 -0.0942724 0.0249242)
(-0.133035 -0.0720084 0.0389241)
(-0.124223 -0.0484768 0.0457829)
(-0.0988385 -0.0261113 0.0441529)
(-0.061962 -0.00616034 0.0339016)
(-0.0184845 0.0108968 0.0155997)
(0.0263515 0.0244639 -0.00900101)
(0.0668118 0.0330928 -0.0370436)
(0.0968159 0.033987 -0.0643667)
(0.110497 0.0234405 -0.0857966)
(0.103588 -0.000518415 -0.0963385)
(0.075811 -0.0345581 -0.0931831)
(0.0323257 -0.0695015 -0.0772177)
(-0.0183829 -0.0948768 -0.0527151)
(-0.0676605 -0.104204 -0.0255115)
(-0.0966173 -0.0955075 -0.00147715)
(-0.105513 -0.0657743 0.0308025)
(-0.110655 -0.0445686 0.0423678)
(-0.104916 -0.0203668 0.0470055)
(-0.0827945 0.00288349 0.044352)
(-0.0486913 0.0233545 0.034703)
(-0.00730235 0.0402889 0.0188201)
(0.0362083 0.0531138 -0.00174908)
(0.0762924 0.060725 -0.0247023)
(0.107264 0.0609349 -0.0468614)
(0.123698 0.0505611 -0.0642572)
(0.121304 0.0275454 -0.0728185)
(0.0987835 -0.005752 -0.069955)
(0.0596753 -0.0411166 -0.0560641)
(0.0113698 -0.0680712 -0.0346677)
(-0.0373509 -0.0793374 -0.0110638)
(-0.0704961 -0.0729463 0.00906413)
(-0.0739045 -0.0349343 0.0424727)
(-0.0853321 -0.0131526 0.0496318)
(-0.0831578 0.0123137 0.0499405)
(-0.0646768 0.0366507 0.0439671)
(-0.0335998 0.0575853 0.032735)
(0.00556646 0.0741629 0.0175809)
(0.0476909 0.0858032 0.000226925)
(0.0873332 0.0916568 -0.0173322)
(0.119065 0.0900436 -0.0328168)
(0.137932 0.078461 -0.0437054)
(0.13987 0.0551268 -0.0473838)
(0.12287 0.0220069 -0.0422597)
(0.0888656 -0.0134178 -0.0287909)
(0.043791 -0.0409423 -0.00976015)
(-0.00391343 -0.0529803 0.0104134)
(-0.0408343 -0.047659 0.0265435)
(-0.043001 -0.00591651 0.0586604)
(-0.0593653 0.0182606 0.060814)
(-0.0605787 0.0456232 0.0557294)
(-0.045619 0.071149 0.0447168)
(-0.0175506 0.0922765 0.0297679)
(0.0193416 0.10792 0.0131894)
(0.0599561 0.117573 -0.00267813)
(0.0988767 0.120674 -0.0158042)
(0.130836 0.116024 -0.0245859)
(0.151185 0.101793 -0.0278301)
(0.156201 0.0768404 -0.0246969)
(0.143751 0.0433445 -0.0151198)
(0.114668 0.00840704 -0.000205939)
(0.0734493 -0.0182343 0.0177656)
(0.027813 -0.0292552 0.0354848)
(-0.0111167 -0.0231104 0.0487711)
(-0.0187279 0.0167106 0.0760922)
(-0.0372949 0.0449343 0.0743576)
(-0.0404727 0.0750728 0.064422)
(-0.0279763 0.102175 0.0479655)
(-0.00229394 0.123395 0.027949)
(0.0325726 0.137534 0.00796481)
(0.0716092 0.144268 -0.00857122)
(0.109389 0.143442 -0.0191513)
(0.140582 0.134399 -0.022494)
(0.160693 0.116033 -0.0185878)
(0.166418 0.0880621 -0.00833113)
(0.156006 0.0533882 0.00657661)
(0.130145 0.0192359 0.0241258)
(0.0925519 -0.00515736 0.0423277)
(0.0499748 -0.0132341 0.059004)
(0.0118304 -0.00413617 0.0711344)
(-0.00839701 0.0286682 0.0903287)
(-0.0256754 0.0616664 0.0867562)
(-0.0281937 0.0954997 0.0738901)
(-0.0159101 0.125094 0.0532033)
(0.00900785 0.147069 0.0282017)
(0.0427784 0.15982 0.00373684)
(0.0804793 0.163184 -0.0153522)
(0.116655 0.157534 -0.0256014)
(0.145873 0.142946 -0.0256254)
(0.163653 0.119154 -0.0162265)
(0.167069 0.0868511 -3.82794e-05)
(0.155244 0.0500238 0.0195478)
(0.129684 0.0164626 0.0397341)
(0.0941555 -0.00506897 0.0588168)
(0.0546859 -0.00917575 0.0754562)
(0.0194839 0.00396965 0.0875014)
(-0.0166481 0.0270253 0.0980211)
(-0.0299607 0.0641895 0.0940738)
(-0.0292333 0.101829 0.0803979)
(-0.0144118 0.134694 0.0576991)
(0.0122278 0.158659 0.0291999)
(0.0467366 0.171181 0.000387852)
(0.0840285 0.171827 -0.0224722)
(0.118535 0.161475 -0.0344053)
(0.144783 0.141123 -0.0333419)
(0.158318 0.11138 -0.0205765)
(0.156859 0.074063 -0.000362323)
(0.140703 0.0344523 0.0224148)
(0.112631 0.00104673 0.0445123)
(0.0770075 -0.0177973 0.0645602)
(0.0394307 -0.0181509 0.0815828)
(0.00750128 -0.00183124 0.0935972)
(-0.0419863 0.0118731 0.0982836)
(-0.0503308 0.0520253 0.0944196)
(-0.0459182 0.0920225 0.0812673)
(-0.0273 0.127231 0.0583584)
(0.00319437 0.15348 0.0278825)
(0.0412131 0.16732 -0.00496153)
(0.0807919 0.167353 -0.0326779)
(0.115307 0.154316 -0.0479609)
(0.138671 0.129692 -0.0471421)
(0.146743 0.0949553 -0.03219)
(0.138489 0.0529807 -0.00925298)
(0.115989 0.0103346 0.0154992)
(0.0836084 -0.0234848 0.0388277)
(0.046358 -0.0403904 0.0597951)
(0.0092435 -0.0378655 0.0774496)
(-0.0200847 -0.0199785 0.0894241)
(-0.0771835 -0.00961014 0.0919784)
(-0.082175 0.0309625 0.0886608)
(-0.0770455 0.0708249 0.0765917)
(-0.0558074 0.107095 0.0538616)
(-0.0204127 0.136324 0.0217134)
(0.0245419 0.154328 -0.0150356)
(0.0713335 0.157658 -0.0478978)
(0.11027 0.145018 -0.0670061)
(0.132793 0.117333 -0.0669219)
(0.134565 0.0772718 -0.0503015)
(0.117088 0.0302916 -0.0253081)
(0.0863679 -0.0146334 0.000695563)
(0.0492902 -0.0474806 0.0247681)
(0.010814 -0.0617985 0.0464258)
(-0.026015 -0.0573591 0.064919)
(-0.0529971 -0.0400025 0.0775813)
(-0.117241 -0.0380536 0.128759)
(-0.101905 0.00778942 0.104854)
(-0.0800865 0.0493098 0.0766359)
(-0.0454182 0.0831776 0.0428138)
(-0.00357215 0.106667 0.00643997)
(0.0392995 0.117792 -0.0270668)
(0.0767824 0.116499 -0.0508274)
(0.10312 0.104405 -0.0586682)
(0.114543 0.0827286 -0.0484871)
(0.109581 0.0509979 -0.0237474)
(0.0886717 0.00945691 0.00871863)
(0.0542005 -0.0362917 0.0425297)
(0.0109325 -0.0746481 0.0735591)
(-0.0345142 -0.0938633 0.0988621)
(-0.0753771 -0.0902587 0.115613)
(-0.0974029 -0.0695628 0.119999)
(-0.143323 -0.0718903 0.111078)
(-0.124993 -0.0286567 0.0911233)
(-0.102251 0.0118065 0.0676598)
(-0.0644162 0.0474407 0.0378163)
(-0.0182058 0.0753788 0.00390489)
(0.0292752 0.0925493 -0.029212)
(0.0705403 0.096936 -0.0548888)
(0.0987453 0.0882198 -0.0665814)
(0.109678 0.0668431 -0.0613688)
(0.102364 0.0332298 -0.0418131)
(0.0782769 -0.0101473 -0.0138973)
(0.0406934 -0.0557904 0.0166417)
(-0.00512107 -0.0924477 0.0459288)
(-0.0525991 -0.110933 0.0710809)
(-0.0956454 -0.109333 0.0895258)
(-0.117133 -0.0917057 0.0975212)
(-0.160076 -0.102238 0.0909179)
(-0.139415 -0.0623726 0.0746167)
(-0.116604 -0.0259506 0.0552611)
(-0.0777977 0.00684465 0.0292353)
(-0.0301018 0.034333 -0.00171269)
(0.0193697 0.0541426 -0.0334342)
(0.0630252 0.063818 -0.0601113)
(0.0934123 0.0612944 -0.0755617)
(0.1055 0.0451237 -0.0761351)
(0.0978533 0.014932 -0.0627516)
(0.072084 -0.0264656 -0.0396947)
(0.0320936 -0.0710282 -0.0117808)
(-0.0160364 -0.107455 0.0170243)
(-0.0652716 -0.126854 0.0432303)
(-0.109669 -0.127271 0.0639261)
(-0.129766 -0.111072 0.0755202)
(-0.167558 -0.124323 0.0694292)
(-0.146021 -0.0887318 0.0572673)
(-0.123556 -0.0567432 0.0418482)
(-0.0849547 -0.027286 0.0195291)
(-0.0374913 -0.00124363 -0.0082796)
(0.0119959 0.019736 -0.0381087)
(0.0563651 0.0332792 -0.0650382)
(0.0882072 0.0363763 -0.0835878)
(0.101867 0.0260231 -0.0896382)
(0.0950206 0.000723644 -0.0823654)
(0.0688599 -0.0369996 -0.064132)
(0.0276322 -0.0791399 -0.038809)
(-0.0217971 -0.114684 -0.0105439)
(-0.0718715 -0.134992 0.0165381)
(-0.116618 -0.137737 0.039117)
(-0.135325 -0.123467 0.0538636)
(-0.167366 -0.136186 0.0484704)
(-0.146392 -0.10503 0.0404917)
(-0.124563 -0.077044 0.0286756)
(-0.0869461 -0.0506986 0.00987795)
(-0.0407501 -0.0265114 -0.0147503)
(0.00750118 -0.00559624 -0.0422916)
(0.0512045 0.0100407 -0.0686691)
(0.0834128 0.0172104 -0.0891417)
(0.0982883 0.0120989 -0.0994372)
(0.0927138 -0.00785137 -0.0973561)
(0.0672261 -0.0410077 -0.0835344)
(0.0260857 -0.0800702 -0.0609031)
(-0.023377 -0.114548 -0.0336706)
(-0.0732379 -0.135863 -0.00643659)
(-0.117413 -0.140966 0.0171037)
(-0.135076 -0.128863 0.0339182)
(-0.161457 -0.13693 0.0301823)
(-0.142269 -0.109836 0.0256085)
(-0.121418 -0.0849688 0.0165388)
(-0.0853868 -0.0611275 0.000701511)
(-0.0411142 -0.0387655 -0.0208621)
(0.00523085 -0.0186984 -0.045754)
(0.0475153 -0.00247541 -0.0706076)
(0.0792967 0.00702226 -0.0914219)
(0.0948984 0.00580266 -0.104092)
(0.0907408 -0.00941181 -0.105617)
(0.0667268 -0.0381069 -0.095329)
(0.0268498 -0.0741123 -0.0752714)
(-0.0214873 -0.107603 -0.0495355)
(-0.0702339 -0.129908 -0.022994)
(-0.113178 -0.137095 0.000335665)
(-0.130351 -0.127115 0.0176482)
(-0.15129 -0.126888 0.0169272)
(-0.134881 -0.103103 0.0141483)
(-0.115428 -0.0802799 0.00630769)
(-0.0814786 -0.058115 -0.00767149)
(-0.0395193 -0.0372498 -0.0266932)
(0.00463309 -0.0183264 -0.0487659)
(0.0452504 -0.00252926 -0.0711289)
(0.0762975 0.00773055 -0.090515)
(0.0923845 0.00872595 -0.103298)
(0.0898116 -0.0031251 -0.106311)
(0.0679653 -0.0282819 -0.0981337)
(0.0303377 -0.0617847 -0.0800773)
(-0.0159831 -0.0945342 -0.0559563)
(-0.0630598 -0.117703 -0.0307491)
(-0.104545 -0.126489 -0.0087397)
(-0.122006 -0.118375 0.00731835)
(-0.13749 -0.107448 0.0110283)
(-0.124744 -0.0860662 0.00772962)
(-0.107172 -0.0642276 -0.000917104)
(-0.075708 -0.0429321 -0.0147251)
(-0.0362925 -0.0231659 -0.0322923)
(0.00562082 -0.00545529 -0.0517982)
(0.0445979 0.00927894 -0.0709644)
(0.0749671 0.0191037 -0.0872409)
(0.0916762 0.0207713 -0.0977631)
(0.0910585 0.0107204 -0.09978)
(0.0720928 -0.0121698 -0.0917406)
(0.037574 -0.0439869 -0.0745181)
(-0.00607482 -0.0763088 -0.0516104)
(-0.0512442 -0.100161 -0.0279707)
(-0.0914805 -0.109999 -0.00811479)
(-0.110232 -0.10329 0.00509457)
(-0.120136 -0.0808405 0.014388)
(-0.111841 -0.0608114 0.00805556)
(-0.0966073 -0.0390629 -0.00376398)
(-0.0679773 -0.0180518 -0.0195573)
(-0.0312459 0.000879141 -0.0373339)
(0.00845951 0.0172652 -0.0551163)
(0.0459454 0.0304462 -0.0709136)
(0.0758908 0.0389626 -0.0828288)
(0.0935485 0.0400665 -0.0889405)
(0.0953695 0.0304296 -0.0873769)
(0.0799978 0.00859491 -0.0770904)
(0.0493817 -0.0223066 -0.0589648)
(0.00895442 -0.0544159 -0.0363058)
(-0.0342472 -0.0786562 -0.0139582)
(-0.073636 -0.0889409 0.00341711)
(-0.0947043 -0.0830122 0.0126477)
(-0.0992983 -0.0499082 0.0280196)
(-0.0960297 -0.0299297 0.0164736)
(-0.0835448 -0.00760733 -0.000720961)
(-0.0579568 0.0133934 -0.0207737)
(-0.0239714 0.0314589 -0.0408028)
(0.0135819 0.0461853 -0.0583342)
(0.0497272 0.057254 -0.071353)
(0.0794486 0.0636609 -0.0784415)
(0.0982873 0.0631671 -0.0786338)
(0.102865 0.0528158 -0.0712273)
(0.0915741 0.0310693 -0.056248)
(0.0654764 0.000563254 -0.0351566)
(0.0287788 -0.0312784 -0.0113692)
(-0.0123313 -0.0553422 0.0104097)
(-0.0512201 -0.0652466 0.0255574)
(-0.0753491 -0.0592185 0.030571)
(-0.0761368 -0.0181451 0.0510557)
(-0.0778737 0.00342199 0.0333529)
(-0.0682414 0.0269678 0.00945592)
(-0.04561 0.0480634 -0.0167148)
(-0.0142333 0.0649514 -0.0410873)
(0.0212835 0.0774023 -0.0602805)
(0.0561521 0.0855322 -0.0718743)
(0.0856154 0.088872 -0.0746378)
(0.105494 0.0857324 -0.0684011)
(0.112606 0.0736015 -0.0537771)
(0.105223 0.0510905 -0.0322084)
(0.0836828 0.0206289 -0.00631479)
(0.0509571 -0.0106166 0.0199642)
(0.0121837 -0.033596 0.0421231)
(-0.0261511 -0.0419159 0.055874)
(-0.0532717 -0.034428 0.0575167)
(-0.0541204 0.00981953 0.079851)
(-0.0596295 0.0350828 0.0571007)
(-0.0521529 0.0609126 0.0268259)
(-0.0317827 0.0824755 -0.00620898)
(-0.00248164 0.0979388 -0.0365176)
(0.0312908 0.107405 -0.0593455)
(0.0648889 0.111582 -0.0713978)
(0.093762 0.110695 -0.0712509)
(0.113954 0.103694 -0.0592706)
(0.122508 0.0885749 -0.0372735)
(0.117754 0.0642632 -0.00841627)
(0.0996818 0.0333037 0.0230759)
(0.0703491 0.00285039 0.0525251)
(0.0339504 -0.0181086 0.0756851)
(-0.00337085 -0.0234426 0.0890616)
(-0.0322259 -0.0127687 0.0892388)
(-0.0394958 0.0282539 0.107959)
(-0.0460138 0.0592786 0.0831282)
(-0.0387787 0.0891571 0.0488871)
(-0.0189424 0.112499 0.0100857)
(0.00958784 0.127154 -0.0265488)
(0.0423541 0.133489 -0.0544655)
(0.0747789 0.132988 -0.0689532)
(0.102488 0.126807 -0.0678761)
(0.121725 0.114691 -0.0517625)
(0.129789 0.0952129 -0.023588)
(0.125252 0.0677381 0.011668)
(0.108161 0.0352343 0.0480011)
(0.0803302 0.0051493 0.0799825)
(0.0455143 -0.0135003 0.103943)
(0.00952866 -0.0150679 0.11755)
(-0.0191354 -6.35559e-05 0.118099)
(-0.0387973 0.0318048 0.128471)
(-0.0430061 0.069226 0.104602)
(-0.0333583 0.10477 0.070079)
(-0.0113121 0.132076 0.0285574)
(0.0188306 0.147922 -0.0130107)
(0.0521659 0.152314 -0.0464911)
(0.0839712 0.147465 -0.0651196)
(0.110011 0.135706 -0.0652568)
(0.126817 0.117796 -0.0471505)
(0.132087 0.0929441 -0.014812)
(0.124868 0.0610603 0.0247748)
(0.105618 0.0257775 0.0638741)
(0.0765437 -0.00487486 0.0967509)
(0.0416261 -0.0218109 0.120664)
(0.0065049 -0.0201373 0.134423)
(-0.0207039 -0.00153247 0.136001)
(-0.0537936 0.0189674 0.13784)
(-0.0538056 0.0612692 0.116245)
(-0.0405689 0.101783 0.0843993)
(-0.0142126 0.133863 0.0436461)
(0.0205527 0.153094 -0.000464333)
(0.0576694 0.15818 -0.039198)
(0.0911855 0.151199 -0.0632526)
(0.116282 0.135445 -0.066382)
(0.129732 0.112726 -0.0479364)
(0.130027 0.0828832 -0.0132521)
(0.117204 0.046298 0.028398)
(0.0927699 0.00735877 0.0679382)
(0.0599992 -0.0248603 0.100096)
(0.0234309 -0.0411842 0.123273)
(-0.0116936 -0.0376045 0.137024)
(-0.0372173 -0.0174078 0.139504)
(-0.0795875 -0.00340269 0.136085)
(-0.0767256 0.0400416 0.117045)
(-0.0622489 0.0827845 0.0889417)
(-0.031915 0.119377 0.050714)
(0.00978845 0.144774 0.00625958)
(0.0552987 0.155267 -0.0359604)
(0.0956397 0.15059 -0.0648147)
(0.123297 0.133512 -0.0713814)
(0.13419 0.106735 -0.0539427)
(0.127657 0.0713034 -0.0190226)
(0.105825 0.0292511 0.022255)
(0.0733463 -0.0129823 0.0601646)
(0.0358193 -0.0456113 0.090301)
(-0.00213481 -0.0607394 0.112242)
(-0.0370845 -0.0564565 0.126161)
(-0.060963 -0.0374789 0.130128)
(-0.0919178 -0.0241044 0.157179)
(-0.0712019 0.0177171 0.119055)
(-0.0440076 0.0556492 0.0784835)
(-0.00748259 0.0846829 0.0351746)
(0.0323988 0.101737 -0.00704052)
(0.0690042 0.105884 -0.0416147)
(0.0964317 0.0992425 -0.0606904)
(0.11086 0.0854437 -0.0582952)
(0.111224 0.0663889 -0.0339142)
(0.098473 0.0409941 0.00673129)
(0.0743175 0.00795282 0.0544005)
(0.0409807 -0.0295528 0.100091)
(0.00215183 -0.0622578 0.137141)
(-0.0366038 -0.0793779 0.161257)
(-0.0691875 -0.0760716 0.170243)
(-0.0853536 -0.0561337 0.162926)
(-0.109308 -0.0547168 0.138143)
(-0.0864877 -0.0153116 0.105436)
(-0.0577955 0.022638 0.0710397)
(-0.0176495 0.0551002 0.0329783)
(0.0271751 0.0784579 -0.00582231)
(0.0690074 0.0900405 -0.0395191)
(0.100591 0.0895726 -0.0604381)
(0.116913 0.078921 -0.0620264)
(0.116601 0.0596427 -0.0429217)
(0.101179 0.031671 -0.00816981)
(0.073351 -0.00430503 0.0335369)
(0.0362828 -0.0432429 0.073887)
(-0.00571789 -0.0758603 0.107139)
(-0.0470234 -0.0934248 0.129897)
(-0.0820097 -0.0928513 0.140565)
(-0.0988243 -0.0768829 0.137872)
(-0.120053 -0.0834516 0.112785)
(-0.0960701 -0.0480094 0.0843224)
(-0.0674069 -0.0139045 0.0549317)
(-0.0264144 0.0167381 0.0219286)
(0.0200776 0.0415384 -0.012451)
(0.0644586 0.0580812 -0.0434293)
(0.0990896 0.0647081 -0.0645886)
(0.117927 0.0608032 -0.0698463)
(0.118613 0.0460465 -0.0569839)
(0.102356 0.0200859 -0.0293156)
(0.0722547 -0.0154717 0.00625665)
(0.0323211 -0.0545909 0.0425873)
(-0.0122061 -0.0877956 0.0741817)
(-0.055222 -0.106837 0.0972647)
(-0.0912662 -0.108928 0.109909)
(-0.107263 -0.0957035 0.110951)
(-0.12489 -0.105533 0.0832989)
(-0.100638 -0.0747774 0.0590011)
(-0.0726589 -0.0452839 0.033868)
(-0.0323878 -0.0176831 0.00534327)
(0.0134508 0.00664201 -0.0247037)
(0.0577505 0.0259066 -0.0523627)
(0.0933602 0.0379904 -0.0726419)
(0.113954 0.0405726 -0.0804747)
(0.116159 0.0314162 -0.0731605)
(0.100267 0.00931932 -0.0521258)
(0.0692546 -0.0238001 -0.022187)
(0.0278172 -0.0614195 0.0106624)
(-0.0178749 -0.0941633 0.0409336)
(-0.0612413 -0.114252 0.0642835)
(-0.096935 -0.118937 0.0783861)
(-0.11125 -0.108595 0.082367)
(-0.125744 -0.119069 0.0527603)
(-0.101863 -0.0928314 0.0323509)
(-0.0748748 -0.0677251 0.010736)
(-0.0362447 -0.043452 -0.0139866)
(0.00752798 -0.020753 -0.0400965)
(0.0499402 -0.000810702 -0.0643844)
(0.0845879 0.0143876 -0.0830091)
(0.105502 0.0218248 -0.0919694)
(0.108775 0.0179937 -0.0885145)
(0.0937488 0.0006514 -0.0726404)
(0.0629606 -0.0287012 -0.0473611)
(0.0214882 -0.063726 -0.0176328)
(-0.0238393 -0.0953971 0.0110702)
(-0.0661471 -0.116181 0.0340117)
(-0.100232 -0.123059 0.0485601)
(-0.112344 -0.115294 0.0542651)
(-0.124488 -0.12333 0.0245798)
(-0.101412 -0.100881 0.00715687)
(-0.0756755 -0.0794146 -0.0120092)
(-0.0392438 -0.0581769 -0.0338026)
(0.00172291 -0.0375612 -0.0565433)
(0.0412997 -0.0183149 -0.0775276)
(0.073805 -0.00203631 -0.093826)
(0.0938234 0.00826169 -0.102364)
(0.0973993 0.00853438 -0.100674)
(0.0832655 -0.00431165 -0.0879784)
(0.0534833 -0.0296075 -0.0660262)
(0.0131883 -0.0617012 -0.0389253)
(-0.0304856 -0.0920414 -0.0119874)
(-0.070593 -0.113164 0.00982652)
(-0.102178 -0.121585 0.023689)
(-0.111927 -0.115777 0.0296045)
(-0.122083 -0.118487 0.00223078)
(-0.100186 -0.0989166 -0.0138107)
(-0.0759304 -0.0800288 -0.0320485)
(-0.0419882 -0.0611815 -0.0521759)
(-0.00413275 -0.0426442 -0.0723971)
(0.0322863 -0.024811 -0.0903308)
(0.0621944 -0.00885798 -0.103732)
(0.0807078 0.00253227 -0.110356)
(0.0840803 0.0052991 -0.108249)
(0.0708139 -0.00415016 -0.0964977)
(0.0425877 -0.0259995 -0.0761895)
(0.00435322 -0.055467 -0.050818)
(-0.0368166 -0.0845155 -0.0254724)
(-0.0741099 -0.105655 -0.0051841)
(-0.102877 -0.114913 0.00705519)
(-0.110566 -0.110289 0.0115995)
(-0.118394 -0.105412 -0.0110581)
(-0.098042 -0.0877872 -0.0278948)
(-0.0754245 -0.070431 -0.0471953)
(-0.0441462 -0.0532976 -0.0673919)
(-0.00943698 -0.0366488 -0.0863407)
(0.0238876 -0.0205777 -0.101795)
(0.0512474 -0.00584246 -0.111983)
(0.0682324 0.00531647 -0.115377)
(0.0714033 0.00908761 -0.110769)
(0.059231 0.00168657 -0.0976293)
(0.0330788 -0.0177406 -0.0769522)
(-0.00249439 -0.0452221 -0.051916)
(-0.040769 -0.0731986 -0.0274384)
(-0.075221 -0.0941052 -0.00858903)
(-0.10143 -0.103535 0.00144162)
(-0.107815 -0.0993607 0.00317205)
(-0.112371 -0.085322 -0.0126554)
(-0.0940614 -0.0688211 -0.0327647)
(-0.073275 -0.0521924 -0.0554686)
(-0.0446883 -0.0362549 -0.077854)
(-0.0129883 -0.0213562 -0.097178)
(0.0175009 -0.00731059 -0.11112)
(0.0426446 0.00556309 -0.118146)
(0.0584657 0.0155133 -0.117367)
(0.0618327 0.0190963 -0.10845)
(0.0512503 0.0125431 -0.0916412)
(0.0277476 -0.00545247 -0.0683496)
(-0.0047024 -0.0315827 -0.0418194)
(-0.0399798 -0.058686 -0.0169617)
(-0.0719598 -0.0791134 0.00104051)
(-0.0963411 -0.0880963 0.00874739)
(-0.102625 -0.0837112 0.00643997)
(-0.102802 -0.0598095 -0.000859292)
(-0.0871901 -0.0437051 -0.0266715)
(-0.0683517 -0.0272042 -0.0551184)
(-0.0423506 -0.0121903 -0.0819656)
(-0.0133944 0.000878345 -0.103622)
(0.0146258 0.0124947 -0.117411)
(0.0379801 0.0228463 -0.121832)
(0.0531052 0.0307265 -0.116498)
(0.0571747 0.033148 -0.101955)
(0.0487319 0.0264985 -0.0794811)
(0.0284318 0.00919966 -0.0513408)
(-0.000505997 -0.0159661 -0.0212804)
(-0.0327908 -0.0421821 0.00552378)
(-0.062811 -0.0617337 0.0236698)
(-0.0862465 -0.069614 0.0294197)
(-0.0937553 -0.0643479 0.0224525)
(-0.0891402 -0.0311309 0.0243154)
(-0.0768152 -0.0144135 -0.00880752)
(-0.059893 0.00247633 -0.0447886)
(-0.0361792 0.0166522 -0.0781536)
(-0.00953855 0.0275747 -0.104196)
(0.0164575 0.0361207 -0.119549)
(0.0384237 0.0430914 -0.122486)
(0.0531853 0.0479484 -0.112909)
(0.0582245 0.0482562 -0.0921521)
(0.0521673 0.0406829 -0.0626492)
(0.0353342 0.023525 -0.0278554)
(0.0101207 -0.000839067 0.0075317)
(-0.0191911 -0.0258701 0.0377691)
(-0.0476719 -0.0438789 0.0571986)
(-0.0709357 -0.049781 0.0618606)
(-0.080703 -0.0427469 0.0506383)
(-0.0726454 -0.00269101 0.0601078)
(-0.0635646 0.0162965 0.0199464)
(-0.048128 0.0343841 -0.0240418)
(-0.0260303 0.0479279 -0.0652424)
(-0.00101534 0.0563642 -0.0975042)
(0.0235069 0.0610951 -0.116346)
(0.0443978 0.0636777 -0.119438)
(0.0588209 0.0644056 -0.106685)
(0.0645805 0.0615185 -0.0800408)
(0.0604873 0.0520688 -0.0430969)
(0.046682 0.0343599 -0.00078793)
(0.0248845 0.0105329 0.0408513)
(-0.00169745 -0.0130656 0.0753022)
(-0.0289536 -0.0287874 0.0968205)
(-0.0524447 -0.031631 0.101567)
(-0.0647778 -0.021557 0.0877772)
(-0.0573852 0.0202584 0.10007)
(-0.0502176 0.0439299 0.055749)
(-0.0350069 0.0649046 0.00550917)
(-0.0131449 0.0788078 -0.0433468)
(0.0114525 0.0850467 -0.0829543)
(0.0353122 0.085559 -0.107116)
(0.0553914 0.0829129 -0.112351)
(0.0691579 0.0784349 -0.0981546)
(0.0747629 0.0711716 -0.0668616)
(0.0713437 0.0586277 -0.0232384)
(0.0591236 0.0392336 0.0260662)
(0.0393956 0.0150895 0.0733992)
(0.0145183 -0.00748559 0.111477)
(-0.0120736 -0.0207268 0.134924)
(-0.0359413 -0.0198069 0.140658)
(-0.0502286 -0.00549964 0.126837)
(-0.0496862 0.030961 0.134878)
(-0.041861 0.0614527 0.0910571)
(-0.0246777 0.0878414 0.0388464)
(-0.000569223 0.10449 -0.0151365)
(0.0257768 0.110165 -0.0617899)
(0.0503535 0.107134 -0.0926461)
(0.0700916 0.0991935 -0.102162)
(0.0827105 0.0889758 -0.0887119)
(0.0868319 0.0764776 -0.0547105)
(0.0821244 0.0596892 -0.0061698)
(0.0691293 0.0372183 0.0482502)
(0.0490032 0.0112809 0.0991375)
(0.0237243 -0.0115544 0.138807)
(-0.00350296 -0.0232535 0.162864)
(-0.0281619 -0.0191413 0.169594)
(-0.0435102 -0.000734728 0.157709)
(-0.0540176 0.0248223 0.156877)
(-0.0434614 0.0618403 0.117152)
(-0.0226461 0.0947744 0.0680133)
(0.00647489 0.116734 0.013385)
(0.0380594 0.124884 -0.0381941)
(0.0664126 0.120854 -0.07615)
(0.0874603 0.109275 -0.0917099)
(0.0989539 0.0942811 -0.0810452)
(0.100251 0.0769783 -0.0463279)
(0.0919285 0.0557724 0.00489353)
(0.0751855 0.0293258 0.0616561)
(0.051514 7.11563e-05 0.113058)
(0.0231957 -0.0247616 0.151763)
(-0.00627986 -0.036683 0.17486)
(-0.0324236 -0.0311741 0.18204)
(-0.0484267 -0.0105869 0.172651)
(-0.0688366 0.00555251 0.163448)
(-0.0562716 0.0456445 0.128835)
(-0.033047 0.0838549 0.0855578)
(0.00203126 0.113235 0.0343516)
(0.0424341 0.128792 -0.0181579)
(0.0795175 0.129122 -0.0608026)
(0.105976 0.117627 -0.0819382)
(0.118261 0.0996153 -0.0750862)
(0.116343 0.0778078 -0.0418541)
(0.102075 0.0514312 0.00884111)
(0.0780582 0.0197934 0.0642002)
(0.0475676 -0.0135095 0.112732)
(0.0144431 -0.0404136 0.148093)
(-0.0175108 -0.0529301 0.169146)
(-0.0449616 -0.0478654 0.176691)
(-0.0615047 -0.028423 0.17027)
(-0.0534159 -0.000592765 0.169296)
(-0.0282638 0.0318547 0.121424)
(0.00170163 0.0601254 0.0709131)
(0.0359792 0.0788846 0.0202185)
(0.0686238 0.0856047 -0.0253612)
(0.0933322 0.0810977 -0.0581558)
(0.105819 0.0696803 -0.0701459)
(0.105025 0.0561955 -0.056786)
(0.0928328 0.0423296 -0.0198725)
(0.072516 0.0261514 0.0328994)
(0.0470567 0.00523571 0.0910755)
(0.0186858 -0.0192749 0.144424)
(-0.0101782 -0.0411446 0.184823)
(-0.0360453 -0.0520995 0.206935)
(-0.0548476 -0.0474858 0.20876)
(-0.0614249 -0.0294182 0.191338)
(-0.06133 -0.0228621 0.151702)
(-0.0350157 0.00789033 0.110962)
(-0.00317142 0.0372495 0.0679859)
(0.0350717 0.0603329 0.0236292)
(0.0732361 0.0737849 -0.0179516)
(0.103784 0.0764582 -0.0498669)
(0.120794 0.0704363 -0.0640465)
(0.122091 0.0593186 -0.0551223)
(0.109485 0.0448435 -0.0239613)
(0.0868185 0.0260333 0.0223961)
(0.0578484 0.00190162 0.0738377)
(0.0255188 -0.0250758 0.120694)
(-0.00722446 -0.048447 0.15595)
(-0.0366418 -0.0611124 0.175746)
(-0.0587115 -0.059622 0.179069)
(-0.0674119 -0.0456094 0.166714)
(-0.0659345 -0.0464398 0.123102)
(-0.0397148 -0.019824 0.0876556)
(-0.00806471 0.00644745 0.051055)
(0.0310621 0.029148 0.0134105)
(0.0714412 0.0459009 -0.022138)
(0.10553 0.0551854 -0.0502368)
(0.126564 0.0569301 -0.0642611)
(0.130937 0.0521058 -0.0590742)
(0.119452 0.0410331 -0.0344454)
(0.0958275 0.0228834 0.00424614)
(0.064345 -0.00223165 0.0484447)
(0.0288191 -0.0307283 0.0896568)
(-0.00688795 -0.0557576 0.121505)
(-0.0385008 -0.0705984 0.140229)
(-0.0620009 -0.0722615 0.144714)
(-0.0708498 -0.0619209 0.135738)
(-0.0680648 -0.0661156 0.0877814)
(-0.0425183 -0.0443739 0.0566772)
(-0.012079 -0.0224185 0.0251862)
(0.0258067 -0.00203355 -0.00662199)
(0.0653531 0.0154797 -0.0361927)
(0.0997785 0.0289543 -0.0594562)
(0.122632 0.0372661 -0.0715869)
(0.129522 0.0391649 -0.0685029)
(0.11987 0.0330417 -0.0493594)
(0.0965199 0.0175392 -0.0176993)
(0.0638621 -0.00655693 0.0198619)
(0.0265801 -0.0348122 0.0560809)
(-0.0104398 -0.060223 0.0849539)
(-0.042412 -0.076484 0.102532)
(-0.0654209 -0.0809258 0.107474)
(-0.0726765 -0.0741652 0.10068)
(-0.0697348 -0.0800659 0.0500748)
(-0.0450254 -0.0628616 0.0225043)
(-0.0162771 -0.0453038 -0.00502583)
(0.0191513 -0.0280469 -0.0321206)
(0.0558971 -0.0115713 -0.0565183)
(0.0881065 0.0035206 -0.0750776)
(0.110242 0.015923 -0.084428)
(0.117969 0.0231968 -0.0817201)
(0.109742 0.02217 -0.0660676)
(0.08731 0.0105522 -0.039651)
(0.0547899 -0.010901 -0.0073906)
(0.0174405 -0.0374882 0.024563)
(-0.0190369 -0.062237 0.0504846)
(-0.0495191 -0.0791614 0.0663477)
(-0.0703354 -0.0856555 0.0707245)
(-0.0746923 -0.0817794 0.0648743)
(-0.0726186 -0.0878068 0.014259)
(-0.0486904 -0.0741705 -0.0108127)
(-0.0218636 -0.0603314 -0.0356062)
(0.0104836 -0.0461894 -0.0591653)
(0.0434311 -0.0316524 -0.079399)
(0.0720242 -0.0167762 -0.0937733)
(0.0916631 -0.00263183 -0.0999656)
(0.0985057 0.00800028 -0.0961752)
(0.0906828 0.0110939 -0.0818443)
(0.0691704 0.00346653 -0.0584667)
(0.0376753 -0.0146676 -0.029827)
(0.0017154 -0.0388761 -0.00124142)
(-0.0326047 -0.0623777 0.0218864)
(-0.060111 -0.0793296 0.035554)
(-0.077504 -0.0870044 0.0383999)
(-0.0782367 -0.0849822 0.0322846)
(-0.0771893 -0.0893546 -0.0155641)
(-0.0538376 -0.0780537 -0.0395759)
(-0.0289594 -0.0669262 -0.0631107)
(8.99026e-05 -0.055447 -0.0845725)
(0.0289362 -0.0430992 -0.101836)
(0.0534128 -0.0294709 -0.112722)
(0.0697118 -0.0152506 -0.11561)
(0.0745841 -0.00310845 -0.109547)
(0.0662796 0.00263719 -0.0945185)
(0.0454543 -0.00180314 -0.0719349)
(0.0154885 -0.0168875 -0.0450324)
(-0.018134 -0.0387127 -0.0185775)
(-0.0492725 -0.0608143 0.00231123)
(-0.0729548 -0.0773436 0.013731)
(-0.0863836 -0.0853716 0.0144165)
(-0.0834301 -0.0841071 0.00695087)
(-0.0824219 -0.0849375 -0.0357251)
(-0.0594595 -0.0748361 -0.0604727)
(-0.0364425 -0.0654261 -0.0847024)
(-0.0105939 -0.0560206 -0.105874)