/*--------------------------------*- C++ -*----------------------------------*\
| =========                 |                                                 |
| \\      /  F ield         | OpenFOAM: The Open Source CFD Toolbox           |
|  \\    /   O peration     | Version:  3.0.0                                 |
|   \\  /    A nd           | Web:      www.OpenFOAM.org                      |
|    \\/     M anipulation  |                                                 |
\*---------------------------------------------------------------------------*/
FoamFile
{
    version     2.0;
    format      ascii;
    class       volScalarField;
    location    "10";
    object      k;
}
// * * * * * * * * * * * * * * * * * * * * * * * * * * * * * * * * * * * * * //

dimensions      [0 2 -2 0 0 0 0];

internalField   nonuniform List<scalar> 
400
(
1.55692e-06
3.38167e-06
1.35214e-05
0.000120086
0.000370267
0.000558687
0.000652046
0.000695596
0.000708462
0.000703761
0.000661254
0.000620235
0.000556882
0.000501614
0.000434755
0.000373321
0.000309698
0.000244813
0.000172127
0.000102634
5.55895e-06
2.07435e-05
7.4492e-05
0.000216815
0.000321072
0.000361999
0.000371378
0.000372849
0.000372781
0.000380723
0.000395098
0.000423027
0.000454315
0.00048715
0.000522342
0.000548586
0.000559709
0.000556729
0.000510827
0.000462446
1.74393e-05
7.99693e-05
0.000169129
0.000254447
0.000312957
0.000341348
0.000367397
0.000393007
0.000433823
0.000466705
0.0004991
0.000519982
0.00054364
0.000571233
0.000608151
0.000653316
0.000703495
0.000735947
0.000782897
0.00091195
4.66763e-05
0.000132901
0.000205624
0.000270868
0.000322645
0.000360042
0.000411118
0.000451518
0.000479951
0.000498073
0.000514818
0.00052611
0.000546061
0.00057334
0.000617075
0.000675576
0.000754499
0.000838275
0.000913862
0.00119911
8.06909e-05
0.000164334
0.00023077
0.000292383
0.000344284
0.000386587
0.00041811
0.000432112
0.000433784
0.000414811
0.000406193
0.0004045
0.000427402
0.000465254
0.00053328
0.000630655
0.000760888
0.00088927
0.00102543
0.00141906
0.000122746
0.000185574
0.000243151
0.000304205
0.000355478
0.000382502
0.000392964
0.000365395
0.000322267
0.000295516
0.00028415
0.000281785
0.000303292
0.000342932
0.000414021
0.000528184
0.000709107
0.000911034
0.00110737
0.00158192
0.000164518
0.000186061
0.000248434
0.00031303
0.000351573
0.000363033
0.000336009
0.000277315
0.000233739
0.000210848
0.000201568
0.000200793
0.000225383
0.000263608
0.000329376
0.000437045
0.000636744
0.000915042
0.00118796
0.00171997
0.000214912
0.000183626
0.000247205
0.000311948
0.000339425
0.000330988
0.00027967
0.000215741
0.0001764
0.000157165
0.00015019
0.000152297
0.000176196
0.000213554
0.00027246
0.000366359
0.000560209
0.00089031
0.00126144
0.00183213
0.000257567
0.000178597
0.000243079
0.000305914
0.000323367
0.0003043
0.000242723
0.000178358
0.000143423
0.000126963
0.00012161
0.00012645
0.000147781
0.000184019
0.000237923
0.000320038
0.00049617
0.000860441
0.0013341
0.00193714
0.000312123
0.00016793
0.000233895
0.000297725
0.000314151
0.000286322
0.000219377
0.000159413
0.000126691
0.000111897
0.000107756
0.000114387
0.000133897
0.000169472
0.000218247
0.000291377
0.000443062
0.000827199
0.00140515
0.00203339
0.000350288
0.000163393
0.000220539
0.000284288
0.000303191
0.000277474
0.000218731
0.000160789
0.000127404
0.000111082
0.000105364
0.000110816
0.000128872
0.000164071
0.000209426
0.000277365
0.000408301
0.000797063
0.00147208
0.00213498
0.000385891
0.000166125
0.00020063
0.000270191
0.000294772
0.000276466
0.000224546
0.000169102
0.000134607
0.000116653
0.000112241
0.000117014
0.00013176
0.000163925
0.000207184
0.000271211
0.000391744
0.000778577
0.00153916
0.00224309
0.000385718
0.000172131
0.000183393
0.000246952
0.000279657
0.000272935
0.000240173
0.000188334
0.000152534
0.000132269
0.000129269
0.000134298
0.00014843
0.000179571
0.00021554
0.000270153
0.000385069
0.000770139
0.00161085
0.00237226
0.000366762
0.000185193
0.000175345
0.000214965
0.00026472
0.000265246
0.000251882
0.000219476
0.000187856
0.000166088
0.000160971
0.000164888
0.000176121
0.000202037
0.000229333
0.000279442
0.000384573
0.000769885
0.00170681
0.00253087
0.000313988
0.000184021
0.000168222
0.000185616
0.000232227
0.000248192
0.000246537
0.00023656
0.000218923
0.000204374
0.000198716
0.000201458
0.000209456
0.000225973
0.00024599
0.000291522
0.000400207
0.000809132
0.00184019
0.00274285
0.000198894
0.0001674
0.000158794
0.00017047
0.000205212
0.000231075
0.000235497
0.000233364
0.000227657
0.000222337
0.000221773
0.000223808
0.000227265
0.000236424
0.000255451
0.000306091
0.000431235
0.000876259
0.00201429
0.00302681
5.99081e-05
0.000119674
0.00013631
0.000145677
0.000165702
0.000191019
0.000204031
0.00021045
0.000211773
0.00021238
0.000213992
0.000218247
0.000225122
0.000239846
0.000269835
0.000346127
0.000515883
0.00103567
0.00230941
0.00343878
3.09659e-05
7.68476e-05
0.000110596
0.000134952
0.000157204
0.000180323
0.000193947
0.00020367
0.000207767
0.000213776
0.000219586
0.000231878
0.000248294
0.00028671
0.000357154
0.000527023
0.000790087
0.00144158
0.00288957
0.00408132
0.000151963
0.000312856
0.000376324
0.000407861
0.000430441
0.000468312
0.000495312
0.000546868
0.000584709
0.000660544
0.000721336
0.000836424
0.000946101
0.0011295
0.00130374
0.00171483
0.00212628
0.00297113
0.00454389
0.0052737
0.0030937
0.00597072
0.00682042
0.00679984
0.00668615
0.00657458
0.00648902
0.00647587
0.00647882
0.00650307
0.00653165
0.00660323
0.00665313
0.00675325
0.00685947
0.00694876
0.00704476
0.00717653
0.007678
0.00670817
)
;

boundaryField
{
    movingWall
    {
        type            kqRWallFunction;
        value           nonuniform List<scalar> 
20
(
0.0030937
0.00597072
0.00682042
0.00679984
0.00668615
0.00657458
0.00648902
0.00647587
0.00647882
0.00650307
0.00653165
0.00660323
0.00665313
0.00675325
0.00685947
0.00694876
0.00704476
0.00717653
0.007678
0.00670817
)
;
    }
    fixedWalls
    {
        type            kqRWallFunction;
        value           nonuniform List<scalar> 
60
(
1.55692e-06
5.55895e-06
1.74393e-05
4.66763e-05
8.06909e-05
0.000122746
0.000164518
0.000214912
0.000257567
0.000312123
0.000350288
0.000385891
0.000385718
0.000366762
0.000313988
0.000198894
5.99081e-05
3.09659e-05
0.000151963
0.0030937
0.000102634
0.000462446
0.00091195
0.00119911
0.00141906
0.00158192
0.00171997
0.00183213
0.00193714
0.00203339
0.00213498
0.00224309
0.00237226
0.00253087
0.00274285
0.00302681
0.00343878
0.00408132
0.0052737
0.00670817
1.55692e-06
3.38167e-06
1.35214e-05
0.000120086
0.000370267
0.000558687
0.000652046
0.000695596
0.000708462
0.000703761
0.000661254
0.000620235
0.000556882
0.000501614
0.000434755
0.000373321
0.000309698
0.000244813
0.000172127
0.000102634
)
;
    }
    frontAndBack
    {
        type            empty;
    }
}


// ************************************************************************* //
