/*--------------------------------*- C++ -*----------------------------------*\
| =========                 |                                                 |
| \\      /  F ield         | OpenFOAM: The Open Source CFD Toolbox           |
|  \\    /   O peration     | Version:  3.0.0                                 |
|   \\  /    A nd           | Web:      www.OpenFOAM.org                      |
|    \\/     M anipulation  |                                                 |
\*---------------------------------------------------------------------------*/
FoamFile
{
    version     2.0;
    format      ascii;
    class       volScalarField;
    location    "10";
    object      nut;
}
// * * * * * * * * * * * * * * * * * * * * * * * * * * * * * * * * * * * * * //

dimensions      [0 2 -1 0 0 0 0];

internalField   nonuniform List<scalar> 
400
(
1.21616e-08
2.64107e-08
1.05498e-07
9.27448e-07
2.79428e-06
4.14624e-06
4.8001e-06
5.10163e-06
5.1903e-06
5.15793e-06
4.86404e-06
4.57846e-06
4.13349e-06
3.74138e-06
3.262e-06
2.81655e-06
2.35008e-06
1.86882e-06
1.32288e-06
7.93979e-07
4.3406e-08
4.02595e-07
9.80329e-07
2.55874e-06
3.81044e-06
4.97056e-06
5.9407e-06
7.17203e-06
8.4187e-06
9.79554e-06
1.09011e-05
1.19541e-05
1.23393e-05
1.24103e-05
1.22164e-05
1.13675e-05
9.92443e-06
8.00363e-06
5.45413e-06
3.46121e-06
1.36015e-07
1.57078e-06
2.89446e-06
4.35047e-06
6.64037e-06
9.31835e-06
1.2288e-05
1.54075e-05
1.84886e-05
2.06724e-05
2.23248e-05
2.26874e-05
2.232e-05
2.15383e-05
2.01219e-05
1.8172e-05
1.54895e-05
1.1996e-05
8.48991e-06
6.56825e-06
3.63022e-07
2.75567e-06
4.33268e-06
6.68685e-06
1.11862e-05
1.56039e-05
2.16815e-05
2.66896e-05
3.08561e-05
3.34705e-05
3.52493e-05
3.60815e-05
3.53406e-05
3.40059e-05
3.13451e-05
2.76563e-05
2.28604e-05
1.71119e-05
1.09417e-05
8.43937e-06
6.2553e-07
3.77736e-06
5.99953e-06
1.00953e-05
1.68947e-05
2.34059e-05
3.08683e-05
3.58238e-05
4.03765e-05
4.10677e-05
4.14125e-05
4.14388e-05
4.08974e-05
3.98011e-05
3.79828e-05
3.47895e-05
2.96782e-05
2.2062e-05
1.36173e-05
9.81913e-06
9.47758e-07
4.72678e-06
7.6814e-06
1.38024e-05
2.26674e-05
3.01481e-05
3.85641e-05
4.1477e-05
4.26593e-05
4.25177e-05
4.25605e-05
4.25181e-05
4.22237e-05
4.18447e-05
4.09292e-05
3.89865e-05
3.51189e-05
2.70992e-05
1.6365e-05
1.08131e-05
1.2653e-06
5.20669e-06
9.21558e-06
1.74068e-05
2.73992e-05
3.53436e-05
4.20794e-05
4.16288e-05
4.17902e-05
4.12836e-05
4.09636e-05
4.08463e-05
4.10717e-05
4.12917e-05
4.10862e-05
4.00446e-05
3.79812e-05
3.16049e-05
1.92774e-05
1.16383e-05
1.64512e-06
5.5277e-06
1.0477e-05
2.0281e-05
3.06295e-05
3.79909e-05
4.24763e-05
4.05748e-05
3.99482e-05
3.9158e-05
3.87941e-05
3.89283e-05
3.99982e-05
4.09116e-05
4.12195e-05
4.04396e-05
3.92603e-05
3.4669e-05
2.23935e-05
1.22974e-05
1.96387e-06
5.66186e-06
1.1327e-05
2.17875e-05
3.18994e-05
3.90253e-05
4.22165e-05
3.93342e-05
3.81449e-05
3.71064e-05
3.66876e-05
3.70413e-05
3.8349e-05
3.97783e-05
4.04118e-05
3.98786e-05
3.93108e-05
3.67647e-05
2.52357e-05
1.29057e-05
2.36796e-06
5.51305e-06
1.16996e-05
2.26517e-05
3.2908e-05
3.94779e-05
4.10166e-05
3.82893e-05
3.67402e-05
3.56969e-05
3.5333e-05
3.58899e-05
3.7334e-05
3.91293e-05
3.9732e-05
3.9163e-05
3.8519e-05
3.79062e-05
2.84088e-05
1.34561e-05
2.64829e-06
5.12543e-06
1.13837e-05
2.17427e-05
3.16976e-05
3.8159e-05
4.05153e-05
3.82404e-05
3.66164e-05
3.54272e-05
3.49409e-05
3.54323e-05
3.68431e-05
3.87967e-05
3.92302e-05
3.86033e-05
3.72681e-05
3.79914e-05
3.08443e-05
1.40297e-05
2.90808e-06
4.60581e-06
1.01919e-05
2.03474e-05
3.01864e-05
3.70519e-05
3.98805e-05
3.82902e-05
3.67241e-05
3.55894e-05
3.52528e-05
3.55695e-05
3.64926e-05
3.81893e-05
3.89104e-05
3.81382e-05
3.64125e-05
3.77882e-05
3.31718e-05
1.46321e-05
2.90683e-06
4.00492e-06
8.79254e-06
1.78362e-05
2.71873e-05
3.4331e-05
3.8885e-05
3.81808e-05
3.68917e-05
3.59715e-05
3.59672e-05
3.63033e-05
3.70265e-05
3.83428e-05
3.78519e-05
3.66932e-05
3.57968e-05
3.75356e-05
3.49489e-05
1.53416e-05
2.7687e-06
3.42788e-06
7.3305e-06
1.42933e-05
2.38874e-05
3.05622e-05
3.63089e-05
3.85245e-05
3.83916e-05
3.77455e-05
3.75125e-05
3.75527e-05
3.76189e-05
3.7937e-05
3.68071e-05
3.52964e-05
3.37366e-05
3.61064e-05
3.54376e-05
1.61977e-05
2.3817e-06
2.87956e-06
5.83664e-06
1.06126e-05
1.83225e-05
2.48629e-05
3.00816e-05
3.40311e-05
3.57473e-05
3.64881e-05
3.67691e-05
3.67804e-05
3.66425e-05
3.60242e-05
3.45323e-05
3.29595e-05
3.22829e-05
3.56077e-05
3.63934e-05
1.73175e-05
1.52478e-06
2.23996e-06
4.25573e-06
7.99614e-06
1.36883e-05
1.97499e-05
2.44165e-05
2.81117e-05
3.05178e-05
3.18852e-05
3.28702e-05
3.28848e-05
3.24191e-05
3.14972e-05
3.04482e-05
2.97595e-05
3.03097e-05
3.43005e-05
3.64258e-05
1.87761e-05
4.65342e-07
1.62697e-06
3.00661e-06
4.95673e-06
8.06877e-06
1.22281e-05
1.60891e-05
1.94082e-05
2.20361e-05
2.37119e-05
2.49753e-05
2.53427e-05
2.55042e-05
2.55474e-05
2.5676e-05
2.66617e-05
2.90853e-05
3.36473e-05
3.66516e-05
2.08146e-05
2.41199e-07
1.18332e-06
2.3866e-06
3.93862e-06
5.95612e-06
8.46424e-06
1.08731e-05
1.30616e-05
1.4897e-05
1.63727e-05
1.76411e-05
1.85413e-05
1.93633e-05
2.08159e-05
2.28235e-05
2.63898e-05
2.987e-05
3.34332e-05
3.6723e-05
2.38299e-05
1.17012e-06
5.81808e-06
7.6099e-06
9.25367e-06
1.10106e-05
1.32094e-05
1.51594e-05
1.75109e-05
1.91223e-05
2.14208e-05
2.2867e-05
2.51495e-05
2.67879e-05
2.89996e-05
3.06472e-05
3.3411e-05
3.45713e-05
3.46459e-05
3.78058e-05
2.89798e-05
1.91132e-05
3.17666e-05
3.49772e-05
3.49017e-05
3.44823e-05
3.40677e-05
3.37475e-05
3.36982e-05
3.37092e-05
3.38002e-05
3.39073e-05
3.41745e-05
3.43599e-05
3.47302e-05
3.51203e-05
3.54461e-05
3.57942e-05
3.62686e-05
3.80377e-05
3.45638e-05
)
;

boundaryField
{
    movingWall
    {
        type            nutkWallFunction;
        Cmu             0.09;
        kappa           0.41;
        E               9.8;
        value           nonuniform List<scalar> 
20
(
0
0
0
0
0
0
0
0
0
0
0
0
0
0
0
0
0
4.77695e-08
3.1927e-07
0
)
;
    }
    fixedWalls
    {
        type            nutkWallFunction;
        Cmu             0.09;
        kappa           0.41;
        E               9.8;
        value           uniform 0;
    }
    frontAndBack
    {
        type            empty;
    }
}


// ************************************************************************* //
