/*--------------------------------*- C++ -*----------------------------------*\
| =========                 |                                                 |
| \\      /  F ield         | OpenFOAM: The Open Source CFD Toolbox           |
|  \\    /   O peration     | Version:  3.0.0                                 |
|   \\  /    A nd           | Web:      www.OpenFOAM.org                      |
|    \\/     M anipulation  |                                                 |
\*---------------------------------------------------------------------------*/
FoamFile
{
    version     2.0;
    format      ascii;
    class       volScalarField;
    location    "10";
    object      omega;
}
// * * * * * * * * * * * * * * * * * * * * * * * * * * * * * * * * * * * * * //

dimensions      [0 0 -1 0 0 0 0];

internalField   nonuniform List<scalar> 
400
(
128.019
128.042
128.167
129.479
132.509
134.746
135.84
136.348
136.497
136.443
135.948
135.468
134.724
134.072
133.279
132.546
131.782
130.999
130.116
129.266
128.069
51.5245
75.9868
84.7351
84.2613
72.8286
62.5142
51.9865
44.2801
38.867
36.2439
35.3875
36.8187
39.2536
42.7573
48.2592
56.3971
69.5596
93.6587
133.608
128.216
50.9105
58.4321
58.4873
47.1294
36.6318
29.8988
25.5076
23.4644
22.5762
22.3562
22.9194
24.3567
26.5218
30.2233
35.9518
45.4175
61.3494
92.215
138.842
128.577
48.2281
47.4588
40.5076
28.8432
23.0738
18.9617
16.9174
15.5545
14.881
14.6051
14.5811
15.4514
16.86
19.6865
24.4276
33.0046
48.9879
83.5209
142.085
128.996
43.5049
38.4647
28.9624
20.3782
16.5167
13.545
12.0621
10.7435
10.1007
9.80847
9.76137
10.4506
11.6895
14.04
18.1277
25.638
40.3077
75.3036
144.52
129.512
39.2602
31.6545
22.0399
15.6823
12.6874
10.1899
8.80957
7.55444
6.95042
6.67639
6.62741
7.18298
8.19534
10.1155
13.5479
20.1916
33.6184
67.6667
146.296
130.023
35.7351
26.958
17.9832
12.8315
10.2715
7.98511
6.66161
5.59316
5.10731
4.92066
4.91582
5.48754
6.38404
8.01672
10.914
16.7647
28.9525
61.6245
147.786
130.636
33.2192
23.595
15.3812
11.0816
8.71229
6.58413
5.31713
4.41571
4.01361
3.87147
3.91224
4.40511
5.21989
6.60999
9.05941
14.2691
25.6803
56.3306
148.985
131.153
31.5438
21.4602
14.0408
10.1371
7.79752
5.74948
4.53443
3.75996
3.42158
3.31474
3.41375
3.85358
4.62611
5.88746
8.02531
12.6217
23.404
52.8657
150.099
131.811
30.4605
19.9917
13.1436
9.54633
7.25272
5.3485
4.1634
3.44829
3.13464
3.04972
3.18717
3.58647
4.33108
5.49298
7.44011
11.5024
21.8223
49.4617
151.113
132.27
31.8789
19.3732
13.0751
9.56511
7.27152
5.39873
4.2047
3.47942
3.13548
3.01549
3.12754
3.49785
4.229
5.33838
7.18499
10.9558
20.9801
47.7262
152.176
132.696
36.0687
19.6851
13.2789
9.76507
7.46159
5.63046
4.41634
3.66537
3.27775
3.18389
3.28972
3.6106
4.29243
5.32464
7.11129
10.7585
20.6037
46.3996
153.299
132.694
42.98
20.8578
13.8456
10.2863
7.9501
6.17649
4.93268
4.13464
3.67705
3.59408
3.69932
4.00876
4.68331
5.6943
7.36247
10.7571
20.5176
46.0915
154.63
132.467
54.0253
23.9199
15.0395
11.082
8.6789
6.93719
5.69704
4.89316
4.40022
4.29112
4.39084
4.68172
5.3256
6.23069
7.917
11.3993
21.3227
48.1637
156.249
131.833
63.9059
28.8217
17.4902
12.6744
9.98244
8.19558
6.95129
6.12418
5.60112
5.40443
5.47732
5.71622
6.2728
7.12348
8.84487
12.3969
22.7235
50.5638
158.386
130.441
74.7334
37.313
21.319
14.9918
11.7001
9.645
8.30129
7.4598
6.97305
6.74693
6.80582
7.01021
7.5062
8.38971
10.2855
14.2276
25.5465
55.2985
161.205
128.74
73.5562
45.3369
29.3897
20.5362
15.6213
12.6813
10.8434
9.61026
8.95669
8.56813
8.61181
8.82685
9.38826
10.5092
12.9822
17.7369
30.7801
63.0098
165.21
128.383
64.9424
46.3402
34.2638
26.3937
21.3041
17.8373
15.593
13.9468
13.0569
12.4474
12.506
12.8229
13.7737
15.6485
19.9707
26.4509
43.1182
78.6856
171.268
129.87
53.7731
49.4519
44.0756
39.0932
35.4529
32.6736
31.2301
30.5773
30.8365
31.5448
33.2581
35.3182
38.9488
42.5405
51.3253
61.5043
85.7571
120.19
181.978
161.862
187.956
194.996
194.829
193.901
192.986
192.281
192.173
192.197
192.397
192.633
193.221
193.631
194.449
195.314
196.037
196.813
197.872
201.852
194.08
)
;

boundaryField
{
    movingWall
    {
        Cmu             0.09;
        kappa           0.41;
        E               9.8;
        beta1           0.075;
        type            omegaWallFunction;
        value           nonuniform List<scalar> 
20
(
161.862
187.956
194.996
194.829
193.901
192.986
192.281
192.173
192.197
192.397
192.633
193.221
193.631
194.449
195.314
196.037
196.813
197.872
201.852
194.08
)
;
    }
    fixedWalls
    {
        Cmu             0.09;
        kappa           0.41;
        E               9.8;
        beta1           0.075;
        type            omegaWallFunction;
        value           nonuniform List<scalar> 
60
(
128.019
128.069
128.216
128.577
128.996
129.512
130.023
130.636
131.153
131.811
132.27
132.696
132.694
132.467
131.833
130.441
128.74
128.383
129.87
161.862
129.266
133.608
138.842
142.085
144.52
146.296
147.786
148.985
150.099
151.113
152.176
153.299
154.63
156.249
158.386
161.205
165.21
171.268
181.978
194.08
128.019
128.042
128.167
129.479
132.509
134.746
135.84
136.348
136.497
136.443
135.948
135.468
134.724
134.072
133.279
132.546
131.782
130.999
130.116
129.266
)
;
    }
    frontAndBack
    {
        type            empty;
    }
}


// ************************************************************************* //
