/*--------------------------------*- C++ -*----------------------------------*\
| =========                 |                                                 |
| \\      /  F ield         | OpenFOAM: The Open Source CFD Toolbox           |
|  \\    /   O peration     | Version:  3.0.0                                 |
|   \\  /    A nd           | Web:      www.OpenFOAM.org                      |
|    \\/     M anipulation  |                                                 |
\*---------------------------------------------------------------------------*/
FoamFile
{
    version     2.0;
    format      ascii;
    class       volScalarField;
    location    "10";
    object      p;
}
// * * * * * * * * * * * * * * * * * * * * * * * * * * * * * * * * * * * * * //

dimensions      [0 2 -2 0 0 0 0];

internalField   nonuniform List<scalar> 
400
(
3.93807e-08
-0.000106784
-0.000234464
-0.000211041
-0.000742132
-0.00227158
-0.00440044
-0.00652071
-0.00826738
-0.00945953
-0.00999247
-0.0097492
-0.00868322
-0.00677927
-0.00403422
-0.000581402
0.00324716
0.00669719
0.00884805
0.00933718
8.70124e-06
-7.82556e-05
-0.000189093
-0.000684818
-0.00183065
-0.00363194
-0.00567391
-0.00762835
-0.0092617
-0.0103824
-0.0108746
-0.0106778
-0.00975155
-0.00803657
-0.00553522
-0.00231498
0.00134691
0.00488002
0.00742949
0.00867766
0.000315071
-2.55687e-05
-0.000681381
-0.00187598
-0.00364034
-0.00568376
-0.00771347
-0.00957223
-0.0110725
-0.0120398
-0.0124324
-0.012217
-0.0113731
-0.00988896
-0.00776384
-0.00503194
-0.00181682
0.00159171
0.00459218
0.00639559
0.000326984
-0.000342581
-0.00166986
-0.00358998
-0.00580569
-0.0079946
-0.00997489
-0.01161
-0.0128152
-0.0135763
-0.0138693
-0.0136686
-0.012953
-0.0117157
-0.00996407
-0.00772469
-0.00504226
-0.00202054
0.000927884
0.00284101
-0.000393979
-0.00134432
-0.00319157
-0.00556053
-0.007952
-0.0100968
-0.0118983
-0.0133072
-0.0143201
-0.0149445
-0.0151729
-0.0149901
-0.0143843
-0.0133553
-0.0119185
-0.0101017
-0.00792871
-0.00541473
-0.00281474
-0.00103387
-0.00187374
-0.00296609
-0.00506286
-0.0075165
-0.00985461
-0.0118451
-0.0134555
-0.014689
-0.0155724
-0.0161096
-0.0163021
-0.0161426
-0.0156288
-0.0147664
-0.0135763
-0.0120894
-0.0103378
-0.00831337
-0.00628551
-0.00464116
-0.00376111
-0.00488538
-0.00696137
-0.00928355
-0.0114478
-0.0132486
-0.0146916
-0.0157926
-0.016581
-0.0170603
-0.0172352
-0.0171032
-0.0166668
-0.0159358
-0.0149339
-0.0136933
-0.0122714
-0.0106477
-0.00910893
-0.00769699
-0.00562198
-0.00666206
-0.00858804
-0.0107341
-0.0127003
-0.0143253
-0.0156331
-0.016634
-0.0173527
-0.0177928
-0.0179601
-0.0178542
-0.0174797
-0.0168482
-0.0159863
-0.0149216
-0.0137446
-0.0124206
-0.0112574
-0.0100601
-0.00707838
-0.00803511
-0.00979946
-0.011789
-0.0135879
-0.0150764
-0.0162848
-0.0172154
-0.0178867
-0.0183016
-0.0184657
-0.0183799
-0.0180496
-0.0174865
-0.0167203
-0.0157671
-0.0147642
-0.0136143
-0.0127376
-0.0117104
-0.00799577
-0.00885903
-0.0105035
-0.0123907
-0.0140794
-0.0154869
-0.0166392
-0.0175324
-0.018179
-0.0185815
-0.0187447
-0.0186705
-0.0183653
-0.0178384
-0.0171246
-0.0162134
-0.0153485
-0.0142204
-0.01362
-0.0126241
-0.00829741
-0.00910659
-0.0106765
-0.0125207
-0.0141663
-0.0155524
-0.0166924
-0.0175809
-0.0182256
-0.018628
-0.0187921
-0.0187198
-0.0184188
-0.0178943
-0.0171892
-0.0162545
-0.0154928
-0.0142385
-0.0139312
-0.0128046
-0.00797821
-0.00878665
-0.0103201
-0.012172
-0.0138408
-0.0152611
-0.0164339
-0.0173531
-0.0180213
-0.018438
-0.0186056
-0.0185249
-0.0182054
-0.0176513
-0.0169007
-0.0159436
-0.0150969
-0.0137765
-0.0136783
-0.0122605
-0.00712778
-0.0079888
-0.00952057
-0.011374
-0.0131166
-0.0146133
-0.0158588
-0.0168438
-0.0175629
-0.0180099
-0.0181854
-0.0180872
-0.0177273
-0.0171075
-0.0162732
-0.0152331
-0.0142198
-0.0128878
-0.0127837
-0.0110863
-0.0060157
-0.00688667
-0.00837224
-0.0101561
-0.0119758
-0.0135843
-0.0149483
-0.016042
-0.0168458
-0.0173443
-0.017536
-0.0174151
-0.0169952
-0.0162766
-0.0153137
-0.0141203
-0.0129089
-0.0115267
-0.0112998
-0.00940315
-0.00492497
-0.0057145
-0.00702142
-0.00862562
-0.0104319
-0.0121647
-0.0136938
-0.0149439
-0.0158723
-0.0164502
-0.0166735
-0.0165312
-0.0160378
-0.0151914
-0.0140542
-0.0126449
-0.0112016
-0.00967826
-0.00928204
-0.00722091
-0.0042584
-0.00468722
-0.00553977
-0.00681636
-0.00850896
-0.0103549
-0.0120905
-0.0135491
-0.0146506
-0.0153458
-0.0156262
-0.0154752
-0.0149105
-0.0139219
-0.0125764
-0.0109003
-0.00916061
-0.00736216
-0.00670416
-0.00425009
-0.0041497
-0.00400292
-0.00406356
-0.00483072
-0.00632198
-0.00823688
-0.0101869
-0.0118928
-0.0132198
-0.0140861
-0.0144735
-0.014355
-0.0137371
-0.0126106
-0.011042
-0.00905466
-0.00690966
-0.00462131
-0.00330559
0.000656865
-0.0037369
-0.00329109
-0.00254847
-0.00278541
-0.00408173
-0.00604725
-0.00817355
-0.0100878
-0.0116329
-0.0126919
-0.0132168
-0.0131675
-0.0125571
-0.0113674
-0.00962147
-0.00731987
-0.0046254
-0.00145543
0.00153411
0.00968416
-0.00439684
-0.00285664
-0.0013238
-0.00119703
-0.00239789
-0.00438443
-0.00662822
-0.00871775
-0.0104368
-0.011653
-0.0122995
-0.0123465
-0.0117729
-0.0105433
-0.00864213
-0.00598452
-0.00249913
0.00228606
0.00862516
0.0234331
-0.00222927
0.000817429
0.000896123
0.000134958
-0.00130367
-0.00333407
-0.00563536
-0.00786097
-0.00969415
-0.0110055
-0.0117021
-0.0117764
-0.0111857
-0.00995721
-0.00792536
-0.00495833
-0.000198826
0.00709602
0.0182216
0.0361371
)
;

boundaryField
{
    movingWall
    {
        type            zeroGradient;
    }
    fixedWalls
    {
        type            zeroGradient;
    }
    frontAndBack
    {
        type            empty;
    }
}


// ************************************************************************* //
