/*--------------------------------*- C++ -*----------------------------------*\
| =========                 |                                                 |
| \\      /  F ield         | OpenFOAM: The Open Source CFD Toolbox           |
|  \\    /   O peration     | Version:  3.0.0                                 |
|   \\  /    A nd           | Web:      www.OpenFOAM.org                      |
|    \\/     M anipulation  |                                                 |
\*---------------------------------------------------------------------------*/
FoamFile
{
    version     2.0;
    format      ascii;
    class       surfaceScalarField;
    location    "10";
    object      phi;
}
// * * * * * * * * * * * * * * * * * * * * * * * * * * * * * * * * * * * * * //

dimensions      [0 3 -1 0 0 0 0];

internalField   nonuniform List<scalar> 
760
(
2.91696e-07
-2.917e-07
1.96182e-07
9.55139e-08
-3.92619e-07
5.888e-07
-1.71793e-06
1.32531e-06
-3.46114e-06
1.74321e-06
-5.04347e-06
1.58233e-06
-6.37085e-06
1.32739e-06
-7.40401e-06
1.03316e-06
-8.14304e-06
7.39029e-07
-8.64169e-06
4.98646e-07
-8.89501e-06
2.53321e-07
-8.93501e-06
4.00002e-08
-8.72731e-06
-2.07699e-07
-8.30091e-06
-4.26406e-07
-7.55687e-06
-7.44031e-07
-6.48222e-06
-1.07466e-06
-4.98273e-06
-1.49949e-06
-3.12552e-06
-1.85721e-06
-1.13999e-06
-1.98553e-06
-1.13999e-06
-1.78584e-07
-1.13116e-07
-1.03535e-06
9.52285e-07
-2.62439e-06
2.17784e-06
-4.39059e-06
3.0915e-06
-5.6885e-06
3.04112e-06
-6.7938e-06
2.68763e-06
-7.67844e-06
2.21203e-06
-8.35863e-06
1.71336e-06
-8.86574e-06
1.24614e-06
-9.16979e-06
8.02693e-07
-9.281e-06
3.64529e-07
-9.1808e-06
-6.01984e-08
-8.9413e-06
-4.47198e-07
-8.48941e-06
-8.78298e-07
-7.83437e-06
-1.39907e-06
-6.89429e-06
-2.01473e-06
-5.6286e-06
-2.76519e-06
-3.93042e-06
-3.55539e-06
-1.905e-06
-4.01095e-06
-3.04499e-06
-9.57561e-07
8.44445e-07
-2.43667e-06
2.4314e-06
-4.00449e-06
3.74565e-06
-5.17469e-06
4.2617e-06
-6.06772e-06
3.93415e-06
-6.78679e-06
3.4067e-06
-7.30224e-06
2.72748e-06
-7.63532e-06
2.04644e-06
-7.81711e-06
1.42793e-06
-7.86164e-06
8.4722e-07
-7.82563e-06
3.28521e-07
-7.70941e-06
-1.76424e-07
-7.47702e-06
-6.79586e-07
-7.11416e-06
-1.24116e-06
-6.61842e-06
-1.89481e-06
-5.93902e-06
-2.69412e-06
-5.02893e-06
-3.67528e-06
-3.78067e-06
-4.80364e-06
-2.1163e-06
-5.67533e-06
-5.16129e-06
-1.32489e-06
2.16933e-06
-2.8731e-06
3.97961e-06
-4.13765e-06
5.01021e-06
-4.96109e-06
5.08514e-06
-5.53199e-06
4.50505e-06
-5.89146e-06
3.76617e-06
-6.08973e-06
2.92575e-06
-6.21203e-06
2.16874e-06
-6.27517e-06
1.49106e-06
-6.2981e-06
8.70149e-07
-6.25303e-06
2.83451e-07
-6.13578e-06
-2.93672e-07
-5.92752e-06
-8.87852e-07
-5.62688e-06
-1.5418e-06
-5.22666e-06
-2.29504e-06
-4.71884e-06
-3.20193e-06
-4.07351e-06
-4.32062e-06
-3.18235e-06
-5.6948e-06
-1.84183e-06
-7.01584e-06
-7.00312e-06
-1.39531e-06
3.56465e-06
-2.71445e-06
5.29874e-06
-3.63634e-06
5.9321e-06
-4.21554e-06
5.66434e-06
-4.55326e-06
4.84278e-06
-4.74001e-06
3.95292e-06
-4.86124e-06
3.04698e-06
-4.95028e-06
2.25778e-06
-4.99312e-06
1.5339e-06
-4.9934e-06
8.70428e-07
-4.9385e-06
2.28552e-07
-4.82177e-06
-4.10406e-07
-4.63293e-06
-1.07669e-06
-4.37132e-06
-1.80341e-06
-4.03632e-06
-2.63003e-06
-3.63042e-06
-3.60783e-06
-3.14583e-06
-4.80521e-06
-2.50422e-06
-6.33642e-06
-1.51588e-06
-8.00418e-06
-8.519e-06
-1.19372e-06
4.75836e-06
-2.21779e-06
6.32282e-06
-2.90844e-06
6.62274e-06
-3.31834e-06
6.07425e-06
-3.55022e-06
5.07465e-06
-3.68796e-06
4.09067e-06
-3.78749e-06
3.14651e-06
-3.85726e-06
2.32755e-06
-3.89284e-06
1.56948e-06
-3.8882e-06
8.65782e-07
-3.8378e-06
1.78156e-07
-3.73506e-06
-5.1315e-07
-3.57339e-06
-1.23836e-06
-3.3512e-06
-2.02561e-06
-3.07205e-06
-2.90918e-06
-2.74406e-06
-3.93582e-06
-2.38726e-06
-5.16201e-06
-1.94894e-06
-6.77473e-06
-1.18613e-06
-8.76699e-06
-9.70513e-06
-9.22931e-07
5.6813e-06
-1.64849e-06
7.04838e-06
-2.15126e-06
7.12551e-06
-2.44683e-06
6.36981e-06
-2.62624e-06
5.25407e-06
-2.74256e-06
4.20699e-06
-2.83166e-06
3.23561e-06
-2.89265e-06
2.38853e-06
-2.92583e-06
1.60267e-06
-2.92574e-06
8.65683e-07
-2.88882e-06
1.41243e-07
-2.80982e-06
-5.92151e-07
-2.68355e-06
-1.36463e-06
-2.50724e-06
-2.20191e-06
-2.28479e-06
-3.13163e-06
-2.02188e-06
-4.19873e-06
-1.73874e-06
-5.44515e-06
-1.41605e-06
-7.09741e-06
-9.54153e-07
-9.22889e-06
-1.06593e-05
-5.7902e-07
6.26032e-06
-1.08137e-06
7.55073e-06
-1.44214e-06
7.48628e-06
-1.65122e-06
6.57889e-06
-1.78989e-06
5.39273e-06
-1.88764e-06
4.30474e-06
-1.96646e-06
3.31444e-06
-2.02096e-06
2.44304e-06
-2.05308e-06
1.63479e-06
-2.05964e-06
8.72238e-07
-2.03913e-06
1.20733e-07
-1.98764e-06
-6.43637e-07
-1.90177e-06
-1.45051e-06
-1.77791e-06
-2.32577e-06
-1.61897e-06
-3.29057e-06
-1.43084e-06
-4.38686e-06
-1.23183e-06
-5.64417e-06
-1.01201e-06
-7.31723e-06
-7.039e-07
-9.537e-06
-1.13632e-05
-3.05915e-07
6.56623e-06
-5.84704e-07
7.82952e-06
-7.87759e-07
7.68934e-06
-9.22489e-07
6.71362e-06
-1.02412e-06
5.49436e-06
-1.10194e-06
4.38256e-06
-1.16721e-06
3.3797e-06
-1.21376e-06
2.48959e-06
-1.24422e-06
1.66525e-06
-1.2573e-06
8.85322e-07
-1.25334e-06
1.16776e-07
-1.22999e-06
-6.66986e-07
-1.18579e-06
-1.49471e-06
-1.11683e-06
-2.39473e-06
-1.02344e-06
-3.38395e-06
-9.06669e-07
-4.50363e-06
-7.96532e-07
-5.75431e-06
-6.82099e-07
-7.43166e-06
-5.48754e-07
-9.67035e-06
-1.19119e-05
-2.2742e-09
6.56851e-06
-1.09292e-07
7.93654e-06
-1.86398e-07
7.76644e-06
-2.50829e-07
6.77805e-06
-3.09829e-07
5.55336e-06
-3.62579e-07
4.43531e-06
-4.09578e-07
3.4267e-06
-4.45544e-07
2.52556e-06
-4.72811e-07
1.69251e-06
-4.91599e-07
9.0411e-07
-5.03555e-07
1.28732e-07
-5.07758e-07
-6.62784e-07
-5.04832e-07
-1.49764e-06
-4.9108e-07
-2.40848e-06
-4.70366e-07
-3.40467e-06
-4.31876e-07
-4.54212e-06
-4.28671e-07
-5.75751e-06
-4.13137e-07
-7.4472e-06
-3.84267e-07
-9.69921e-06
-1.22962e-05
2.56405e-07
6.3121e-06
3.61047e-07
7.8319e-06
4.29537e-07
7.69795e-06
4.14108e-07
6.79348e-06
3.90328e-07
5.57714e-06
3.62728e-07
4.46291e-06
3.3452e-07
3.45491e-06
3.10029e-07
2.55005e-06
2.86524e-07
1.71602e-06
2.62593e-07
9.28041e-07
2.35287e-07
1.56038e-07
2.03988e-07
-6.31484e-07
1.6745e-07
-1.4611e-06
1.23994e-07
-2.36502e-06
8.42564e-08
-3.36493e-06
-1.01738e-08
-4.44769e-06
-3.36194e-08
-5.73407e-06
-1.79479e-07
-7.30134e-06
-2.82018e-07
-9.59668e-06
-1.25782e-05
5.31005e-07
5.78109e-06
8.43479e-07
7.51942e-06
1.03427e-06
7.50716e-06
1.06947e-06
6.75828e-06
1.08048e-06
5.56614e-06
1.08369e-06
4.4597e-06
1.08135e-06
3.45725e-06
1.0743e-06
2.5571e-06
1.05841e-06
1.73191e-06
1.03143e-06
9.55025e-07
9.88884e-07
1.98583e-07
9.29436e-07
-5.72037e-07
8.49163e-07
-1.38083e-06
7.50348e-07
-2.26621e-06
6.17849e-07
-3.23243e-06
4.83202e-07
-4.31304e-06
2.829e-07
-5.53376e-06
9.09583e-09
-7.02753e-06
-1.29551e-07
-9.45803e-06
-1.27078e-05
7.90435e-07
4.99066e-06
1.27592e-06
7.03393e-06
1.61403e-06
7.16905e-06
1.75368e-06
6.61863e-06
1.81242e-06
5.50739e-06
1.85172e-06
4.4204e-06
1.87634e-06
3.43263e-06
1.88639e-06
2.54704e-06
1.87747e-06
1.74083e-06
1.84669e-06
9.85808e-07
1.78788e-06
2.57387e-07
1.69901e-06
-4.83165e-07
1.57389e-06
-1.2557e-06
1.41126e-06
-2.10359e-06
1.20237e-06
-3.02353e-06
9.69755e-07
-4.08043e-06
6.36415e-07
-5.20042e-06
3.02067e-07
-6.69319e-06
3.25043e-08
-9.18847e-06
-1.26753e-05
1.05586e-06
3.9348e-06
1.73598e-06
6.35381e-06
2.17051e-06
6.73453e-06
2.421e-06
6.36814e-06
2.54631e-06
5.38208e-06
2.63876e-06
4.32796e-06
2.70552e-06
3.36587e-06
2.74598e-06
2.50658e-06
2.75477e-06
1.73204e-06
2.72825e-06
1.01233e-06
2.65811e-06
3.27525e-07
2.54078e-06
-3.65839e-07
2.36872e-06
-1.08364e-06
2.14036e-06
-1.87522e-06
1.84387e-06
-2.72704e-06
1.48905e-06
-3.72561e-06
1.02688e-06
-4.73825e-06
5.74788e-07
-6.24109e-06
1.72663e-07
-8.78634e-06
-1.25026e-05
1.23006e-06
2.70474e-06
2.05283e-06
5.53105e-06
2.6531e-06
6.13425e-06
3.09859e-06
5.92266e-06
3.36115e-06
5.11952e-06
3.5332e-06
4.1559e-06
3.64955e-06
3.24953e-06
3.72144e-06
2.43469e-06
3.7459e-06
1.70758e-06
3.72099e-06
1.03724e-06
3.63611e-06
4.12399e-07
3.4855e-06
-2.15231e-07
3.2619e-06
-8.60041e-07
2.9612e-06
-1.57453e-06
2.56242e-06
-2.32826e-06
2.07263e-06
-3.23582e-06
1.46349e-06
-4.12912e-06
8.62787e-07
-5.64038e-06
3.25371e-07
-8.24893e-06
-1.21772e-05
1.29331e-06
1.41143e-06
2.2173e-06
4.60705e-06
2.954e-06
5.39756e-06
3.60007e-06
5.27659e-06
4.06594e-06
4.65364e-06
4.38843e-06
3.83341e-06
4.60734e-06
3.03062e-06
4.74745e-06
2.29458e-06
4.81259e-06
1.64244e-06
4.80658e-06
1.04325e-06
4.71895e-06
5.00027e-07
4.55005e-06
-4.63259e-08
4.27792e-06
-5.87918e-07
3.90276e-06
-1.19936e-06
3.38896e-06
-1.81445e-06
2.74649e-06
-2.59336e-06
1.96288e-06
-3.3455e-06
1.18461e-06
-4.86211e-06
5.10723e-07
-7.57504e-06
-1.16665e-05
7.68113e-07
6.43321e-07
1.97951e-06
3.39565e-06
3.06343e-06
4.31364e-06
4.00027e-06
4.33975e-06
4.73832e-06
3.91558e-06
5.27605e-06
3.29568e-06
5.6531e-06
2.65356e-06
5.90055e-06
2.04714e-06
6.03042e-06
1.51257e-06
6.06212e-06
1.01155e-06
5.98036e-06
5.81795e-07
5.78433e-06
1.497e-07
5.4546e-06
-2.58192e-07
4.99718e-06
-7.4194e-07
4.35543e-06
-1.1727e-06
3.55945e-06
-1.79738e-06
2.59855e-06
-2.38461e-06
1.62627e-06
-3.88983e-06
7.25114e-07
-6.67389e-06
-1.09414e-05
1.16534e-07
5.26787e-07
1.2086e-06
2.30358e-06
2.49893e-06
3.02331e-06
3.78408e-06
3.0546e-06
4.87627e-06
2.8234e-06
5.73559e-06
2.43636e-06
6.36611e-06
2.02305e-06
6.81401e-06
1.59924e-06
7.07923e-06
1.24735e-06
7.20023e-06
8.90543e-07
7.1588e-06
6.23229e-07
6.99945e-06
3.09055e-07
6.67766e-06
6.35915e-08
6.1918e-06
-2.56082e-07
5.51e-06
-4.90897e-07
4.66608e-06
-9.53456e-07
3.63754e-06
-1.35607e-06
2.53502e-06
-2.78731e-06
1.20971e-06
-5.34858e-06
-9.73169e-06
-1.10106e-06
1.62785e-06
-9.51059e-08
1.29763e-06
1.57632e-06
1.35189e-06
3.20828e-06
1.42263e-06
4.59795e-06
1.43373e-06
5.74359e-06
1.29072e-06
6.63927e-06
1.12737e-06
7.32232e-06
9.16189e-07
7.79893e-06
7.70735e-07
8.10062e-06
5.88853e-07
8.24581e-06
4.78035e-07
8.24814e-06
3.06731e-07
8.08959e-06
2.2214e-07
7.77999e-06
5.35129e-08
7.33313e-06
-4.40364e-08
6.69191e-06
-3.1223e-07
5.916e-06
-5.80164e-07
4.79284e-06
-1.66415e-06
2.69258e-06
-3.24832e-06
-7.0391e-06
1.62785e-06
2.92547e-06
4.27736e-06
5.69999e-06
7.13372e-06
8.42444e-06
9.55181e-06
1.0468e-05
1.12387e-05
1.18276e-05
1.23056e-05
1.26124e-05
1.28345e-05
1.2888e-05
1.2844e-05
1.25317e-05
1.19516e-05
1.02874e-05
7.0391e-06
)
;

boundaryField
{
    movingWall
    {
        type            calculated;
        value           uniform 0;
    }
    fixedWalls
    {
        type            calculated;
        value           uniform 0;
    }
    frontAndBack
    {
        type            empty;
        value           nonuniform 0();
    }
}


// ************************************************************************* //
