/*--------------------------------*- C++ -*----------------------------------*\
| =========                 |                                                 |
| \\      /  F ield         | OpenFOAM: The Open Source CFD Toolbox           |
|  \\    /   O peration     | Version:  3.0.0                                 |
|   \\  /    A nd           | Web:      www.OpenFOAM.org                      |
|    \\/     M anipulation  |                                                 |
\*---------------------------------------------------------------------------*/
FoamFile
{
    version     2.0;
    format      ascii;
    class       volVectorField;
    location    "10";
    object      U;
}
// * * * * * * * * * * * * * * * * * * * * * * * * * * * * * * * * * * * * * //

dimensions      [0 1 -1 0 0 0 0];

internalField   nonuniform List<vector> 
400
(
(0.00297846 -0.00402744 0)
(0.00806467 -0.00161339 0)
(-0.000979876 0.00159169 0)
(-0.0124839 0.00837976 0)
(-0.0527223 0.0181397 0)
(-0.0902096 0.0162785 0)
(-0.118177 0.0138703 0)
(-0.141996 0.0112026 0)
(-0.15771 0.00884402 0)
(-0.170365 0.00621455 0)
(-0.176769 0.00393976 0)
(-0.179579 0.00192204 0)
(-0.178427 -0.00173753 0)
(-0.170754 -0.00390639 0)
(-0.158693 -0.00796841 0)
(-0.138675 -0.0107919 0)
(-0.112561 -0.0150627 0)
(-0.0783843 -0.0168958 0)
(-0.0425587 -0.016992 0)
(-0.00793096 -0.00339657 0)
(0.000151564 -0.00885756 0)
(-0.00772754 0.0055099 0)
(-0.0312024 0.0244067 0)
(-0.07065 0.0468744 0)
(-0.104766 0.0483922 0)
(-0.128436 0.0427918 0)
(-0.148471 0.0358873 0)
(-0.16209 0.0280992 0)
(-0.174824 0.019316 0)
(-0.181654 0.0125196 0)
(-0.18633 0.00535976 0)
(-0.18585 -0.000789987 0)
(-0.182661 -0.00796599 0)
(-0.174922 -0.0153703 0)
(-0.1634 -0.0249075 0)
(-0.146002 -0.0358389 0)
(-0.123218 -0.04884 0)
(-0.0937577 -0.0605501 0)
(-0.0593689 -0.0624979 0)
(-0.0178454 -0.0377999 0)
(-0.00801613 0.0054641 0)
(-0.0307914 0.0351159 0)
(-0.063855 0.0618144 0)
(-0.0954364 0.0739616 0)
(-0.115894 0.0692227 0)
(-0.131136 0.0606394 0)
(-0.142914 0.0484067 0)
(-0.151476 0.0364679 0)
(-0.155905 0.0265523 0)
(-0.157367 0.0163089 0)
(-0.157615 0.00698561 0)
(-0.155775 -0.00250971 0)
(-0.152817 -0.012033 0)
(-0.146299 -0.0226709 0)
(-0.137684 -0.0350424 0)
(-0.125108 -0.0503 0)
(-0.108642 -0.0689215 0)
(-0.0864299 -0.0896467 0)
(-0.0581972 -0.103845 0)
(-0.021958 -0.0879052 0)
(-0.0113107 0.0308648 0)
(-0.042009 0.0655434 0)
(-0.0742799 0.0889738 0)
(-0.0952075 0.0927008 0)
(-0.107564 0.0837883 0)
(-0.116468 0.071252 0)
(-0.121102 0.0564373 0)
(-0.123642 0.0424103 0)
(-0.125042 0.0291313 0)
(-0.126287 0.0170973 0)
(-0.125967 0.00602641 0)
(-0.124429 -0.00483395 0)
(-0.12109 -0.0159991 0)
(-0.115923 -0.028358 0)
(-0.108805 -0.0427255 0)
(-0.0996555 -0.0602443 0)
(-0.087682 -0.0820546 0)
(-0.0711024 -0.108063 0)
(-0.0494967 -0.130748 0)
(-0.0190475 -0.127067 0)
(-0.0122453 0.0566061 0)
(-0.0445169 0.0921877 0)
(-0.0677306 0.10842 0)
(-0.0826029 0.106774 0)
(-0.0894391 0.0933424 0)
(-0.0941627 0.0775013 0)
(-0.0961338 0.060212 0)
(-0.0983327 0.0446891 0)
(-0.0995569 0.0303478 0)
(-0.100249 0.0173579 0)
(-0.0996585 0.0050042 0)
(-0.0980158 -0.00721045 0)
(-0.0948525 -0.0198956 0)
(-0.0902832 -0.0337617 0)
(-0.0842487 -0.0496613 0)
(-0.076929 -0.0687264 0)
(-0.0681128 -0.0925114 0)
(-0.0551938 -0.123147 0)
(-0.0397075 -0.154024 0)
(-0.0164508 -0.159435 0)
(-0.01036 0.0817613 0)
(-0.038538 0.115599 0)
(-0.054643 0.124648 0)
(-0.0658627 0.116951 0)
(-0.0695584 0.0992781 0)
(-0.0729094 0.0807969 0)
(-0.074523 0.0622528 0)
(-0.0766366 0.0460634 0)
(-0.0775925 0.0311207 0)
(-0.0780959 0.0173385 0)
(-0.077506 0.00396365 0)
(-0.076029 -0.00941376 0)
(-0.0733001 -0.0233798 0)
(-0.0693974 -0.0385217 0)
(-0.0643047 -0.0555652 0)
(-0.058226 -0.0754846 0)
(-0.0516684 -0.0996195 0)
(-0.0414842 -0.131313 0)
(-0.033644 -0.170062 0)
(-0.00901646 -0.184828 0)
(-0.00864472 0.103382 0)
(-0.0297765 0.132145 0)
(-0.0403181 0.136235 0)
(-0.0490697 0.123873 0)
(-0.0509401 0.103208 0)
(-0.0539769 0.0831003 0)
(-0.0555051 0.0639327 0)
(-0.0574169 0.0472283 0)
(-0.0582391 0.0317374 0)
(-0.0587283 0.0172509 0)
(-0.0583214 0.00305608 0)
(-0.0571953 -0.0112868 0)
(-0.0550747 -0.0263525 0)
(-0.0519949 -0.0426657 0)
(-0.0479394 -0.0608477 0)
(-0.0428597 -0.0818265 0)
(-0.0382754 -0.106631 0)
(-0.0291193 -0.139576 0)
(-0.0270372 -0.18099 0)
(-0.00671413 -0.205474 0)
(-0.00483211 0.118854 0)
(-0.0194937 0.145867 0)
(-0.0272096 0.146216 0)
(-0.0333342 0.129541 0)
(-0.0342609 0.106595 0)
(-0.0369989 0.0851996 0)
(-0.0383625 0.0655506 0)
(-0.0400144 0.0483364 0)
(-0.0407708 0.0323588 0)
(-0.0412742 0.017309 0)
(-0.0411042 0.00249666 0)
(-0.0403947 -0.0125637 0)
(-0.0389628 -0.0284296 0)
(-0.0368083 -0.0456044 0)
(-0.0340015 -0.0645642 0)
(-0.0299252 -0.0861982 0)
(-0.0276952 -0.111068 0)
(-0.0195905 -0.144535 0)
(-0.0223059 -0.188048 0)
(-0.00207132 -0.22125 0)
(-0.00225901 0.128929 0)
(-0.010847 0.153321 0)
(-0.014966 0.151292 0)
(-0.0187899 0.132612 0)
(-0.0191398 0.108667 0)
(-0.021463 0.0868009 0)
(-0.0225687 0.0669383 0)
(-0.0239125 0.0493287 0)
(-0.0245929 0.0329791 0)
(-0.0250988 0.0175104 0)
(-0.0251677 0.00226034 0)
(-0.0248874 -0.0133004 0)
(-0.0241643 -0.0297298 0)
(-0.0229418 -0.0475716 0)
(-0.0215494 -0.0671936 0)
(-0.018348 -0.0894703 0)
(-0.0187155 -0.114469 0)
(-0.0110923 -0.14824 0)
(-0.0181649 -0.192441 0)
(-0.000488862 -0.23372 0)
(0.00191874 0.132469 0)
(-0.00206436 0.159004 0)
(-0.00336244 0.155678 0)
(-0.00529805 0.135588 0)
(-0.00524015 0.110986 0)
(-0.00690536 0.0884491 0)
(-0.00763632 0.0681975 0)
(-0.00861249 0.0502011 0)
(-0.00917458 0.0335747 0)
(-0.00966887 0.0178445 0)
(-0.0099603 0.00235746 0)
(-0.0100962 -0.0134608 0)
(-0.0100976 -0.0301609 0)
(-0.00977507 -0.0483399 0)
(-0.0099804 -0.0682861 0)
(-0.00764858 -0.0907536 0)
(-0.0109585 -0.115766 0)
(-0.0038907 -0.149021 0)
(-0.0151172 -0.193977 0)
(0.00280722 -0.242681 0)
(0.00496264 0.130295 0)
(0.00502994 0.158805 0)
(0.00766853 0.155095 0)
(0.00770708 0.13542 0)
(0.00836298 0.111022 0)
(0.00741515 0.0888033 0)
(0.00703994 0.0687377 0)
(0.00642877 0.0507191 0)
(0.00599682 0.0340567 0)
(0.00551898 0.0182731 0)
(0.00501641 0.00275944 0)
(0.0044864 -0.0130902 0)
(0.00373713 -0.0298093 0)
(0.0032322 -0.0480413 0)
(0.0014644 -0.068078 0)
(0.00266414 -0.0903213 0)
(-0.00343278 -0.115665 0)
(0.0030485 -0.147602 0)
(-0.01262 -0.193878 0)
(0.00449621 -0.248997 0)
(0.00733165 0.123273 0)
(0.0131825 0.156363 0)
(0.0183261 0.154218 0)
(0.0204115 0.136805 0)
(0.021682 0.112262 0)
(0.0215738 0.089706 0)
(0.0217122 0.0693887 0)
(0.0215828 0.0512102 0)
(0.0213908 0.0345349 0)
(0.0209883 0.0188223 0)
(0.0202913 0.00348011 0)
(0.019392 -0.0121581 0)
(0.0178496 -0.0286126 0)
(0.0165038 -0.046589 0)
(0.013388 -0.0663455 0)
(0.0128825 -0.0881449 0)
(0.00440907 -0.113014 0)
(0.00979766 -0.143771 0)
(-0.0106606 -0.191033 0)
(0.00807084 -0.252355 0)
(0.0102383 0.11184 0)
(0.0198208 0.147616 0)
(0.0286344 0.14745 0)
(0.0329912 0.133976 0)
(0.0357962 0.110077 0)
(0.0366434 0.0883371 0)
(0.0373256 0.0686583 0)
(0.0376671 0.0509263 0)
(0.0377209 0.0346744 0)
(0.0373958 0.0193795 0)
(0.0364584 0.00451328 0)
(0.0352154 -0.0106261 0)
(0.0327799 -0.0264915 0)
(0.0306688 -0.043898 0)
(0.025886 -0.0628715 0)
(0.0238333 -0.0844288 0)
(0.0129851 -0.107754 0)
(0.0164573 -0.1379 0)
(-0.00829 -0.186592 0)
(0.0111915 -0.253661 0)
(0.0129777 0.0920583 0)
(0.0271588 0.138102 0)
(0.039479 0.141588 0)
(0.0449287 0.132236 0)
(0.0495874 0.110427 0)
(0.051797 0.088315 0)
(0.0534274 0.0685148 0)
(0.0545576 0.0508989 0)
(0.0551029 0.0349854 0)
(0.0550795 0.0201614 0)
(0.053987 0.00593256 0)
(0.0525205 -0.00847183 0)
(0.049119 -0.0234191 0)
(0.0462434 -0.0398698 0)
(0.0395401 -0.0576919 0)
(0.0359693 -0.0783087 0)
(0.0222591 -0.0997908 0)
(0.0233372 -0.130045 0)
(-0.0056419 -0.180204 0)
(0.0159611 -0.253126 0)
(0.015084 0.0701227 0)
(0.0317904 0.120081 0)
(0.0477515 0.129278 0)
(0.0568064 0.123055 0)
(0.0640991 0.105268 0)
(0.0686454 0.0847767 0)
(0.071677 0.0660198 0)
(0.0737458 0.0493317 0)
(0.0747526 0.0343844 0)
(0.0750462 0.0205367 0)
(0.0736619 0.00741477 0)
(0.0719807 -0.00583522 0)
(0.0674226 -0.0193802 0)
(0.0637905 -0.0344057 0)
(0.0548971 -0.0504908 0)
(0.0497319 -0.0696369 0)
(0.0325809 -0.0889526 0)
(0.03094 -0.119365 0)
(-0.00276071 -0.171612 0)
(0.0205133 -0.251607 0)
(0.0158519 0.0401883 0)
(0.0358595 0.104698 0)
(0.0528848 0.118775 0)
(0.0651065 0.115831 0)
(0.0756329 0.101393 0)
(0.083768 0.0827002 0)
(0.0895614 0.0646445 0)
(0.0935949 0.0485159 0)
(0.0956134 0.0343839 0)
(0.0967869 0.0215105 0)
(0.0952579 0.0096447 0)
(0.0937629 -0.00222861 0)
(0.0881058 -0.0140503 0)
(0.0838835 -0.0272909 0)
(0.0726013 -0.0410569 0)
(0.0655518 -0.0580148 0)
(0.044331 -0.0747623 0)
(0.039794 -0.105735 0)
(9.49429e-05 -0.161193 0)
(0.0266205 -0.247513 0)
(0.00258842 0.0117402 0)
(0.0302271 0.0748381 0)
(0.052856 0.0960117 0)
(0.0702076 0.0974658 0)
(0.0859347 0.0878792 0)
(0.0988815 0.073594 0)
(0.108411 0.0588204 0)
(0.115595 0.0446219 0)
(0.119095 0.0319903 0)
(0.121824 0.0205009 0)
(0.120232 0.0103804 0)
(0.11912 0.000344689 0)
(0.112117 -0.00905548 0)
(0.107078 -0.0196344 0)
(0.0931939 -0.0299048 0)
(0.0838733 -0.0436387 0)
(0.0586813 -0.0571616 0)
(0.0512564 -0.0887699 0)
(0.00414821 -0.14725 0)
(0.034192 -0.236723 0)
(-0.00945793 0.0179448 0)
(0.0146591 0.0645645 0)
(0.038808 0.0806368 0)
(0.062446 0.081534 0)
(0.0847801 0.0743839 0)
(0.105047 0.0633004 0)
(0.11993 0.0518282 0)
(0.132156 0.0413533 0)
(0.138322 0.0319386 0)
(0.143919 0.0226517 0)
(0.143341 0.0148854 0)
(0.143316 0.0067073 0)
(0.136335 3.98258e-05 0)
(0.131216 -0.00813081 0)
(0.116481 -0.0148187 0)
(0.106004 -0.0259528 0)
(0.0795421 -0.0363852 0)
(0.0706546 -0.0683351 0)
(0.0163597 -0.125813 0)
(0.0491163 -0.207803 0)
(-0.0222487 -0.00298823 0)
(-0.0166812 0.0161161 0)
(0.0144409 0.0330113 0)
(0.0478397 0.0384249 0)
(0.0765737 0.0388905 0)
(0.103039 0.035112 0)
(0.122815 0.0300582 0)
(0.140141 0.0235531 0)
(0.150887 0.0186947 0)
(0.160047 0.0134058 0)
(0.163517 0.00975146 0)
(0.166032 0.00495767 0)
(0.163407 0.00203365 0)
(0.160004 -0.00293579 0)
(0.150188 -0.00586897 0)
(0.142324 -0.0130038 0)
(0.121403 -0.019958 0)
(0.113232 -0.0462715 0)
(0.0579739 -0.0898071 0)
(0.0825268 -0.15385 0)
(0.0385852 0.0795453 0)
(0.038864 0.0480182 0)
(0.0696234 0.0293513 0)
(0.0999216 0.0229689 0)
(0.127156 0.021286 0)
(0.155031 0.0190357 0)
(0.178347 0.0174776 0)
(0.200196 0.0150719 0)
(0.216814 0.0138093 0)
(0.231436 0.0115546 0)
(0.241554 0.0107297 0)
(0.250025 0.00852963 0)
(0.254889 0.00803498 0)
(0.258016 0.00555727 0)
(0.25726 0.00458945 0)
(0.253705 0.00210812 0)
(0.243521 0.00144287 0)
(0.227258 -0.00836496 0)
(0.172441 -0.0172208 0)
(0.157771 -0.093911 0)
)
;

boundaryField
{
    movingWall
    {
        type            fixedValue;
        value           uniform (1 0 0);
    }
    fixedWalls
    {
        type            fixedValue;
        value           uniform (0 0 0);
    }
    frontAndBack
    {
        type            empty;
    }
}


// ************************************************************************* //
