/*--------------------------------*- C++ -*----------------------------------*\
| =========                 |                                                 |
| \\      /  F ield         | OpenFOAM: The Open Source CFD Toolbox           |
|  \\    /   O peration     | Version:  3.0.0                                 |
|   \\  /    A nd           | Web:      www.OpenFOAM.org                      |
|    \\/     M anipulation  |                                                 |
\*---------------------------------------------------------------------------*/
FoamFile
{
    version     2.0;
    format      ascii;
    class       volScalarField;
    location    "0.018";
    object      p;
}
// * * * * * * * * * * * * * * * * * * * * * * * * * * * * * * * * * * * * * //

dimensions      [1 -1 -2 0 0 0 0];

internalField   nonuniform List<scalar> 
1000
(
52637.7
52627.7
52619.8
52612.5
52605
52597.3
52589.5
52581.8
52573.9
52566.1
52558.1
52550.1
52542.1
52534
52525.8
52517.6
52509.3
52501
52492.6
52484.2
52475.7
52467.2
52458.6
52449.9
52441.2
52432.4
52423.6
52414.7
52405.8
52396.8
52387.7
52378.6
52369.4
52360.2
52350.9
52341.6
52332.2
52322.7
52313.2
52303.6
52294
52284.3
52274.5
52264.7
52254.8
52244.8
52234.8
52224.7
52214.6
52204.4
52194.1
52183.8
52173.4
52163
52152.4
52141.9
52131.2
52120.5
52109.7
52098.9
52087.9
52077
52065.9
52054.8
52043.6
52032.3
52021
52009.6
51998.1
51986.6
51975
51963.3
51951.6
51939.7
51927.8
51915.8
51903.8
51891.7
51879.5
51867.2
51854.8
51842.4
51829.9
51817.3
51804.6
51791.8
51779
51766.1
51753.1
51740
51726.8
51713.6
51700.2
51686.8
51673.3
51659.7
51646
51632.2
51618.3
51604.3
51590.3
51576.1
51561.9
51547.5
51533.1
51518.5
51503.9
51489.1
51474.3
51459.3
51444.2
51429.1
51413.8
51398.4
51382.9
51367.3
51351.6
51335.8
51319.8
51303.8
51287.6
51271.3
51254.9
51238.3
51221.6
51204.8
51187.9
51170.8
51153.6
51136.3
51118.8
51101.2
51083.4
51065.5
51047.5
51029.3
51010.9
50992.4
50973.7
50954.9
50935.9
50916.8
50897.4
50877.9
50858.2
50838.4
50818.4
50798.1
50777.7
50757.1
50736.3
50715.3
50694
50672.6
50650.9
50629
50606.9
50584.6
50562
50539.2
50516.1
50492.8
50469.2
50445.3
50421.2
50396.7
50372
50347
50321.7
50296
50270
50243.7
50217.1
50190.1
50162.7
50134.9
50106.8
50078.3
50049.4
50020
49990.2
49960
49929.3
49898.1
49866.5
49834.4
49801.7
49768.5
49734.8
49700.5
49665.5
49630.1
49594.1
49557.5
49520.2
49482.2
49443.6
49404.3
49364.3
49323.6
49282.1
49239.9
49196.8
49152.9
49108.2
49062.7
49016.4
48969.2
48921.2
48872.3
48822.4
48771.7
48720
48667.4
48613.8
48559.3
48503.8
48447.3
48389.9
48331.5
48272.1
48211.7
48150.4
48088
48024.7
47960.5
47895.2
47829
47761.9
47693.9
47624.9
47555.1
47484.3
47412.8
47340.3
47267.1
47193.1
47118.3
47042.8
46966.6
46889.6
46812.1
46733.9
46655.1
46575.7
46495.9
46415.5
46334.6
46253.3
46171.6
46089.5
46007
45924.2
45841.2
45757.8
45674.2
45590.4
45506.4
45422.2
45337.9
45253.4
45168.9
45084.2
44999.5
44914.7
44829.9
44745.1
44660.3
44575.5
44490.7
44405.9
44321.2
44236.5
44151.9
44067.4
43982.9
43898.6
43814.3
43730.1
43646
43562.1
43478.2
43394.5
43310.8
43227.3
43144
43060.7
42977.6
42894.6
42811.8
42729
42646.5
42564
42481.7
42399.5
42317.5
42235.6
42153.9
42072.3
41990.8
41909.5
41828.4
41747.3
41666.4
41585.7
41505.1
41424.7
41344.4
41264.2
41184.2
41104.3
41024.6
40945
40865.6
40786.3
40707.1
40628.1
40549.3
40470.6
40392
40313.6
40235.3
40157.2
40079.2
40001.4
39923.7
39846.2
39768.8
39691.5
39614.4
39537.5
39460.6
39384
39307.5
39231.1
39154.9
39078.8
39002.9
38927.1
38851.5
38776
38700.7
38625.5
38550.5
38475.6
38400.8
38326.2
38251.8
38177.5
38103.4
38029.4
37955.6
37881.9
37808.4
37735
37661.8
37588.7
37515.8
37443
37370.4
37298
37225.7
37153.6
37081.6
37009.8
36938.1
36866.6
36795.3
36724.1
36653.1
36582.2
36511.5
36441
36370.6
36300.4
36230.4
36160.5
36090.8
36021.3
35951.9
35882.8
35813.8
35744.9
35676.3
35607.8
35539.5
35471.4
35403.5
35335.7
35268.1
35200.8
35133.6
35066.6
34999.8
34933.2
34866.8
34800.6
34734.6
34668.8
34603.2
34537.8
34472.7
34407.7
34343
34278.5
34214.2
34150.2
34086.4
34022.8
33959.4
33896.4
33833.5
33770.9
33708.6
33646.5
33584.7
33523.2
33462
33401
33340.3
33280
33219.9
33160.1
33100.7
33041.5
32982.8
32924.3
32866.2
32808.5
32751.1
32694.1
32637.4
32581.2
32525.3
32469.9
32414.9
32360.4
32306.2
32252.6
32199.4
32146.7
32094.5
32042.8
31991.7
31941
31891
31841.5
31792.6
31744.2
31696.6
31649.5
31603.1
31557.4
31512.4
31468
31424.4
31381.6
31339.5
31298.2
31257.7
31218
31179.1
31141.1
31104
31067.7
31032.4
30998
30964.5
30931.9
30900.4
30869.8
30840.1
30811.5
30783.9
30757.3
30731.7
30707.1
30683.5
30661
30639.4
30618.8
30599.3
30580.7
30563.1
30546.4
30530.7
30515.9
30502
30488.9
30476.7
30465.4
30454.8
30445
30435.9
30427.5
30419.7
30412.6
30406.1
30400.2
30394.8
30389.9
30385.4
30381.4
30377.8
30374.5
30371.6
30369
30366.7
30364.6
30362.8
30361.2
30359.8
30358.5
30357.5
30356.5
30355.7
30355
30354.3
30353.8
30353.3
30352.9
30352.6
30352.3
30352.1
30351.8
30351.7
30351.5
30351.4
30351.3
30351.2
30351.1
30351
30351
30350.9
30350.9
30350.8
30350.8
30350.8
30350.7
30350.7
30350.7
30350.7
30350.7
30350.7
30350.7
30350.6
30350.6
30350.6
30350.6
30350.6
30350.6
30350.6
30350.6
30350.6
30350.6
30350.6
30350.6
30350.5
30350.5
30350.5
30350.5
30350.5
30350.5
30350.5
30350.5
30350.5
30350.5
30350.5
30350.5
30350.5
30350.4
30350.4
30350.4
30350.4
30350.4
30350.4
30350.4
30350.4
30350.4
30350.4
30350.4
30350.4
30350.4
30350.4
30350.3
30350.3
30350.3
30350.3
30350.3
30350.3
30350.3
30350.3
30350.3
30350.3
30350.3
30350.3
30350.3
30350.3
30350.3
30350.3
30350.3
30350.3
30350.3
30350.3
30350.3
30350.3
30350.3
30350.3
30350.3
30350.3
30350.3
30350.3
30350.3
30350.3
30350.3
30350.3
30350.3
30350.3
30350.3
30350.3
30350.3
30350.3
30350.3
30350.3
30350.3
30350.3
30350.2
30350.2
30350.2
30350.2
30350.2
30350.2
30350.2
30350.2
30350.2
30350.2
30350.2
30350.2
30350.2
30350.2
30350.2
30350.2
30350.2
30350.2
30350.2
30350.2
30350.2
30350.2
30350.2
30350.2
30350.2
30350.2
30350.2
30350.2
30350.2
30350.2
30350.2
30350.2
30350.1
30350.1
30350.1
30350.1
30350.1
30350.1
30350.1
30350.1
30350.1
30350.1
30350.1
30350.1
30350.1
30350.1
30350.1
30350.1
30350.1
30350.1
30350.1
30350.1
30350.1
30350.1
30350.1
30350.1
30350.1
30350.1
30350.1
30350.1
30350.1
30350.1
30350.1
30350.1
30350.1
30350.1
30350.1
30350.1
30350.1
30350.1
30350.1
30350.1
30350
30350
30350
30350
30350
30350
30350
30350
30350
30350
30350
30350
30350
30350
30350
30350
30350
30350
30350
30350
30350
30350
30350
30350
30350
30350
30350
30350
30350
30350
30350
30350
30350
30350
30350
30350
30350
30350
30350
30350
30350
30350
30350
30350
30350
30350
30350
30350
30350
30350
30350
30350
30350
30350
30350
30350
30350
30350
30349.9
30349.9
30349.9
30349.9
30349.9
30349.9
30349.9
30349.9
30349.9
30349.9
30349.9
30349.9
30349.9
30349.9
30349.9
30349.9
30349.9
30349.9
30349.9
30349.9
30349.9
30349.9
30349.9
30349.9
30349.9
30349.9
30349.9
30349.9
30349.9
30349.9
30349.9
30349.9
30349.9
30349.9
30349.9
30349.9
30349.9
30349.9
30349.9
30349.9
30349.9
30349.9
30349.9
30349.9
30349.9
30349.9
30349.9
30349.9
30349.9
30349.9
30349.9
30349.9
30349.9
30349.9
30349.9
30349.9
30349.9
30349.9
30349.9
30349.9
30349.9
30349.9
30349.9
30349.9
30349.9
30349.9
30349.9
30349.9
30349.9
30349.9
30349.9
30349.9
30349.9
30349.9
30349.9
30349.9
30349.9
30349.9
30349.9
30349.9
30349.9
30349.9
30349.9
30349.9
30349.9
30349.9
30349.9
30349.8
30349.8
30349.8
30349.8
30349.8
30349.8
30349.8
30349.8
30349.8
30349.8
30349.8
30349.8
30349.8
30349.8
30349.8
30349.8
30349.8
30349.8
30349.8
30349.8
30349.8
30349.8
30349.8
30349.8
30349.8
30349.8
30349.8
30349.8
30349.8
30349.8
30349.8
30349.8
30349.8
30349.8
30349.8
30349.8
30349.8
30349.8
30349.8
30349.8
30349.8
30349.8
30349.8
30349.8
30349.9
30349.9
30349.9
30349.9
30350
30350
30350.1
30350.2
30350.3
30350.4
30350.6
30350.8
30351.1
30351.4
30351.8
30352.4
30353
30353.8
30354.8
30355.9
30357.3
30358.9
30360.8
30363
30365.6
30368.6
30372
30375.8
30380.2
30385
30390.4
30396.3
30402.8
30409.8
30417.4
30425.4
30434
30443
30452.4
30462.1
30472.1
30482.3
30492.5
30502.8
30513.1
30523.1
30533
30542.5
30551.6
30560.3
30568.5
30576.2
30583.3
30589.9
30595.9
30601.3
30606.1
30610.3
30614.1
30617.4
30620.2
30622.6
30624.6
30626.3
30627.7
30628.9
30629.8
30630.6
30631.2
30631.6
30632
30632.3
30632.5
30632.7
30632.8
30632.9
30633
30633.1
30633.2
30633.2
30633.3
30633.4
30633.5
30633.6
30633.7
30633.8
30633.9
30634.1
30634.3
30634.5
30634.7
30635
30635.2
30635.6
30635.9
30636.2
30636.6
30636.9
30637.1
30637.2
30637.2
30637.2
30636.8
30636.6
30636.1
30635.6
30634.4
30633.1
30630.1
30626.7
30620.2
30615.5
30606.7
)
;

boundaryField
{
    sides
    {
        type            zeroGradient;
    }
    empty
    {
        type            empty;
    }
}


// ************************************************************************* //
