/*--------------------------------*- C++ -*----------------------------------*\
| =========                 |                                                 |
| \\      /  F ield         | OpenFOAM: The Open Source CFD Toolbox           |
|  \\    /   O peration     | Version:  3.0.0                                 |
|   \\  /    A nd           | Web:      www.OpenFOAM.org                      |
|    \\/     M anipulation  |                                                 |
\*---------------------------------------------------------------------------*/
FoamFile
{
    version     2.0;
    format      ascii;
    class       surfaceScalarField;
    location    "0.018";
    object      phi;
}
// * * * * * * * * * * * * * * * * * * * * * * * * * * * * * * * * * * * * * //

dimensions      [1 0 -1 0 0 0 0];

internalField   nonuniform List<scalar> 
999
(
15.0422
17.0788
19.1176
21.1577
23.1982
25.2394
27.2805
29.3215
31.3623
33.4029
35.4435
37.4838
39.524
41.5641
43.6039
45.6436
47.6831
49.7223
51.7614
53.8003
55.8389
57.8773
59.9154
61.9533
63.9909
66.0282
68.0653
70.1021
72.1386
74.1747
76.2106
78.2461
80.2813
82.3161
84.3506
86.3847
88.4185
90.4519
92.4848
94.5174
96.5496
98.5813
100.613
102.643
104.674
106.704
108.733
110.762
112.791
114.819
116.846
118.873
120.899
122.925
124.951
126.975
128.999
131.023
133.046
135.068
137.09
139.111
141.131
143.151
145.17
147.188
149.206
151.222
153.239
155.254
157.268
159.282
161.295
163.307
165.319
167.329
169.339
171.348
173.356
175.363
177.369
179.374
181.378
183.381
185.383
187.385
189.385
191.384
193.382
195.379
197.375
199.37
201.363
203.356
205.347
207.337
209.326
211.313
213.299
215.284
217.268
219.25
221.231
223.211
225.189
227.166
229.141
231.115
233.087
235.057
237.026
238.994
240.959
242.923
244.886
246.846
248.805
250.762
252.717
254.671
256.622
258.571
260.519
262.464
264.407
266.348
268.287
270.224
272.159
274.091
276.021
277.949
279.874
281.796
283.716
285.634
287.548
289.461
291.37
293.276
295.18
297.081
298.978
300.873
302.764
304.652
306.537
308.418
310.296
312.17
314.041
315.908
317.771
319.63
321.485
323.336
325.182
327.024
328.862
330.695
332.524
334.347
336.166
337.979
339.787
341.59
343.387
345.179
346.964
348.743
350.516
352.283
354.043
355.796
357.542
359.281
361.012
362.735
364.451
366.158
367.857
369.547
371.228
372.9
374.563
376.214
377.858
379.488
381.111
382.72
384.32
385.907
387.479
389.043
390.592
392.129
393.65
395.16
396.653
398.134
399.598
401.049
402.48
403.903
405.298
406.686
408.052
409.401
410.733
412.045
413.341
414.615
415.872
417.109
418.325
419.523
420.699
421.856
422.992
424.107
425.201
426.275
427.327
428.358
429.368
430.358
431.326
432.273
433.2
434.106
434.992
435.858
436.704
437.53
438.337
439.125
439.894
440.646
441.38
442.096
442.796
443.479
444.147
444.799
445.436
446.059
446.668
447.264
447.848
448.419
448.978
449.526
450.063
450.59
451.108
451.616
452.115
452.606
453.089
453.565
454.033
454.495
454.95
455.399
455.842
456.279
456.712
457.139
457.562
457.98
458.394
458.804
459.21
459.612
460.011
460.407
460.799
461.188
461.573
461.956
462.336
462.714
463.088
463.46
463.83
464.196
464.561
464.923
465.282
465.64
465.995
466.348
466.698
467.046
467.392
467.736
468.078
468.418
468.755
469.091
469.424
469.755
470.084
470.411
470.736
471.059
471.38
471.699
472.016
472.331
472.643
472.954
473.263
473.57
473.874
474.177
474.478
474.777
475.074
475.368
475.661
475.952
476.241
476.528
476.813
477.096
477.377
477.656
477.933
478.209
478.482
478.753
479.023
479.29
479.556
479.82
480.082
480.341
480.599
480.856
481.11
481.362
481.612
481.861
482.108
482.352
482.595
482.836
483.075
483.313
483.548
483.781
484.013
484.243
484.471
484.697
484.921
485.144
485.364
485.583
485.8
486.015
486.228
486.44
486.649
486.857
487.063
487.267
487.47
487.67
487.869
488.066
488.261
488.455
488.646
488.836
489.024
489.21
489.395
489.578
489.758
489.938
490.115
490.291
490.464
490.637
490.807
490.976
491.142
491.307
491.471
491.632
491.792
491.95
492.107
492.261
492.414
492.565
492.715
492.863
493.009
493.153
493.295
493.436
493.575
493.713
493.848
493.982
494.114
494.245
494.374
494.501
494.626
494.75
494.872
494.992
495.111
495.228
495.343
495.456
495.568
495.678
495.786
495.893
495.998
496.101
496.203
496.303
496.401
496.497
496.592
496.685
496.776
496.866
496.954
497.04
497.125
497.208
497.289
497.368
497.446
497.522
497.597
497.669
497.74
497.81
497.877
497.943
498.007
498.07
498.131
498.19
498.248
498.303
498.358
498.41
498.461
498.51
498.558
498.604
498.648
498.691
498.732
498.772
498.81
498.846
498.881
498.915
498.947
498.977
499.006
499.034
499.06
499.085
499.108
499.131
499.152
499.171
499.19
499.207
499.223
499.238
499.252
499.265
499.277
499.289
499.299
499.308
499.317
499.325
499.332
499.338
499.344
499.349
499.354
499.358
499.362
499.365
499.368
499.371
499.373
499.375
499.377
499.378
499.38
499.381
499.381
499.382
499.383
499.383
499.383
499.384
499.384
499.384
499.384
499.384
499.384
499.384
499.384
499.383
499.383
499.383
499.383
499.383
499.382
499.382
499.382
499.381
499.381
499.381
499.381
499.38
499.38
499.38
499.379
499.379
499.379
499.378
499.378
499.378
499.377
499.377
499.377
499.376
499.376
499.376
499.375
499.375
499.375
499.374
499.374
499.374
499.373
499.373
499.373
499.372
499.372
499.371
499.371
499.371
499.37
499.37
499.37
499.369
499.369
499.369
499.368
499.368
499.367
499.367
499.367
499.366
499.366
499.366
499.365
499.365
499.364
499.364
499.364
499.363
499.363
499.362
499.362
499.362
499.361
499.361
499.36
499.36
499.36
499.359
499.359
499.358
499.358
499.357
499.357
499.357
499.356
499.356
499.355
499.355
499.354
499.354
499.354
499.353
499.353
499.352
499.352
499.351
499.351
499.35
499.35
499.349
499.349
499.348
499.348
499.348
499.347
499.347
499.346
499.346
499.345
499.345
499.344
499.344
499.343
499.343
499.342
499.342
499.341
499.341
499.34
499.34
499.339
499.339
499.338
499.338
499.337
499.337
499.336
499.336
499.335
499.334
499.334
499.333
499.333
499.332
499.332
499.331
499.331
499.33
499.33
499.329
499.328
499.328
499.327
499.327
499.326
499.326
499.325
499.324
499.324
499.323
499.323
499.322
499.321
499.321
499.32
499.32
499.319
499.318
499.318
499.317
499.316
499.316
499.315
499.315
499.314
499.313
499.313
499.312
499.311
499.311
499.31
499.309
499.309
499.308
499.307
499.307
499.306
499.305
499.305
499.304
499.303
499.302
499.302
499.301
499.3
499.3
499.299
499.298
499.297
499.297
499.296
499.295
499.294
499.294
499.293
499.292
499.291
499.29
499.29
499.289
499.288
499.287
499.286
499.286
499.285
499.284
499.283
499.282
499.282
499.281
499.28
499.279
499.278
499.277
499.276
499.275
499.275
499.274
499.273
499.272
499.271
499.27
499.269
499.268
499.267
499.266
499.265
499.265
499.264
499.263
499.262
499.261
499.26
499.259
499.258
499.257
499.256
499.255
499.254
499.253
499.252
499.251
499.249
499.248
499.247
499.246
499.245
499.244
499.243
499.242
499.241
499.24
499.238
499.237
499.236
499.235
499.234
499.233
499.231
499.23
499.229
499.228
499.227
499.225
499.224
499.223
499.222
499.22
499.219
499.218
499.216
499.215
499.214
499.213
499.211
499.21
499.208
499.207
499.206
499.204
499.203
499.201
499.2
499.199
499.197
499.196
499.194
499.193
499.191
499.19
499.188
499.186
499.185
499.183
499.182
499.18
499.178
499.177
499.175
499.174
499.172
499.17
499.168
499.167
499.165
499.163
499.161
499.16
499.158
499.156
499.154
499.152
499.15
499.148
499.147
499.145
499.143
499.141
499.139
499.137
499.135
499.133
499.13
499.128
499.126
499.124
499.122
499.12
499.117
499.115
499.113
499.111
499.108
499.106
499.104
499.101
499.099
499.096
499.094
499.091
499.089
499.086
499.084
499.081
499.079
499.076
499.073
499.07
499.068
499.065
499.062
499.059
499.056
499.053
499.05
499.047
499.044
499.041
499.038
499.035
499.032
499.028
499.025
499.022
499.018
499.015
499.012
499.008
499.004
499.001
498.997
498.993
498.99
498.986
498.982
498.978
498.974
498.97
498.966
498.962
498.957
498.953
498.948
498.944
498.939
498.934
498.929
498.924
498.918
498.913
498.907
498.901
498.894
498.887
498.88
498.872
498.864
498.855
498.846
498.837
498.826
498.815
498.803
498.791
498.778
498.764
498.75
498.735
498.719
498.703
498.686
498.669
498.651
498.634
498.615
498.598
498.579
498.561
498.543
498.526
498.508
498.491
498.474
498.458
498.442
498.427
498.412
498.397
498.383
498.369
498.355
498.341
498.328
498.315
498.302
498.288
498.275
498.261
498.248
498.234
498.219
498.205
498.19
498.175
498.159
498.143
498.126
498.109
498.091
498.073
498.054
498.034
498.014
497.992
497.971
497.948
497.924
497.9
497.874
497.847
497.82
497.791
497.761
497.729
497.695
497.66
497.624
497.586
497.546
497.504
497.461
497.416
497.37
497.321
497.27
497.214
497.154
497.084
497.003
496.907
496.795
496.649
496.475
496.241
495.971
495.599
495.172
)
;

boundaryField
{
    sides
    {
        type            calculated;
        value           nonuniform List<scalar> 2(494.529 -13.0047);
    }
    empty
    {
        type            empty;
        value           nonuniform 0();
    }
}


// ************************************************************************* //
