/*--------------------------------*- C++ -*----------------------------------*\
| =========                 |                                                 |
| \\      /  F ield         | OpenFOAM: The Open Source CFD Toolbox           |
|  \\    /   O peration     | Version:  3.0.0                                 |
|   \\  /    A nd           | Web:      www.OpenFOAM.org                      |
|    \\/     M anipulation  |                                                 |
\*---------------------------------------------------------------------------*/
FoamFile
{
    version     2.0;
    format      ascii;
    class       volScalarField;
    location    "0.018";
    object      T;
}
// * * * * * * * * * * * * * * * * * * * * * * * * * * * * * * * * * * * * * //

dimensions      [0 0 0 1 0 0 0];

internalField   nonuniform List<scalar> 
1000
(
289.775
289.852
289.911
289.926
289.926
289.919
289.905
289.892
289.879
289.867
289.854
289.841
289.828
289.815
289.802
289.789
289.776
289.763
289.75
289.736
289.723
289.709
289.695
289.681
289.668
289.654
289.639
289.625
289.611
289.597
289.582
289.568
289.553
289.538
289.524
289.509
289.494
289.479
289.463
289.448
289.433
289.417
289.402
289.386
289.37
289.354
289.338
289.322
289.306
289.29
289.274
289.257
289.241
289.224
289.207
289.19
289.173
289.156
289.139
289.122
289.104
289.087
289.069
289.051
289.034
289.016
288.998
288.979
288.961
288.943
288.924
288.906
288.887
288.868
288.849
288.83
288.811
288.791
288.772
288.752
288.732
288.713
288.693
288.673
288.652
288.632
288.611
288.591
288.57
288.549
288.528
288.507
288.486
288.464
288.442
288.421
288.399
288.377
288.355
288.332
288.31
288.287
288.264
288.241
288.218
288.195
288.171
288.148
288.124
288.1
288.076
288.052
288.027
288.003
287.978
287.953
287.928
287.902
287.877
287.851
287.825
287.799
287.772
287.746
287.719
287.692
287.665
287.637
287.61
287.582
287.554
287.526
287.497
287.468
287.439
287.41
287.38
287.351
287.32
287.29
287.26
287.229
287.198
287.166
287.134
287.102
287.07
287.037
287.004
286.971
286.938
286.904
286.869
286.835
286.8
286.764
286.728
286.692
286.656
286.619
286.581
286.543
286.505
286.466
286.427
286.388
286.347
286.307
286.266
286.224
286.182
286.139
286.096
286.052
286.007
285.962
285.916
285.869
285.822
285.774
285.726
285.675
285.627
285.574
285.525
285.468
285.421
285.357
285.314
285.242
285.204
285.125
285.086
285.006
284.965
284.881
284.839
284.752
284.708
284.618
284.573
284.48
284.432
284.34
284.276
284.2
284.119
284.046
283.961
283.884
283.798
283.714
283.629
283.54
283.452
283.36
283.267
283.173
283.076
282.979
282.878
282.777
282.674
282.569
282.462
282.354
282.244
282.132
282.018
281.903
281.786
281.667
281.547
281.426
281.302
281.178
281.051
280.923
280.794
280.664
280.532
280.399
280.265
280.129
279.993
279.855
279.716
279.576
279.436
279.294
279.152
279.009
278.865
278.72
278.575
278.429
278.283
278.136
277.988
277.84
277.692
277.543
277.394
277.245
277.095
276.945
276.795
276.645
276.494
276.344
276.193
276.042
275.891
275.74
275.588
275.437
275.286
275.134
274.983
274.831
274.68
274.528
274.377
274.226
274.074
273.923
273.771
273.62
273.469
273.317
273.166
273.015
272.864
272.712
272.561
272.41
272.259
272.108
271.957
271.807
271.656
271.505
271.354
271.204
271.053
270.903
270.752
270.602
270.452
270.302
270.151
270.001
269.851
269.701
269.551
269.402
269.252
269.102
268.953
268.803
268.654
268.504
268.355
268.206
268.056
267.907
267.758
267.609
267.46
267.312
267.163
267.014
266.866
266.717
266.569
266.42
266.272
266.124
265.976
265.828
265.68
265.532
265.384
265.237
265.089
264.941
264.794
264.647
264.5
264.352
264.205
264.059
263.912
263.765
263.618
263.472
263.325
263.179
263.033
262.887
262.741
262.595
262.449
262.304
262.158
262.013
261.868
261.722
261.577
261.433
261.288
261.143
260.999
260.854
260.71
260.566
260.422
260.279
260.135
259.992
259.848
259.705
259.562
259.42
259.277
259.135
258.992
258.85
258.708
258.567
258.425
258.284
258.143
258.002
257.862
257.722
257.581
257.442
257.302
257.163
257.024
256.885
256.746
256.608
256.47
256.332
256.195
256.058
255.921
255.785
255.649
255.513
255.378
255.243
255.109
254.975
254.841
254.708
254.575
254.443
254.311
254.18
254.049
253.919
253.789
253.66
253.531
253.403
253.276
253.15
253.024
252.898
252.774
252.65
252.527
252.405
252.283
252.163
252.043
251.925
251.807
251.69
251.575
251.46
251.347
251.234
251.123
251.013
250.904
250.797
250.691
250.586
250.483
250.381
250.281
250.183
250.086
249.99
249.897
249.805
249.715
249.627
249.54
249.456
249.374
249.293
249.215
249.139
249.065
248.993
248.924
248.856
248.791
248.728
248.668
248.61
248.554
248.5
248.449
248.4
248.353
248.309
248.267
248.227
248.189
248.154
248.12
248.089
248.06
248.032
248.007
247.983
247.961
247.94
247.922
247.904
247.889
247.874
247.861
247.849
247.838
247.828
247.82
247.812
247.805
247.798
247.793
247.788
247.783
247.779
247.776
247.773
247.77
247.768
247.766
247.765
247.763
247.762
247.761
247.76
247.759
247.759
247.758
247.758
247.758
247.757
247.757
247.757
247.757
247.757
247.757
247.757
247.757
247.757
247.757
247.757
247.757
247.757
247.757
247.758
247.758
247.758
247.758
247.758
247.758
247.758
247.759
247.759
247.759
247.759
247.759
247.759
247.759
247.76
247.76
247.76
247.76
247.76
247.76
247.761
247.761
247.761
247.761
247.761
247.761
247.762
247.762
247.762
247.762
247.762
247.762
247.763
247.763
247.763
247.763
247.763
247.763
247.764
247.764
247.764
247.764
247.764
247.765
247.765
247.765
247.765
247.765
247.766
247.766
247.766
247.766
247.766
247.766
247.767
247.767
247.767
247.767
247.768
247.768
247.768
247.768
247.768
247.769
247.769
247.769
247.769
247.769
247.77
247.77
247.77
247.77
247.771
247.771
247.771
247.771
247.771
247.772
247.772
247.772
247.772
247.773
247.773
247.773
247.773
247.774
247.774
247.774
247.774
247.774
247.775
247.775
247.775
247.775
247.776
247.776
247.776
247.776
247.777
247.777
247.777
247.777
247.778
247.778
247.778
247.778
247.779
247.779
247.779
247.78
247.78
247.78
247.78
247.781
247.781
247.781
247.781
247.782
247.782
247.782
247.783
247.783
247.783
247.783
247.784
247.784
247.784
247.785
247.785
247.785
247.785
247.786
247.786
247.786
247.787
247.787
247.787
247.788
247.788
247.788
247.789
247.789
247.789
247.79
247.79
247.79
247.791
247.791
247.791
247.791
247.792
247.792
247.793
247.793
247.793
247.794
247.794
247.794
247.795
247.795
247.795
247.796
247.796
247.796
247.797
247.797
247.798
247.798
247.798
247.799
247.799
247.799
247.8
247.8
247.801
247.801
247.801
247.802
247.802
247.803
247.803
247.803
247.804
247.804
247.805
247.805
247.805
247.806
247.806
247.807
247.807
247.808
247.808
247.808
247.809
247.809
247.81
247.81
247.811
247.811
247.812
247.812
247.813
247.813
247.814
247.814
247.814
247.815
247.815
247.816
247.816
247.817
247.817
247.818
247.818
247.819
247.82
247.82
247.821
247.821
247.822
247.822
247.823
247.823
247.824
247.824
247.825
247.826
247.826
247.827
247.827
247.828
247.828
247.829
247.83
247.83
247.831
247.831
247.832
247.833
247.833
247.834
247.834
247.835
247.836
247.836
247.837
247.838
247.838
247.839
247.84
247.84
247.841
247.842
247.842
247.843
247.844
247.845
247.845
247.846
247.847
247.848
247.848
247.849
247.85
247.851
247.851
247.852
247.853
247.854
247.855
247.855
247.856
247.857
247.858
247.859
247.86
247.86
247.861
247.862
247.863
247.864
247.865
247.866
247.867
247.868
247.869
247.869
247.87
247.871
247.872
247.873
247.874
247.875
247.876
247.877
247.878
247.879
247.88
247.882
247.883
247.884
247.885
247.886
247.887
247.888
247.889
247.89
247.892
247.893
247.894
247.895
247.897
247.898
247.899
247.9
247.902
247.903
247.904
247.905
247.907
247.908
247.91
247.911
247.912
247.914
247.915
247.917
247.918
247.92
247.921
247.923
247.924
247.926
247.928
247.929
247.931
247.932
247.934
247.936
247.938
247.939
247.941
247.943
247.945
247.947
247.948
247.951
247.952
247.955
247.956
247.959
247.96
247.963
247.965
247.968
247.97
247.972
247.975
247.978
247.981
247.984
247.988
247.991
247.996
248
248.005
248.01
248.017
248.023
248.031
248.039
248.048
248.058
248.07
248.082
248.096
248.11
248.127
248.144
248.164
248.183
248.206
248.227
248.253
248.275
248.305
248.327
248.36
248.382
248.415
248.438
248.471
248.493
248.525
248.547
248.577
248.597
248.625
248.642
248.668
248.683
248.706
248.719
248.739
248.75
248.768
248.777
248.793
248.801
248.815
248.822
248.834
248.841
248.853
248.859
248.87
248.876
248.888
248.894
248.905
248.912
248.924
248.93
248.943
248.95
248.964
248.971
248.986
248.994
249.01
249.019
249.036
249.046
249.065
249.075
249.096
249.107
249.13
249.143
249.168
249.181
249.209
249.224
249.254
249.27
249.302
249.319
249.354
249.375
249.416
249.443
249.497
249.535
249.614
249.67
249.797
249.88
250.087
250.195
250.663
)
;

boundaryField
{
    sides
    {
        type            zeroGradient;
    }
    empty
    {
        type            empty;
    }
}


// ************************************************************************* //
