/*--------------------------------*- C++ -*----------------------------------*\
| =========                 |                                                 |
| \\      /  F ield         | OpenFOAM: The Open Source CFD Toolbox           |
|  \\    /   O peration     | Version:  3.0.0                                 |
|   \\  /    A nd           | Web:      www.OpenFOAM.org                      |
|    \\/     M anipulation  |                                                 |
\*---------------------------------------------------------------------------*/
FoamFile
{
    version     2.0;
    format      ascii;
    class       volVectorField;
    location    "0.018";
    object      U;
}
// * * * * * * * * * * * * * * * * * * * * * * * * * * * * * * * * * * * * * //

dimensions      [0 1 -1 0 0 0 0];

internalField   nonuniform List<vector> 
1000
(
(5.1571 0 0)
(6.41507 0 0)
(7.21832 0 0)
(7.97393 0 0)
(8.77908 0 0)
(9.59824 0 0)
(10.4111 0 0)
(11.2205 0 0)
(12.0306 0 0)
(12.8414 0 0)
(13.6525 0 0)
(14.4635 0 0)
(15.2746 0 0)
(16.0859 0 0)
(16.8972 0 0)
(17.7087 0 0)
(18.5203 0 0)
(19.332 0 0)
(20.1438 0 0)
(20.9557 0 0)
(21.7678 0 0)
(22.5799 0 0)
(23.3922 0 0)
(24.2045 0 0)
(25.017 0 0)
(25.8295 0 0)
(26.6422 0 0)
(27.455 0 0)
(28.2678 0 0)
(29.0808 0 0)
(29.8939 0 0)
(30.707 0 0)
(31.5203 0 0)
(32.3336 0 0)
(33.1471 0 0)
(33.9606 0 0)
(34.7742 0 0)
(35.5879 0 0)
(36.4017 0 0)
(37.2155 0 0)
(38.0295 0 0)
(38.8435 0 0)
(39.6576 0 0)
(40.4718 0 0)
(41.286 0 0)
(42.1004 0 0)
(42.9148 0 0)
(43.7292 0 0)
(44.5438 0 0)
(45.3584 0 0)
(46.173 0 0)
(46.9877 0 0)
(47.8025 0 0)
(48.6174 0 0)
(49.4322 0 0)
(50.2472 0 0)
(51.0622 0 0)
(51.8772 0 0)
(52.6923 0 0)
(53.5074 0 0)
(54.3226 0 0)
(55.1378 0 0)
(55.9531 0 0)
(56.7684 0 0)
(57.5837 0 0)
(58.399 0 0)
(59.2144 0 0)
(60.0298 0 0)
(60.8452 0 0)
(61.6606 0 0)
(62.4761 0 0)
(63.2916 0 0)
(64.107 0 0)
(64.9225 0 0)
(65.738 0 0)
(66.5535 0 0)
(67.369 0 0)
(68.1845 0 0)
(69 0 0)
(69.8154 0 0)
(70.6309 0 0)
(71.4463 0 0)
(72.2617 0 0)
(73.0771 0 0)
(73.8925 0 0)
(74.7078 0 0)
(75.5231 0 0)
(76.3383 0 0)
(77.1536 0 0)
(77.9687 0 0)
(78.7838 0 0)
(79.5989 0 0)
(80.4139 0 0)
(81.2288 0 0)
(82.0437 0 0)
(82.8585 0 0)
(83.6732 0 0)
(84.4878 0 0)
(85.3023 0 0)
(86.1168 0 0)
(86.9311 0 0)
(87.7454 0 0)
(88.5595 0 0)
(89.3735 0 0)
(90.1874 0 0)
(91.0012 0 0)
(91.8148 0 0)
(92.6284 0 0)
(93.4417 0 0)
(94.2549 0 0)
(95.068 0 0)
(95.8809 0 0)
(96.6936 0 0)
(97.5062 0 0)
(98.3185 0 0)
(99.1307 0 0)
(99.9427 0 0)
(100.754 0 0)
(101.566 0 0)
(102.377 0 0)
(103.188 0 0)
(103.999 0 0)
(104.81 0 0)
(105.62 0 0)
(106.43 0 0)
(107.24 0 0)
(108.05 0 0)
(108.859 0 0)
(109.668 0 0)
(110.476 0 0)
(111.285 0 0)
(112.093 0 0)
(112.9 0 0)
(113.707 0 0)
(114.514 0 0)
(115.321 0 0)
(116.127 0 0)
(116.932 0 0)
(117.738 0 0)
(118.542 0 0)
(119.347 0 0)
(120.151 0 0)
(120.954 0 0)
(121.757 0 0)
(122.559 0 0)
(123.361 0 0)
(124.162 0 0)
(124.963 0 0)
(125.763 0 0)
(126.562 0 0)
(127.361 0 0)
(128.159 0 0)
(128.956 0 0)
(129.753 0 0)
(130.549 0 0)
(131.344 0 0)
(132.138 0 0)
(132.932 0 0)
(133.725 0 0)
(134.516 0 0)
(135.307 0 0)
(136.097 0 0)
(136.886 0 0)
(137.674 0 0)
(138.461 0 0)
(139.247 0 0)
(140.032 0 0)
(140.815 0 0)
(141.598 0 0)
(142.379 0 0)
(143.159 0 0)
(143.937 0 0)
(144.714 0 0)
(145.49 0 0)
(146.264 0 0)
(147.037 0 0)
(147.808 0 0)
(148.577 0 0)
(149.345 0 0)
(150.111 0 0)
(150.875 0 0)
(151.637 0 0)
(152.397 0 0)
(153.155 0 0)
(153.911 0 0)
(154.665 0 0)
(155.416 0 0)
(156.165 0 0)
(156.912 0 0)
(157.656 0 0)
(158.398 0 0)
(159.137 0 0)
(159.873 0 0)
(160.606 0 0)
(161.336 0 0)
(162.064 0 0)
(162.788 0 0)
(163.508 0 0)
(164.226 0 0)
(164.94 0 0)
(165.65 0 0)
(166.357 0 0)
(167.061 0 0)
(167.761 0 0)
(168.456 0 0)
(169.148 0 0)
(169.836 0 0)
(170.519 0 0)
(171.198 0 0)
(171.873 0 0)
(172.543 0 0)
(173.209 0 0)
(173.87 0 0)
(174.527 0 0)
(175.178 0 0)
(175.825 0 0)
(176.467 0 0)
(177.104 0 0)
(177.737 0 0)
(178.364 0 0)
(178.986 0 0)
(179.603 0 0)
(180.215 0 0)
(180.822 0 0)
(181.424 0 0)
(182.02 0 0)
(182.612 0 0)
(183.198 0 0)
(183.78 0 0)
(184.357 0 0)
(184.928 0 0)
(185.495 0 0)
(186.057 0 0)
(186.614 0 0)
(187.167 0 0)
(187.715 0 0)
(188.258 0 0)
(188.797 0 0)
(189.332 0 0)
(189.863 0 0)
(190.39 0 0)
(190.913 0 0)
(191.432 0 0)
(191.947 0 0)
(192.459 0 0)
(192.968 0 0)
(193.473 0 0)
(193.976 0 0)
(194.475 0 0)
(194.971 0 0)
(195.465 0 0)
(195.957 0 0)
(196.446 0 0)
(196.932 0 0)
(197.417 0 0)
(197.899 0 0)
(198.38 0 0)
(198.859 0 0)
(199.336 0 0)
(199.812 0 0)
(200.286 0 0)
(200.759 0 0)
(201.231 0 0)
(201.701 0 0)
(202.171 0 0)
(202.639 0 0)
(203.107 0 0)
(203.574 0 0)
(204.04 0 0)
(204.505 0 0)
(204.97 0 0)
(205.434 0 0)
(205.897 0 0)
(206.36 0 0)
(206.823 0 0)
(207.285 0 0)
(207.747 0 0)
(208.208 0 0)
(208.67 0 0)
(209.13 0 0)
(209.591 0 0)
(210.051 0 0)
(210.512 0 0)
(210.972 0 0)
(211.431 0 0)
(211.891 0 0)
(212.351 0 0)
(212.81 0 0)
(213.269 0 0)
(213.728 0 0)
(214.187 0 0)
(214.646 0 0)
(215.105 0 0)
(215.564 0 0)
(216.022 0 0)
(216.481 0 0)
(216.939 0 0)
(217.398 0 0)
(217.856 0 0)
(218.314 0 0)
(218.772 0 0)
(219.23 0 0)
(219.688 0 0)
(220.146 0 0)
(220.604 0 0)
(221.062 0 0)
(221.519 0 0)
(221.977 0 0)
(222.435 0 0)
(222.892 0 0)
(223.349 0 0)
(223.807 0 0)
(224.264 0 0)
(224.721 0 0)
(225.178 0 0)
(225.635 0 0)
(226.092 0 0)
(226.549 0 0)
(227.006 0 0)
(227.462 0 0)
(227.919 0 0)
(228.375 0 0)
(228.832 0 0)
(229.288 0 0)
(229.744 0 0)
(230.2 0 0)
(230.656 0 0)
(231.112 0 0)
(231.568 0 0)
(232.023 0 0)
(232.479 0 0)
(232.934 0 0)
(233.39 0 0)
(233.845 0 0)
(234.3 0 0)
(234.755 0 0)
(235.21 0 0)
(235.665 0 0)
(236.119 0 0)
(236.574 0 0)
(237.028 0 0)
(237.482 0 0)
(237.936 0 0)
(238.39 0 0)
(238.844 0 0)
(239.298 0 0)
(239.751 0 0)
(240.204 0 0)
(240.658 0 0)
(241.111 0 0)
(241.563 0 0)
(242.016 0 0)
(242.468 0 0)
(242.921 0 0)
(243.373 0 0)
(243.825 0 0)
(244.276 0 0)
(244.728 0 0)
(245.179 0 0)
(245.63 0 0)
(246.081 0 0)
(246.532 0 0)
(246.982 0 0)
(247.432 0 0)
(247.882 0 0)
(248.332 0 0)
(248.781 0 0)
(249.23 0 0)
(249.679 0 0)
(250.128 0 0)
(250.576 0 0)
(251.024 0 0)
(251.472 0 0)
(251.919 0 0)
(252.366 0 0)
(252.813 0 0)
(253.259 0 0)
(253.706 0 0)
(254.151 0 0)
(254.597 0 0)
(255.042 0 0)
(255.486 0 0)
(255.93 0 0)
(256.374 0 0)
(256.818 0 0)
(257.26 0 0)
(257.703 0 0)
(258.145 0 0)
(258.587 0 0)
(259.028 0 0)
(259.468 0 0)
(259.908 0 0)
(260.348 0 0)
(260.787 0 0)
(261.225 0 0)
(261.663 0 0)
(262.1 0 0)
(262.536 0 0)
(262.972 0 0)
(263.407 0 0)
(263.842 0 0)
(264.275 0 0)
(264.708 0 0)
(265.141 0 0)
(265.572 0 0)
(266.003 0 0)
(266.432 0 0)
(266.861 0 0)
(267.289 0 0)
(267.716 0 0)
(268.142 0 0)
(268.567 0 0)
(268.991 0 0)
(269.414 0 0)
(269.836 0 0)
(270.257 0 0)
(270.676 0 0)
(271.094 0 0)
(271.511 0 0)
(271.926 0 0)
(272.341 0 0)
(272.753 0 0)
(273.164 0 0)
(273.574 0 0)
(273.982 0 0)
(274.388 0 0)
(274.793 0 0)
(275.196 0 0)
(275.597 0 0)
(275.996 0 0)
(276.392 0 0)
(276.787 0 0)
(277.18 0 0)
(277.57 0 0)
(277.959 0 0)
(278.344 0 0)
(278.727 0 0)
(279.108 0 0)
(279.486 0 0)
(279.861 0 0)
(280.233 0 0)
(280.602 0 0)
(280.968 0 0)
(281.331 0 0)
(281.69 0 0)
(282.046 0 0)
(282.398 0 0)
(282.747 0 0)
(283.092 0 0)
(283.432 0 0)
(283.769 0 0)
(284.101 0 0)
(284.429 0 0)
(284.752 0 0)
(285.071 0 0)
(285.384 0 0)
(285.693 0 0)
(285.996 0 0)
(286.294 0 0)
(286.587 0 0)
(286.874 0 0)
(287.155 0 0)
(287.43 0 0)
(287.7 0 0)
(287.963 0 0)
(288.219 0 0)
(288.469 0 0)
(288.713 0 0)
(288.95 0 0)
(289.18 0 0)
(289.403 0 0)
(289.619 0 0)
(289.828 0 0)
(290.029 0 0)
(290.224 0 0)
(290.411 0 0)
(290.591 0 0)
(290.763 0 0)
(290.928 0 0)
(291.086 0 0)
(291.237 0 0)
(291.38 0 0)
(291.516 0 0)
(291.645 0 0)
(291.767 0 0)
(291.882 0 0)
(291.991 0 0)
(292.093 0 0)
(292.188 0 0)
(292.278 0 0)
(292.361 0 0)
(292.439 0 0)
(292.511 0 0)
(292.577 0 0)
(292.639 0 0)
(292.696 0 0)
(292.748 0 0)
(292.795 0 0)
(292.839 0 0)
(292.878 0 0)
(292.914 0 0)
(292.947 0 0)
(292.976 0 0)
(293.003 0 0)
(293.027 0 0)
(293.048 0 0)
(293.067 0 0)
(293.084 0 0)
(293.099 0 0)
(293.112 0 0)
(293.124 0 0)
(293.134 0 0)
(293.143 0 0)
(293.151 0 0)
(293.158 0 0)
(293.164 0 0)
(293.169 0 0)
(293.174 0 0)
(293.178 0 0)
(293.181 0 0)
(293.184 0 0)
(293.186 0 0)
(293.188 0 0)
(293.19 0 0)
(293.192 0 0)
(293.193 0 0)
(293.194 0 0)
(293.195 0 0)
(293.196 0 0)
(293.197 0 0)
(293.197 0 0)
(293.198 0 0)
(293.198 0 0)
(293.199 0 0)
(293.199 0 0)
(293.199 0 0)
(293.199 0 0)
(293.2 0 0)
(293.2 0 0)
(293.2 0 0)
(293.2 0 0)
(293.2 0 0)
(293.2 0 0)
(293.2 0 0)
(293.2 0 0)
(293.201 0 0)
(293.201 0 0)
(293.201 0 0)
(293.201 0 0)
(293.201 0 0)
(293.201 0 0)
(293.201 0 0)
(293.201 0 0)
(293.201 0 0)
(293.201 0 0)
(293.201 0 0)
(293.201 0 0)
(293.201 0 0)
(293.201 0 0)
(293.201 0 0)
(293.201 0 0)
(293.201 0 0)
(293.201 0 0)
(293.202 0 0)
(293.202 0 0)
(293.202 0 0)
(293.202 0 0)
(293.202 0 0)
(293.202 0 0)
(293.202 0 0)
(293.202 0 0)
(293.202 0 0)
(293.202 0 0)
(293.202 0 0)
(293.202 0 0)
(293.202 0 0)
(293.202 0 0)
(293.202 0 0)
(293.202 0 0)
(293.202 0 0)
(293.202 0 0)
(293.202 0 0)
(293.203 0 0)
(293.203 0 0)
(293.203 0 0)
(293.203 0 0)
(293.203 0 0)
(293.203 0 0)
(293.203 0 0)
(293.203 0 0)
(293.203 0 0)
(293.203 0 0)
(293.203 0 0)
(293.203 0 0)
(293.203 0 0)
(293.203 0 0)
(293.203 0 0)
(293.203 0 0)
(293.203 0 0)
(293.203 0 0)
(293.203 0 0)
(293.203 0 0)
(293.203 0 0)
(293.203 0 0)
(293.203 0 0)
(293.203 0 0)
(293.203 0 0)
(293.203 0 0)
(293.203 0 0)
(293.203 0 0)
(293.203 0 0)
(293.203 0 0)
(293.203 0 0)
(293.203 0 0)
(293.203 0 0)
(293.203 0 0)
(293.203 0 0)
(293.203 0 0)
(293.203 0 0)
(293.203 0 0)
(293.203 0 0)
(293.203 0 0)
(293.203 0 0)
(293.203 0 0)
(293.203 0 0)
(293.203 0 0)
(293.203 0 0)
(293.203 0 0)
(293.203 0 0)
(293.203 0 0)
(293.203 0 0)
(293.203 0 0)
(293.203 0 0)
(293.203 0 0)
(293.203 0 0)
(293.203 0 0)
(293.203 0 0)
(293.203 0 0)
(293.203 0 0)
(293.203 0 0)
(293.204 0 0)
(293.204 0 0)
(293.204 0 0)
(293.204 0 0)
(293.204 0 0)
(293.204 0 0)
(293.204 0 0)
(293.204 0 0)
(293.204 0 0)
(293.204 0 0)
(293.204 0 0)
(293.204 0 0)
(293.204 0 0)
(293.204 0 0)
(293.204 0 0)
(293.204 0 0)
(293.204 0 0)
(293.204 0 0)
(293.204 0 0)
(293.204 0 0)
(293.204 0 0)
(293.204 0 0)
(293.204 0 0)
(293.204 0 0)
(293.204 0 0)
(293.204 0 0)
(293.204 0 0)
(293.204 0 0)
(293.204 0 0)
(293.204 0 0)
(293.204 0 0)
(293.204 0 0)
(293.204 0 0)
(293.204 0 0)
(293.204 0 0)
(293.204 0 0)
(293.204 0 0)
(293.204 0 0)
(293.204 0 0)
(293.204 0 0)
(293.204 0 0)
(293.204 0 0)
(293.204 0 0)
(293.204 0 0)
(293.204 0 0)
(293.204 0 0)
(293.204 0 0)
(293.204 0 0)
(293.204 0 0)
(293.204 0 0)
(293.204 0 0)
(293.204 0 0)
(293.204 0 0)
(293.204 0 0)
(293.204 0 0)
(293.204 0 0)
(293.204 0 0)
(293.204 0 0)
(293.205 0 0)
(293.205 0 0)
(293.205 0 0)
(293.205 0 0)
(293.205 0 0)
(293.205 0 0)
(293.205 0 0)
(293.205 0 0)
(293.205 0 0)
(293.205 0 0)
(293.205 0 0)
(293.205 0 0)
(293.205 0 0)
(293.205 0 0)
(293.205 0 0)
(293.205 0 0)
(293.205 0 0)
(293.205 0 0)
(293.205 0 0)
(293.205 0 0)
(293.205 0 0)
(293.205 0 0)
(293.205 0 0)
(293.205 0 0)
(293.205 0 0)
(293.205 0 0)
(293.205 0 0)
(293.205 0 0)
(293.205 0 0)
(293.205 0 0)
(293.205 0 0)
(293.205 0 0)
(293.205 0 0)
(293.205 0 0)
(293.205 0 0)
(293.205 0 0)
(293.205 0 0)
(293.205 0 0)
(293.205 0 0)
(293.205 0 0)
(293.205 0 0)
(293.205 0 0)
(293.205 0 0)
(293.205 0 0)
(293.205 0 0)
(293.205 0 0)
(293.205 0 0)
(293.205 0 0)
(293.205 0 0)
(293.205 0 0)
(293.205 0 0)
(293.205 0 0)
(293.205 0 0)
(293.205 0 0)
(293.205 0 0)
(293.205 0 0)
(293.205 0 0)
(293.205 0 0)
(293.205 0 0)
(293.205 0 0)
(293.205 0 0)
(293.205 0 0)
(293.205 0 0)
(293.205 0 0)
(293.205 0 0)
(293.205 0 0)
(293.205 0 0)
(293.205 0 0)
(293.205 0 0)
(293.205 0 0)
(293.205 0 0)
(293.205 0 0)
(293.205 0 0)
(293.205 0 0)
(293.205 0 0)
(293.205 0 0)
(293.205 0 0)
(293.205 0 0)
(293.205 0 0)
(293.205 0 0)
(293.205 0 0)
(293.205 0 0)
(293.205 0 0)
(293.205 0 0)
(293.205 0 0)
(293.205 0 0)
(293.205 0 0)
(293.205 0 0)
(293.205 0 0)
(293.205 0 0)
(293.205 0 0)
(293.205 0 0)
(293.205 0 0)
(293.205 0 0)
(293.205 0 0)
(293.205 0 0)
(293.205 0 0)
(293.205 0 0)
(293.205 0 0)
(293.205 0 0)
(293.205 0 0)
(293.205 0 0)
(293.205 0 0)
(293.205 0 0)
(293.205 0 0)
(293.205 0 0)
(293.205 0 0)
(293.205 0 0)
(293.205 0 0)
(293.205 0 0)
(293.205 0 0)
(293.205 0 0)
(293.205 0 0)
(293.205 0 0)
(293.205 0 0)
(293.205 0 0)
(293.205 0 0)
(293.205 0 0)
(293.205 0 0)
(293.205 0 0)
(293.205 0 0)
(293.205 0 0)
(293.205 0 0)
(293.205 0 0)
(293.205 0 0)
(293.205 0 0)
(293.205 0 0)
(293.205 0 0)
(293.205 0 0)
(293.205 0 0)
(293.205 0 0)
(293.205 0 0)
(293.205 0 0)
(293.205 0 0)
(293.205 0 0)
(293.205 0 0)
(293.205 0 0)
(293.205 0 0)
(293.205 0 0)
(293.205 0 0)
(293.205 0 0)
(293.205 0 0)
(293.205 0 0)
(293.205 0 0)
(293.205 0 0)
(293.205 0 0)
(293.205 0 0)
(293.205 0 0)
(293.205 0 0)
(293.205 0 0)
(293.205 0 0)
(293.205 0 0)
(293.205 0 0)
(293.205 0 0)
(293.205 0 0)
(293.205 0 0)
(293.205 0 0)
(293.205 0 0)
(293.205 0 0)
(293.205 0 0)
(293.205 0 0)
(293.205 0 0)
(293.205 0 0)
(293.205 0 0)
(293.205 0 0)
(293.205 0 0)
(293.205 0 0)
(293.205 0 0)
(293.205 0 0)
(293.205 0 0)
(293.205 0 0)
(293.205 0 0)
(293.205 0 0)
(293.205 0 0)
(293.205 0 0)
(293.205 0 0)
(293.205 0 0)
(293.205 0 0)
(293.205 0 0)
(293.205 0 0)
(293.205 0 0)
(293.205 0 0)
(293.205 0 0)
(293.205 0 0)
(293.205 0 0)
(293.205 0 0)
(293.205 0 0)
(293.205 0 0)
(293.205 0 0)
(293.205 0 0)
(293.205 0 0)
(293.205 0 0)
(293.205 0 0)
(293.204 0 0)
(293.204 0 0)
(293.203 0 0)
(293.203 0 0)
(293.202 0 0)
(293.201 0 0)
(293.2 0 0)
(293.198 0 0)
(293.196 0 0)
(293.193 0 0)
(293.19 0 0)
(293.186 0 0)
(293.181 0 0)
(293.175 0 0)
(293.167 0 0)
(293.159 0 0)
(293.148 0 0)
(293.136 0 0)
(293.121 0 0)
(293.104 0 0)
(293.085 0 0)
(293.062 0 0)
(293.036 0 0)
(293.007 0 0)
(292.975 0 0)
(292.938 0 0)
(292.897 0 0)
(292.853 0 0)
(292.804 0 0)
(292.752 0 0)
(292.695 0 0)
(292.634 0 0)
(292.57 0 0)
(292.503 0 0)
(292.433 0 0)
(292.361 0 0)
(292.286 0 0)
(292.211 0 0)
(292.135 0 0)
(292.059 0 0)
(291.983 0 0)
(291.909 0 0)
(291.836 0 0)
(291.766 0 0)
(291.699 0 0)
(291.635 0 0)
(291.575 0 0)
(291.519 0 0)
(291.467 0 0)
(291.419 0 0)
(291.375 0 0)
(291.336 0 0)
(291.301 0 0)
(291.27 0 0)
(291.243 0 0)
(291.219 0 0)
(291.199 0 0)
(291.182 0 0)
(291.167 0 0)
(291.155 0 0)
(291.145 0 0)
(291.136 0 0)
(291.13 0 0)
(291.124 0 0)
(291.12 0 0)
(291.117 0 0)
(291.114 0 0)
(291.112 0 0)
(291.11 0 0)
(291.109 0 0)
(291.108 0 0)
(291.107 0 0)
(291.107 0 0)
(291.106 0 0)
(291.106 0 0)
(291.105 0 0)
(291.105 0 0)
(291.104 0 0)
(291.103 0 0)
(291.103 0 0)
(291.102 0 0)
(291.101 0 0)
(291.1 0 0)
(291.099 0 0)
(291.097 0 0)
(291.096 0 0)
(291.094 0 0)
(291.092 0 0)
(291.09 0 0)
(291.087 0 0)
(291.085 0 0)
(291.082 0 0)
(291.08 0 0)
(291.078 0 0)
(291.076 0 0)
(291.075 0 0)
(291.075 0 0)
(291.076 0 0)
(291.078 0 0)
(291.08 0 0)
(291.082 0 0)
(291.088 0 0)
(291.097 0 0)
(291.112 0 0)
(291.131 0 0)
(291.165 0 0)
(291.206 0 0)
(291.262 0 0)
(291.309 0 0)
)
;

boundaryField
{
    sides
    {
        type            zeroGradient;
    }
    empty
    {
        type            empty;
    }
}


// ************************************************************************* //
