/*--------------------------------*- C++ -*----------------------------------*\
| =========                 |                                                 |
| \\      /  F ield         | OpenFOAM: The Open Source CFD Toolbox           |
|  \\    /   O peration     | Version:  3.0.0                                 |
|   \\  /    A nd           | Web:      www.OpenFOAM.org                      |
|    \\/     M anipulation  |                                                 |
\*---------------------------------------------------------------------------*/
FoamFile
{
    version     2.0;
    format      ascii;
    class       surfaceScalarField;
    location    "4.75";
    object      phi;
}
// * * * * * * * * * * * * * * * * * * * * * * * * * * * * * * * * * * * * * //

dimensions      [0 3 -1 0 0 0 0];

internalField   nonuniform List<scalar> 
11520
(
-3.39479e-05
-0.000567723
0.000377966
-3.53314e-05
-0.000455613
0.000373409
-4.12106e-05
-0.000288447
0.000318212
-4.65984e-05
-8.35643e-05
0.000209508
-4.84924e-05
0.000131744
6.061e-05
-4.61503e-05
0.000320496
-9.8211e-05
-4.28945e-05
0.000444058
-0.000229957
-4.32369e-05
0.000478277
-0.000306744
-4.86088e-05
0.000422289
-0.000318869
-5.60434e-05
0.000293259
-0.000272814
-6.09137e-05
0.000116473
-0.000183896
-5.99865e-05
-8.07378e-05
-6.97649e-05
-5.37791e-05
-0.000271461
5.29718e-05
-4.57361e-05
-0.000430747
0.000170027
-4.1113e-05
-0.000537256
0.000269682
-0.000576101
0.000342157
-0.000146636
-0.000636519
0.000245719
-0.000167843
-0.000501381
0.000244988
-0.000184525
-0.000319369
0.00020709
-0.000191188
-0.000105363
0.000124031
-0.000186602
0.00011466
1.61606e-06
-0.000174126
0.000305529
-0.000137117
-0.000159651
0.000429418
-0.000259516
-0.000147321
0.000459979
-0.000335587
-0.000137165
0.000394036
-0.00035178
-0.000126943
0.000249378
-0.000312456
-0.000115367
5.48161e-05
-0.000233018
-0.000103782
-0.000158026
-0.000132033
-9.57289e-05
-0.000358872
-2.63123e-05
-9.56543e-05
-0.00052057
7.13292e-05
-0.000107091
-0.00062114
0.000152267
-0.000644965
0.000210427
-0.000253786
-0.000666915
0.000113217
-0.000288331
-0.000516249
0.000118239
-0.000311592
-0.000326808
9.69739e-05
-0.000318002
-0.000111486
3.88968e-05
-0.000306058
0.000104944
-5.39737e-05
-0.000279155
0.000290189
-0.000165565
-0.000244652
0.000408889
-0.000268629
-0.000209982
0.000434643
-0.000336067
-0.000179299
0.000362549
-0.000353719
-0.00015404
0.000210027
-0.000324061
-0.000135362
7.52932e-06
-0.000260628
-0.000125478
-0.000211137
-0.000180265
-0.00012727
-0.000414088
-9.78111e-05
-0.000143061
-0.000573031
-2.36163e-05
-0.000173288
-0.000665501
3.75668e-05
-0.000674907
8.36359e-05
-0.000343422
-0.000657773
-1.33166e-05
-0.000386895
-0.000501431
-6.70461e-07
-0.000411628
-0.000312419
-3.88086e-06
-0.000412766
-0.000102804
-3.4744e-05
-0.000389048
0.000103632
-9.47554e-05
-0.000344398
0.000277346
-0.000173546
-0.000287659
0.000386959
-0.000250905
-0.000229813
0.000408343
-0.000304744
-0.000179826
0.000335834
-0.000321845
-0.000143129
0.000184997
-0.000302722
-0.000122732
-1.48601e-05
-0.000258137
-0.000120567
-0.000230204
-0.000202343
-0.000137637
-0.000429025
-0.000147544
-0.000173255
-0.000582501
-0.000100684
-0.000224357
-0.000667556
-6.25567e-05
-0.00066636
-3.00468e-05
-0.000402771
-0.000611228
-0.00012052
-0.000451585
-0.000460764
-9.93377e-05
-0.00047368
-0.000280014
-8.54631e-05
-0.000465592
-8.21942e-05
-8.90254e-05
-0.000427391
0.000109785
-0.000114374
-0.000364323
0.000269336
-0.000157337
-0.000286961
0.000369377
-0.000205243
-0.000209103
0.00038896
-0.000242023
-0.000143487
0.000322143
-0.00025641
-9.88198e-05
0.000181578
-0.000247263
-7.96965e-05
-6.64392e-06
-0.00022231
-8.76772e-05
-0.000211252
-0.000192787
-0.000121886
-0.000401209
-0.000167856
-0.000178392
-0.000547752
-0.000150761
-0.000250262
-0.000627295
-0.000137862
-0.000621389
-0.000120664
-0.000421488
-0.00053294
-0.000197233
-0.000472325
-0.000398932
-0.000169888
-0.000489646
-0.000233942
-0.000141366
-0.000471464
-5.31512e-05
-0.000120116
-0.000419502
0.000121748
-0.000112826
-0.000340557
0.000266997
-0.000120648
-0.000246649
0.000359361
-0.000138098
-0.000153396
0.000380898
-0.000155574
-7.60474e-05
0.0003254
-0.000164794
-2.58513e-05
0.000202081
-0.000163709
-8.92779e-06
3.24382e-05
-0.000157067
-2.69399e-05
-0.000155678
-0.000152841
-7.75413e-05
-0.000333213
-0.000156949
-0.000153603
-0.000472282
-0.000168922
-0.000244161
-0.000549004
-0.000181167
-0.000545077
-0.00018104
-0.000393573
-0.000432942
-0.000232942
-0.000444122
-0.000323164
-0.000204185
-0.00045649
-0.000179828
-0.00016688
-0.00043008
-1.98142e-05
-0.00012784
-0.000368146
0.000136818
-9.50636e-05
-0.000278588
0.00026887
-7.35087e-05
-0.000174061
0.000356226
-6.35193e-05
-7.08422e-05
0.000383348
-6.15996e-05
1.44539e-05
0.000343588
-6.31645e-05
6.89892e-05
0.00024236
-6.6432e-05
8.45925e-05
9.65301e-05
-7.36917e-05
5.8872e-05
-7.05956e-05
-8.99219e-05
-4.83397e-06
-0.000232896
-0.000118017
-9.69923e-05
-0.000364048
-0.000154249
-0.000202289
-0.000440916
-0.000188212
-0.000445675
-0.000205158
-0.000318917
-0.00032436
-0.000220496
-0.000367502
-0.00024219
-0.000196711
-0.000376095
-0.00012383
-0.00015907
-0.000345242
1.36219e-05
-0.000113458
-0.000279324
0.000152002
-6.78399e-05
-0.000186399
0.000272192
-2.86792e-05
-7.85912e-05
0.000356475
5.16554e-08
2.83411e-05
0.000390928
1.80313e-05
0.000117823
0.000368658
2.57673e-05
0.000175419
0.000292223
2.36432e-05
0.000191378
0.000173488
1.05039e-05
0.000161846
3.09518e-05
-1.65418e-05
9.01474e-05
-0.000113371
-5.8308e-05
-1.18944e-05
-0.0002361
-0.000109291
-0.000125795
-0.00031543
-0.000157449
-0.000334408
-0.00018842
-0.000204961
-0.000222368
-0.000157246
-0.000249676
-0.0001663
-0.000144026
-0.000255826
-7.26117e-05
-0.000115428
-0.000225031
4.35826e-05
-7.70299e-05
-0.000161898
0.000165467
-3.52083e-05
-7.378e-05
0.000275251
4.70619e-06
2.87619e-05
0.000356727
3.88057e-05
0.000131924
0.000397566
6.44535e-05
0.000220068
0.000391206
8.0103e-05
0.000278432
0.000338322
8.45897e-05
0.000295864
0.000247006
7.60638e-05
0.000267097
0.000130845
5.18974e-05
0.000194888
6.62808e-06
1.14749e-05
9.15785e-05
-0.000106651
-3.97684e-05
-2.24206e-05
-0.00018941
-9.03167e-05
-0.000225522
-0.000127886
-6.809e-05
-0.000142618
-4.78228e-05
-0.000106073
-0.000107197
-4.69936e-05
-0.000110158
-3.34858e-05
-3.51876e-05
-8.28914e-05
6.66479e-05
-1.74678e-05
-2.86788e-05
0.00017679
3.09897e-06
4.68147e-05
0.000278915
2.51376e-05
0.000135569
0.00035746
4.77507e-05
0.000226486
0.000401571
6.95513e-05
0.000305963
0.000405903
8.86903e-05
0.000360132
0.000370901
0.000102775
0.000377851
0.000302462
0.000108459
0.000353377
0.000210152
0.000101563
0.000288602
0.000105435
7.95193e-05
0.000194704
2.09863e-06
4.5254e-05
9.10535e-05
-8.35761e-05
7.50179e-06
-0.000136367
-2.47081e-05
6.69718e-05
-9.86103e-05
9.28495e-05
3.93908e-05
-7.65556e-05
8.47325e-05
3.84371e-05
-1.41938e-05
7.60718e-05
6.07459e-05
7.90475e-05
6.33666e-05
0.000102366
0.000185666
4.83092e-05
0.000159572
0.000285471
3.60679e-05
0.00022747
0.00036212
3.17685e-05
0.000298207
0.000406119
3.80573e-05
0.000360942
0.000414225
5.46611e-05
0.000404028
0.000388024
7.86434e-05
0.000418149
0.000332791
0.00010468
0.00039881
0.000255635
0.00012587
0.000347634
0.00016427
0.000136235
0.000273311
6.82184e-05
0.000134307
0.000191281
-1.95268e-05
0.000124152
-8.44707e-05
0.000111361
0.000172466
-9.89039e-05
0.00023947
0.000158207
-8.24272e-05
0.000229164
0.000161943
-2.07816e-05
0.000201419
0.000179919
7.67093e-05
0.000155114
0.000208561
0.000190345
9.69359e-05
0.0002456
0.000295779
4.01528e-05
0.000288936
0.00037388
-1.43184e-06
0.000334126
0.000415884
-1.87487e-05
0.000373732
0.000421207
-9.13652e-06
0.000399548
0.000393572
2.40916e-05
0.00040557
0.000338737
7.30553e-05
0.000389982
0.000263159
0.000127301
0.000354883
0.000173598
0.000176783
0.000306092
7.80514e-05
0.00021512
0.000253035
-1.21157e-05
0.000241261
-8.2863e-05
0.000257429
0.000227749
-0.000144264
0.000362511
0.000226696
-0.000125112
0.000355368
0.000235004
-5.41961e-05
0.000313721
0.000249791
5.7231e-05
0.000238203
0.000267658
0.000187878
0.00013859
0.000286521
0.000307892
3.58724e-05
0.000305951
0.00039297
-4.59414e-05
0.000324491
0.000433439
-8.9204e-05
0.000338748
0.000430903
-8.77483e-05
0.000344973
0.000391831
-4.56144e-05
0.000341267
0.000323848
2.59136e-05
0.00032868
0.000235171
0.000112232
0.000309428
0.000134403
0.000198934
0.000286275
3.12228e-05
0.000275243
0.000262449
-6.26953e-05
0.000335942
-0.000133321
0.000380358
0.000226987
-0.000227155
0.000438233
0.000234945
-0.000196433
0.000435292
0.000244908
-0.000108674
0.000386079
0.000256031
2.28808e-05
0.000291132
0.000265973
0.000176361
0.000160231
0.00027106
0.000317992
1.93762e-05
0.000270921
0.000416911
-9.83458e-05
0.000266026
0.000458104
-0.000164745
0.000257979
0.000443705
-0.000169939
0.000248255
0.000383814
-0.000119297
0.000238668
0.000290523
-2.82488e-05
0.000231189
0.000176522
8.3931e-05
0.000226831
5.4954e-05
0.000198947
0.000225075
-6.1217e-05
0.000302797
0.000223944
-0.000158859
0.000387438
-0.000225023
0.000450314
0.000178504
-0.000335776
0.000456498
0.000189068
-0.00028431
0.000456165
0.000195593
-0.000173828
0.000405218
0.000199964
-1.88571e-05
0.000301925
0.000202048
0.000158704
0.000153262
0.000197935
0.000325056
-1.46833e-05
0.000185122
0.000442183
-0.000160014
0.000165372
0.000485769
-0.000244881
0.000144607
0.000455376
-0.000253707
0.000128407
0.000366574
-0.000194243
0.000119924
0.000239778
-8.77366e-05
0.000120184
9.43527e-05
4.14955e-05
0.000128062
-5.16398e-05
0.000172463
0.000140508
-0.000182181
0.000290069
0.000152828
-0.000282619
0.000385549
-0.000341215
0.000455248
0.000101508
0.000415974
0.000109299
0.000418251
0.000105437
0.000372558
9.43441e-05
0.00027129
8.14899e-05
0.000115541
6.97606e-05
-7.00521e-05
5.78111e-05
-0.000236111
4.34689e-05
-0.000333098
2.82346e-05
-0.00034025
1.62571e-05
-0.000269903
1.1813e-05
-0.000151307
1.61339e-05
-1.37484e-05
2.88543e-05
0.000120476
4.68436e-05
0.000237709
6.49521e-05
0.000331059
0.000397886
5.47259e-05
-0.000523435
0.000451686
6.8356e-05
-0.000398201
0.000435404
7.47047e-05
-0.000210841
0.000362856
7.65027e-05
1.25437e-05
0.000238418
7.43979e-05
0.000233878
7.98232e-05
6.70245e-05
0.00040852
-8.08285e-05
5.15591e-05
0.000502346
-0.000207765
2.78763e-05
0.000504891
-0.000275877
8.42368e-07
0.000427073
-0.000277605
-2.19459e-05
0.000288834
-0.000220364
-3.40921e-05
0.000111435
-0.000119919
-3.27826e-05
-8.31237e-05
5.47897e-06
-2.01478e-05
-0.000271176
0.00013833
-1.55169e-06
-0.000427948
0.000263146
1.57998e-05
-0.000530646
0.000366674
-0.000562935
0.000437426
-5.75057e-05
-0.000586345
0.000305842
-6.24452e-05
-0.000443506
0.000295232
-6.34495e-05
-0.000247203
0.000244457
-5.75821e-05
-1.90869e-05
0.000149794
-4.807e-05
0.000206021
1.99606e-05
-4.19831e-05
0.000386078
-0.000120762
-4.50086e-05
0.000484563
-0.000238708
-5.62487e-05
0.000486151
-0.000305607
-6.9161e-05
0.000398789
-0.000310583
-7.65425e-05
0.000243907
-0.000260148
-7.47901e-05
4.75575e-05
-0.000170893
-6.52786e-05
-0.000162793
-6.1875e-05
-5.33021e-05
-0.000359243
4.97782e-05
-4.55389e-05
-0.000515113
0.000150731
-4.71276e-05
-0.000608473
0.000231683
-0.000624942
0.0002856
-0.000165986
-0.000616002
0.000161686
-0.000185148
-0.000461451
0.000155346
-0.000193047
-0.000264064
0.000121733
-0.000186257
-4.06315e-05
5.36518e-05
-0.000167356
0.000178251
-4.51048e-05
-0.00014393
0.000354303
-0.000157216
-0.000124421
0.000451702
-0.000255277
-0.000112449
0.000451492
-0.000313381
-0.000105534
0.000358208
-0.000320053
-9.93867e-05
0.000193684
-0.000279985
-9.22001e-05
-1.24587e-05
-0.000207799
-8.59826e-05
-0.000228672
-0.000120604
-8.51779e-05
-0.000424468
-3.33913e-05
-9.4318e-05
-0.000572681
4.30913e-05
-0.000115237
-0.000652926
0.000102939
-0.000652722
0.000143352
-0.000263845
-0.000612916
2.22233e-05
-0.000292894
-0.000454597
2.1525e-05
-0.000303522
-0.000262585
5.26741e-06
-0.000292663
-5.05164e-05
-3.57175e-05
-0.000262397
0.00015466
-0.000101431
-0.00022024
0.000319176
-0.000180577
-0.000176694
0.000410266
-0.000253015
-0.000140101
0.00040809
-0.000297934
-0.000113481
0.000314131
-0.000304388
-9.64317e-05
0.00014883
-0.000274916
-8.86091e-05
-5.71076e-05
-0.000221311
-9.12835e-05
-0.000270153
-0.000158188
-0.000106546
-0.000458644
-9.81043e-05
-0.000135465
-0.000595612
-4.88343e-05
-0.000176313
-0.000662404
-1.22304e-05
-0.00064802
1.41575e-05
-0.000339503
-0.000578504
-0.000100354
-0.000374099
-0.000425224
-9.4115e-05
-0.000383717
-0.000244936
-9.34935e-05
-0.000365938
-4.94349e-05
-0.000107886
-0.000323088
0.000137542
-0.000140105
-0.000263038
0.000286756
-0.000184967
-0.00019788
0.000369416
-0.000229552
-0.000139688
0.000366526
-0.000258651
-9.64103e-05
0.000277226
-0.000262783
-7.1464e-05
0.000119268
-0.000242647
-6.58951e-05
-7.7798e-05
-0.000207189
-7.98904e-05
-0.000280524
-0.00016842
-0.000112738
-0.000457261
-0.000136392
-0.000161678
-0.000581795
-0.000115638
-0.000221324
-0.00063696
-0.000103661
-0.00061293
-9.21524e-05
-0.000382032
-0.000517665
-0.000193363
-0.000418427
-0.000377948
-0.000180768
-0.000424659
-0.000214414
-0.000165657
-0.000399249
-3.87511e-05
-0.00015621
-0.000344971
0.000128184
-0.000157746
-0.000270118
0.000261365
-0.00017011
-0.000187814
0.000336066
-0.000187052
-0.000112725
0.000334944
-0.000199081
-5.66947e-05
0.000255379
-0.000198977
-2.65441e-05
0.000111639
-0.000186231
-2.46769e-05
-6.96413e-05
-0.000167091
-5.03389e-05
-0.000256768
-0.000150935
-9.99953e-05
-0.000419268
-0.000145286
-0.000167059
-0.000532099
-0.000151554
-0.000242591
-0.000579272
-0.000163323
-0.000551808
-0.00016743
-0.000383398
-0.00043724
-0.000245306
-0.000418459
-0.000317626
-0.000229445
-0.000420417
-0.000174432
-0.000204904
-0.000388677
-2.02371e-05
-0.000178094
-0.000326404
0.000126633
-0.000155785
-0.000241904
0.000244857
-0.000141501
-0.00014852
0.000313466
-0.000134304
-6.21832e-05
0.000316917
-0.00012991
2.4717e-06
0.000251521
-0.000123962
3.58646e-05
0.000127364
-0.000115549
3.40314e-05
-3.27622e-05
-0.000108738
-1.69758e-06
-0.000200488
-0.000110473
-6.54616e-05
-0.000347537
-0.000125984
-0.000147006
-0.000450628
-0.000154176
-0.000234127
-0.000494509
-0.000185853
-0.000470599
-0.000205158
-0.000339709
-0.000346082
-0.000247014
-0.00037093
-0.000249802
-0.000233313
-0.000368853
-0.000128553
-0.000207026
-0.00033364
4.18732e-06
-0.000173095
-0.000268613
0.000132242
-0.000138476
-0.000181306
0.000237191
-0.00010832
-8.43264e-05
0.000301346
-8.48076e-05
6.43424e-06
0.000311514
-6.73266e-05
7.57088e-05
0.000262574
-5.45594e-05
0.000110786
0.000161817
-4.58873e-05
0.000106286
2.66915e-05
-4.44504e-05
6.36012e-05
-0.00011884
-5.55047e-05
-9.46684e-06
-0.000249938
-8.28385e-05
-0.000100142
-0.000345448
-0.000123796
-0.000193189
-0.000390778
-0.000168132
-0.000377098
-0.000200043
-0.000253051
-0.000254857
-0.000193118
-0.000278224
-0.000180911
-0.000187744
-0.000272789
-8.05011e-05
-0.000168916
-0.000237835
3.30759e-05
-0.000140872
-0.000176281
0.00014475
-0.00010927
-9.42451e-05
0.000238262
-7.84001e-05
-2.09206e-06
0.000298674
-5.06748e-05
8.60531e-05
0.000314901
-2.70782e-05
0.000154022
0.00028249
-7.78251e-06
0.000188681
0.000205568
6.17991e-06
0.000182986
9.6885e-05
1.15654e-05
0.000137871
-2.50479e-05
3.22059e-06
6.19045e-05
-0.000140041
-2.24562e-05
-3.03526e-05
-0.000229696
-6.32635e-05
-0.000122048
-0.000279938
-0.000109462
-0.00028139
-0.000147943
-0.000133411
-0.000175918
-8.49238e-05
-0.000150197
-0.000119182
-9.19356e-05
-0.000141817
-3.49122e-05
-8.91566e-05
-0.000110433
6.47523e-05
-8.05284e-05
-5.85312e-05
0.000164663
-6.87164e-05
1.01127e-05
0.0002492
-5.44442e-05
8.83804e-05
0.00030551
-3.73536e-05
0.00016472
0.000325245
-1.71322e-05
0.000224864
0.000305301
5.73497e-06
0.000255703
0.000248506
2.89973e-05
0.000249623
0.000163579
4.78448e-05
0.000207043
6.3565e-05
5.55301e-05
0.000136357
-3.65358e-05
4.66995e-05
5.18941e-05
-0.000121639
2.166e-05
-2.94874e-05
-0.000178345
-1.27092e-05
-0.000196369
-4.76442e-05
2.87715e-07
-0.000122802
6.56136e-05
-5.52423e-06
-7.56198e-05
4.69824e-05
6.31574e-06
1.01035e-06
2.83094e-05
3.21783e-05
9.58123e-05
6.44406e-06
6.99705e-05
0.000191696
-1.65158e-05
0.000118536
0.000271644
-3.49412e-05
0.000174596
0.000323985
-4.27667e-05
0.000230498
0.000343368
-3.59676e-05
0.000275027
0.000329229
-1.37956e-05
0.000297037
0.000284549
2.05899e-05
0.00028985
0.000215444
6.00032e-05
0.000253866
0.000130599
9.48192e-05
0.00019641
4.06143e-05
0.000116541
0.000129678
-4.23149e-05
0.000121716
6.80247e-05
-0.000105452
0.000112912
-0.000137732
9.45807e-05
0.000122045
-0.00010778
0.000233288
0.000129145
-6.24885e-05
0.000208933
0.000145694
1.73083e-05
0.000168571
0.000166338
0.000119363
0.000110919
0.000188859
0.00022231
4.38016e-05
0.00021413
0.000305057
-1.85319e-05
0.000242744
0.000355511
-6.15719e-05
0.000271577
0.000371361
-7.55747e-05
0.000293757
0.000355537
-5.76252e-05
0.000301847
0.00031243
-1.18793e-05
0.000291686
0.00024706
5.15991e-05
0.000264371
0.000165685
0.000119531
0.000225641
7.66002e-05
0.000179528
0.000184034
-9.24943e-06
0.000223661
0.000149228
-7.92362e-05
0.000249851
-0.000120858
0.000258898
0.000206128
-0.00013723
0.000383719
0.000225645
-8.76682e-05
0.000361031
0.00024726
5.32642e-06
0.000304087
0.00026478
0.000126457
0.00021359
0.000274797
0.000248921
0.000101961
0.000278473
0.000344553
-7.29895e-06
0.000279175
0.000398059
-8.91918e-05
0.000278648
0.000409272
-0.000126588
0.000275422
0.000385179
-0.000114164
0.000267087
0.00033268
-5.75292e-05
0.000252926
0.000257413
2.97212e-05
0.00023487
0.000165642
0.000130331
0.000216479
6.60225e-05
0.000227903
0.00020184
-2.96934e-05
0.000310325
0.000194671
-0.000107697
0.000371571
-0.00015404
0.000410327
0.00023739
-0.000207301
0.000485081
0.000265042
-0.000148189
0.000468161
0.000289658
-3.58025e-05
0.000402592
0.000305904
0.000111492
0.000289851
0.000308723
0.00026289
0.000143442
0.000296924
0.000382042
-6.3145e-06
0.000274143
0.000446064
-0.000123569
0.000247025
0.000453968
-0.000182323
0.000220637
0.000416307
-0.00017468
0.000198252
0.000344144
-0.000108376
0.000182173
0.000246391
-1.14699e-06
0.000173998
0.000132076
0.000125673
0.000174276
1.25908e-05
0.0002521
0.000182329
-9.80159e-05
0.000363067
0.000196439
-0.00018436
0.000449992
-0.000231774
0.000510321
0.000216915
-0.000305997
0.000521686
0.000246033
-0.000231282
0.00051014
0.000268588
-9.6461e-05
0.00044332
0.000282144
7.82208e-05
0.00032164
0.000281745
0.000260586
0.000155966
0.000262282
0.000408908
-2.20856e-05
0.000225344
0.000490109
-0.000167122
0.000180597
0.000496621
-0.000242786
0.000139553
0.000441266
-0.000237622
0.000110307
0.000341841
-0.000162694
9.63836e-05
0.000213632
-4.10545e-05
9.76971e-05
7.04147e-05
0.000101843
0.000111691
-7.28812e-05
0.000243941
0.00013414
-0.000199604
0.000369207
0.000159806
-0.000292774
0.000468298
-0.000337836
0.000537709
0.000159365
0.000492651
0.000183775
0.000485135
0.000196219
0.000423502
0.000198302
0.000304176
0.000190922
0.00013252
0.000172102
-6.08537e-05
0.000139945
-0.000222915
9.88433e-05
-0.000307452
5.90506e-05
-0.000300494
3.04093e-05
-0.000217917
1.80392e-05
-8.85702e-05
2.22194e-05
5.90564e-05
4.03082e-05
0.00020269
6.70964e-05
0.00032755
9.63088e-05
0.000425375
0.000492775
0.000156455
-0.00039526
0.000487204
0.000187475
-0.000275148
0.000466275
0.000204831
-9.58097e-05
0.000386666
0.000208089
0.000114931
0.000258231
0.000196778
0.000315352
0.000100102
0.000170219
0.000459091
-5.62823e-05
0.000129095
0.000517297
-0.000177263
7.89374e-05
0.000490291
-0.000239402
2.99772e-05
0.000397113
-0.000235546
-6.87906e-06
0.000259665
-0.000172958
-2.40862e-05
9.66849e-05
-6.74499e-05
-1.92995e-05
-7.41948e-05
6.22821e-05
4.20428e-06
-0.000234111
0.000198115
3.94218e-05
-0.000363128
0.00032421
7.73775e-05
-0.000442811
0.000427168
-0.000459579
0.000495709
5.93967e-05
-0.00045576
0.000342713
7.33307e-05
-0.000322827
0.000328978
8.64749e-05
-0.000137218
0.000272721
9.83133e-05
7.7897e-05
0.00017499
0.000102697
0.000284919
4.60105e-05
9.20386e-05
0.000439427
-9.04399e-05
6.45147e-05
0.000507562
-0.000201449
2.69677e-05
0.000482512
-0.000260281
-8.85288e-06
0.000380022
-0.000257672
-3.24099e-05
0.000224479
-0.000201406
-3.86675e-05
4.05363e-05
-0.000108487
-2.88706e-05
-0.000147914
2.04731e-06
-9.18527e-06
-0.000317385
0.000113366
1.20753e-05
-0.000446176
0.000212518
2.81812e-05
-0.00051744
0.000290206
-0.00052097
0.000339405
-4.27554e-05
-0.00049095
0.000194839
-4.37957e-05
-0.000349601
0.00018316
-3.76938e-05
-0.000165338
0.000143751
-2.33903e-05
4.355e-05
7.36954e-05
-6.24014e-06
0.000245001
-2.23376e-05
4.53221e-06
0.000399294
-0.000127855
2.0894e-06
0.000471273
-0.000216545
-1.1523e-05
0.000447427
-0.000264684
-2.83236e-05
0.000339318
-0.000262548
-4.00012e-05
0.00017251
-0.000216338
-4.2668e-05
-2.34509e-05
-0.000141145
-3.79188e-05
-0.000219382
-5.38848e-05
-3.10308e-05
-0.000388638
3.0974e-05
-2.81369e-05
-0.000509205
0.000103226
-3.30141e-05
-0.000566637
0.000157013
-0.000554749
0.00018891
-0.000144947
-0.000499749
4.81421e-05
-0.000157192
-0.000355057
3.92247e-05
-0.000154923
-0.000178444
1.61056e-05
-0.000136864
1.67494e-05
-2.69757e-05
-0.000107156
0.000202985
-8.91227e-05
-7.50961e-05
0.000346865
-0.000160207
-5.0424e-05
0.00041529
-0.000221704
-3.76868e-05
0.000391754
-0.000254998
-3.45859e-05
0.000283133
-0.000251304
-3.62545e-05
0.000113978
-0.000214715
-3.97656e-05
-8.36384e-05
-0.000157612
-4.55094e-05
-0.000277299
-9.45277e-05
-5.61083e-05
-0.000438478
-3.76656e-05
-7.40226e-05
-0.000545741
5.61677e-06
-9.9233e-05
-0.000587518
3.38609e-05
-0.000560802
4.88048e-05
-0.000237449
-0.000482421
-8.50402e-05
-0.000255817
-0.000341061
-8.97423e-05
-0.00025353
-0.000177477
-9.6748e-05
-0.000229208
-1.72376e-06
-0.000113735
-0.00018696
0.000163879
-0.000143247
-0.0001357
0.000291106
-0.000180468
-8.72728e-05
0.000351315
-0.000214004
-5.10522e-05
0.000327658
-0.000230776
-3.05594e-05
0.000223401
-0.000223544
-2.49109e-05
6.0403e-05
-0.000194721
-3.21654e-05
-0.000129406
-0.000154167
-5.09939e-05
-0.000312569
-0.000114321
-8.05038e-05
-0.000460188
-8.51716e-05
-0.000118899
-0.000551967
-7.10178e-05
-0.000162346
-0.000578861
-6.88707e-05
-0.000540294
-7.01988e-05
-0.000307895
-0.000441676
-0.000192007
-0.000327753
-0.000310622
-0.00019135
-0.000322469
-0.000164318
-0.0001841
-0.000291323
-1.09361e-05
-0.000178143
-0.000238053
0.000131414
-0.000178551
-0.000171494
0.000239608
-0.000185171
-0.000104555
0.000289937
-0.000192613
-5.00343e-05
0.000267021
-0.000192964
-1.63298e-05
0.000171679
-0.00018096
-6.35773e-06
2.21333e-05
-0.000157933
-1.91772e-05
-0.000152117
-0.00013156
-5.16465e-05
-0.000318765
-0.00011227
-9.90711e-05
-0.000449845
-0.000108205
-0.000155303
-0.000526576
-0.000120712
-0.000213197
-0.000541813
-0.000142478
-0.000496288
-0.000158838
-0.000344981
-0.000381959
-0.000260644
-0.000362337
-0.000267196
-0.000255515
-0.000352546
-0.000140864
-0.000238151
-0.000315503
-1.07999e-05
-0.000215273
-0.000254699
0.000108381
-0.000193555
-0.000178456
0.000198016
-0.000176152
-9.98139e-05
0.000239191
-0.0001622
-3.34683e-05
0.000218849
-0.000148083
8.59759e-06
0.000136368
-0.000130716
2.02697e-05
5.90791e-06
-0.000110996
1.37314e-06
-0.000147045
-9.4914e-05
-4.33395e-05
-0.000293268
-9.1257e-05
-0.00010561
-0.000406999
-0.000106559
-0.000175338
-0.000471164
-0.00013986
-0.000242664
-0.000479636
-0.000180704
-0.000433228
-0.000210279
-0.000340094
-0.000309391
-0.00028023
-0.000351861
-0.000214394
-0.000274347
-0.000337347
-0.00010875
-0.000253654
-0.000297011
-9.62347e-07
-0.000223268
-0.000233894
9.70235e-05
-0.000190236
-0.000155154
0.000170189
-0.000159233
-7.28415e-05
0.000203938
-0.000131867
-1.95123e-06
0.000187972
-0.00010734
4.34524e-05
0.000120925
-8.45203e-05
5.46789e-05
1.3262e-05
-6.44679e-05
3.04802e-05
-0.000114745
-5.25509e-05
-2.32357e-05
-0.000238527
-5.65299e-05
-9.54152e-05
-0.000335627
-8.20308e-05
-0.000172808
-0.000390772
-0.000126795
-0.000243507
-0.000397994
-0.000179074
-0.000357017
-0.000219021
-0.000289689
-0.000231737
-0.000242804
-0.000293613
-0.000156119
-0.000242095
-0.000275072
-6.93446e-05
-0.000226862
-0.000235239
1.94475e-05
-0.000201114
-0.000176215
9.95502e-05
-0.000170821
-0.000103311
0.000158967
-0.000140083
-2.63056e-05
0.000186722
-0.000110464
4.10179e-05
0.000175486
-8.19161e-05
8.42285e-05
0.000124277
-5.4345e-05
9.31129e-05
4.03022e-05
-2.97447e-05
6.54289e-05
-6.16878e-05
-1.38082e-05
7.57722e-06
-0.000162845
-1.46096e-05
-6.77274e-05
-0.000244942
-3.78369e-05
-0.000145446
-0.000294698
-8.16186e-05
-0.00021243
-0.000305534
-0.000134939
-0.000275295
-0.000180374
-0.000197491
-0.000158626
-0.000145879
-0.000191811
-9.76133e-05
-0.000156122
-0.000170208
-2.46764e-05
-0.000155427
-0.0001347
5.08274e-05
-0.000147416
-8.64739e-05
0.000118183
-0.000135575
-2.80446e-05
0.00016695
-0.000120856
3.41781e-05
0.000189272
-0.000102127
8.9163e-05
0.000181162
-7.77932e-05
0.000123838
0.000142967
-4.76297e-05
0.000128039
7.97785e-05
-1.46801e-05
9.90514e-05
1.29068e-06
1.38538e-05
4.30422e-05
-7.96566e-05
2.83509e-05
-2.71588e-05
-0.000149532
2.14912e-05
-9.64582e-05
-0.000196927
-6.81174e-06
-0.000151713
-0.00021441
-4.85779e-05
-0.000197876
-9.14421e-05
-7.61334e-05
-0.00010185
3.33126e-06
-5.91319e-05
-4.73496e-05
-2.02829e-05
-3.47411e-05
2.03351e-05
-4.10929e-05
-6.42416e-06
9.15773e-05
-6.26228e-05
2.55173e-05
0.000153749
-8.40235e-05
6.18952e-05
0.000196083
-0.000100452
0.000100606
0.000213247
-0.000105452
0.00013464
0.000204991
-9.38313e-05
0.000154033
0.000174005
-6.42254e-05
0.00015047
0.000124571
-2.06396e-05
0.000121758
6.25319e-05
2.74733e-05
7.34375e-05
-4.38086e-06
6.7864e-05
1.68434e-05
-6.67827e-05
9.03852e-05
-3.48376e-05
-0.000114893
9.13621e-05
-7.02859e-05
-0.000140323
7.42735e-05
-0.0001372
4.52583e-05
5.26962e-05
-7.40101e-05
0.00018285
8.24179e-05
-1.77306e-05
0.000149593
0.00011055
5.58055e-05
0.000104968
0.000131183
0.000135243
4.66206e-05
0.000144308
0.000203156
-1.87301e-05
0.000154011
0.000245629
-7.77806e-05
0.00016305
0.00025887
-0.000116235
0.000169474
0.000246845
-0.000123852
0.000167885
0.000215567
-9.7598e-05
0.00015345
0.000169779
-4.26517e-05
0.000125606
0.000113157
2.8818e-05
8.91678e-05
5.01628e-05
0.000101425
5.27775e-05
-1.24413e-05
0.000161577
2.59121e-05
-6.56319e-05
0.000201266
1.63992e-05
-9.98188e-05
0.000218859
-0.000107278
0.000215278
0.000161897
-8.46254e-05
0.000357108
0.000204075
-2.11105e-05
0.000322233
0.000237315
6.86854e-05
0.000257967
0.00025284
0.000169863
0.000163445
0.000249341
0.000257219
5.13977e-05
0.000232767
0.000309692
-5.47882e-05
0.000210595
0.000322696
-0.000130846
0.000186758
0.000304501
-0.000160406
0.000161582
0.000265449
-0.00013887
0.000134815
0.000212121
-7.31049e-05
0.000108079
0.000147967
2.16481e-05
8.53612e-05
7.65218e-05
0.00012669
7.17601e-05
4.08603e-06
0.000224976
7.19871e-05
-5.99819e-05
0.000304448
8.90426e-05
-0.000104447
0.000359144
-0.000119425
0.000386844
0.000228762
-0.000134315
0.00048659
0.00027948
-6.14719e-05
0.000457804
0.000317581
5.0164e-05
0.000383013
0.000332462
0.000182459
0.000262373
0.000319463
0.000301993
0.000111667
0.0002829
0.000377009
-3.70687e-05
0.000233468
0.00039693
-0.00014837
0.000181764
0.000372394
-0.000198512
0.000134952
0.000319054
-0.000181473
9.76732e-05
0.000247531
-0.000106508
7.32866e-05
0.000163591
7.61538e-06
6.42207e-05
7.23167e-05
0.000138944
7.15604e-05
-1.86947e-05
0.000267541
9.48373e-05
-9.85287e-05
0.000378336
0.000132201
-0.000154514
0.000462695
-0.000174672
0.000517187
0.000245177
-0.000214213
0.000547094
0.00029729
-0.000130197
0.000526752
0.000336023
4.06243e-06
0.000450688
0.000352618
0.000168053
0.000319452
0.000338875
0.000325048
0.000146654
0.000293642
0.000432513
-3.23574e-05
0.000227192
0.000467769
-0.000171511
0.000156005
0.000438568
-0.000237772
9.4436e-05
0.000366457
-0.000223455
5.14522e-05
0.000269207
-0.000141386
3.10257e-05
0.000157493
-1.45303e-05
3.32678e-05
3.95462e-05
0.000132372
5.54583e-05
-7.46654e-05
0.000277722
9.30166e-05
-0.000172286
0.000405406
0.000140186
-0.000239139
0.000505754
-0.000262029
0.000574565
0.000218025
0.0005359
0.000263975
0.000522245
0.000295238
0.000450945
0.000307545
0.000321918
0.000296303
0.000144491
0.000258016
-4.71323e-05
0.000196307
-0.000200112
0.000124556
-0.00027374
5.97599e-05
-0.000259454
1.47678e-05
-0.000173931
-4.65496e-06
-4.36018e-05
1.00691e-06
0.000105546
2.75603e-05
0.000252293
6.83693e-05
0.000381302
0.0001158
0.000483167
0.000553017
0.000248057
-0.000204534
0.000482672
0.000296647
-0.00010078
0.000462962
0.000324628
4.7116e-05
0.000387913
0.000327021
0.000218197
0.000267215
0.000302609
0.000372021
0.000119042
0.00025222
0.000467019
-2.8484e-05
0.000181772
0.000482642
-0.000143772
0.000103457
0.000428848
-0.000203297
3.26765e-05
0.000329768
-0.000198863
-1.70124e-05
0.000207053
-0.000137066
-3.74369e-05
7.61511e-05
-3.36862e-05
-2.6997e-05
-5.03558e-05
9.24199e-05
9.89139e-06
-0.000160063
0.000223264
6.47974e-05
-0.000240762
0.00034362
0.000126949
-0.000281919
0.000441699
-0.00027501
0.000507968
0.000182204
-0.000262766
0.000357018
0.00021626
-0.000150982
0.000345125
0.00024164
3.86315e-06
0.000290594
0.000254895
0.000181621
0.000198311
0.00024774
0.000347774
7.74117e-05
0.000214424
0.000460007
-5.01121e-05
0.000158406
0.000490347
-0.000153136
9.28672e-05
0.000440207
-0.000206102
3.42887e-05
0.000331279
-0.000200605
-4.35464e-06
0.000188949
-0.000144658
-1.69774e-05
3.51949e-05
-5.49078e-05
-4.70693e-06
-0.000111031
5.04516e-05
2.58425e-05
-0.000232864
0.000155618
6.54134e-05
-0.000316697
0.000248882
0.000104867
-0.000353469
0.000322303
-0.000338241
0.000369226
9.72936e-05
-0.000304423
0.000213013
0.000114852
-0.00018749
0.000202109
0.000133147
-3.42692e-05
0.000163588
0.000150462
0.000138974
9.90276e-05
0.000159536
0.000303463
1.28997e-05
0.000151445
0.000420917
-8.06742e-05
0.000123209
0.000459897
-0.00015786
8.21135e-05
0.000413449
-0.000196829
4.1537e-05
0.000298741
-0.000189433
1.31589e-05
0.000143402
-0.000142413
2.41963e-06
-2.46573e-05
-7.05531e-05
8.19422e-06
-0.000180709
1.00189e-05
2.45874e-05
-0.000304636
8.6352e-05
4.4181e-05
-0.000382621
0.000149557
6.09382e-05
-0.000408372
0.000195158
-0.00038159