/*--------------------------------*- C++ -*----------------------------------*\
| =========                 |                                                 |
| \\      /  F ield         | OpenFOAM: The Open Source CFD Toolbox           |
|  \\    /   O peration     | Version:  3.0.0                                 |
|   \\  /    A nd           | Web:      www.OpenFOAM.org                      |
|    \\/     M anipulation  |                                                 |
\*---------------------------------------------------------------------------*/
FoamFile
{
    version     2.0;
    format      ascii;
    class       volVectorField;
    location    "4.75";
    object      U;
}
// * * * * * * * * * * * * * * * * * * * * * * * * * * * * * * * * * * * * * //

dimensions      [0 1 -1 0 0 0 0];

internalField   nonuniform List<vector> 
4096
(
(-0.0107656 -0.141634 0.0813964)
(-0.00860115 -0.114608 0.0823183)
(-0.0100157 -0.0717953 0.0718237)
(-0.0115711 -0.019066 0.0480277)
(-0.0122172 0.0353235 0.0128293)
(-0.0117189 0.0815471 -0.0271463)
(-0.0107074 0.110959 -0.0623811)
(-0.0104193 0.119175 -0.0844337)
(-0.0115442 0.106809 -0.089541)
(-0.0136138 0.0776031 -0.0790061)
(-0.0154363 0.0365214 -0.0571558)
(-0.0159306 -0.010878 -0.0290718)
(-0.0147771 -0.058619 0.000733418)
(-0.0125763 -0.100398 0.0287778)
(-0.0108931 -0.130197 0.0526063)
(-0.0110941 -0.143312 0.0702463)
(-0.0368432 -0.153692 0.0509266)
(-0.0402571 -0.122218 0.052642)
(-0.0457492 -0.0778459 0.0457193)
(-0.0488861 -0.0243287 0.0273306)
(-0.048823 0.0318733 -0.00196838)
(-0.0460891 0.081487 -0.0372339)
(-0.0422526 0.114144 -0.0699635)
(-0.0388719 0.122745 -0.0916103)
(-0.0363161 0.106593 -0.0976322)
(-0.0339577 0.0704615 -0.0887015)
(-0.0311643 0.0217749 -0.0690028)
(-0.027979 -0.0314843 -0.0437798)
(-0.0251471 -0.0818171 -0.0176343)
(-0.0238519 -0.122582 0.0061998)
(-0.0255788 -0.148511 0.025962)
(-0.0299293 -0.156045 0.0405057)
(-0.0625367 -0.168989 0.0198218)
(-0.0695813 -0.131814 0.0232106)
(-0.0778634 -0.0837681 0.0201639)
(-0.0818225 -0.0283781 0.00750282)
(-0.0807991 0.0279072 -0.0149469)
(-0.0752638 0.0764678 -0.0435503)
(-0.0669058 0.107793 -0.0712845)
(-0.0578892 0.11496 -0.0904667)
(-0.0495863 0.0968772 -0.0965795)
(-0.0424285 0.0581635 -0.0898926)
(-0.0366294 0.00660019 -0.0741243)
(-0.0326971 -0.0492622 -0.0540479)
(-0.0314019 -0.101359 -0.033716)
(-0.0336176 -0.14256 -0.0156214)
(-0.0402297 -0.167191 -0.000615828)
(-0.0483602 -0.171124 0.0111532)
(-0.0842073 -0.171916 -0.00996769)
(-0.0938609 -0.13185 -0.00431806)
(-0.103709 -0.0828049 -0.00295168)
(-0.107168 -0.0279512 -0.00897312)
(-0.103979 0.0264822 -0.0232113)
(-0.0946851 0.0725755 -0.0433927)
(-0.0810877 0.101765 -0.0642317)
(-0.0659527 0.107549 -0.0795136)
(-0.0518628 0.088567 -0.0851968)
(-0.0405279 0.0491253 -0.081156)
(-0.0329583 -0.00298364 -0.0703624)
(-0.0298343 -0.0590317 -0.0568176)
(-0.0316133 -0.110755 -0.0437875)
(-0.0386006 -0.15082 -0.0328305)
(-0.0508984 -0.173398 -0.023696)
(-0.0628672 -0.173998 -0.0152823)
(-0.098395 -0.164419 -0.0351523)
(-0.110006 -0.12439 -0.027254)
(-0.12035 -0.0765257 -0.0213889)
(-0.122249 -0.0240217 -0.0203084)
(-0.115996 0.0271374 -0.0254971)
(-0.102472 0.0697773 -0.0361162)
(-0.0837625 0.0964362 -0.0488514)
(-0.0631657 0.101351 -0.0592387)
(-0.0442077 0.083043 -0.0639776)
(-0.029641 0.0451942 -0.0626006)
(-0.021147 -0.00498693 -0.05721)
(-0.0195358 -0.05912 -0.050877)
(-0.0249534 -0.109065 -0.0459538)
(-0.0370964 -0.147432 -0.0429655)
(-0.0551489 -0.168249 -0.0405155)
(-0.0710643 -0.166802 -0.036221)
(-0.1023 -0.148002 -0.052482)
(-0.115417 -0.110944 -0.0430926)
(-0.125409 -0.066254 -0.0334471)
(-0.125339 -0.0175345 -0.0258406)
(-0.115984 0.0294884 -0.0223235)
(-0.0986245 0.0683857 -0.0234061)
(-0.075678 0.0927685 -0.027702)
(-0.0508134 0.0977062 -0.032605)
(-0.0281553 0.0816653 -0.035788)
(-0.0112015 0.0474742 -0.0366109)
(-0.00220498 0.00128595 -0.0363234)
(-0.00218936 -0.049273 -0.036989)
(-0.0111304 -0.0964526 -0.0400098)
(-0.0281405 -0.132957 -0.0448928)
(-0.0513797 -0.152694 -0.0492103)
(-0.0712884 -0.150925 -0.0495667)
(-0.0942735 -0.124596 -0.0593736)
(-0.108659 -0.0929676 -0.0499721)
(-0.117793 -0.0532006 -0.038171)
(-0.115965 -0.0094104 -0.0259191)
(-0.104248 0.0330418 -0.0155933)
(-0.084231 0.0684265 -0.00869898)
(-0.0585271 0.0912503 -0.00542926)
(-0.0309315 0.0972732 -0.00489366)
(-0.00580927 0.0848539 -0.00588357)
(0.0128651 0.0558513 -0.00786582)
(0.0223241 0.0151855 -0.0114109)
(0.0211888 -0.0305476 -0.0176808)
(0.00943516 -0.0742145 -0.0272016)
(-0.0115345 -0.108806 -0.038632)
(-0.0388126 -0.128256 -0.0487822)
(-0.0624952 -0.127972 -0.0537542)
(-0.0743759 -0.0971502 -0.0542085)
(-0.0896933 -0.0724519 -0.0465736)
(-0.0977581 -0.0388428 -0.0349556)
(-0.0948175 -0.000718098 -0.0211455)
(-0.0820368 0.0369989 -0.00747996)
(-0.0611027 0.0692208 0.00413643)
(-0.0345703 0.0911473 0.0125832)
(-0.00606346 0.0990328 0.0174967)
(0.0201205 0.0911078 0.0190758)
(0.0398361 0.0683199 0.0174249)
(0.0498637 0.0343018 0.0123054)
(0.0483211 -0.00556829 0.00315222)
(0.0349849 -0.0450361 -0.00997445)
(0.0115882 -0.077634 -0.0252386)
(-0.0180219 -0.0975347 -0.0390907)
(-0.0446121 -0.100362 -0.0477074)
(-0.044872 -0.0692987 -0.0368054)
(-0.0602481 -0.0517816 -0.03224)
(-0.0671357 -0.0247751 -0.0232721)
(-0.0638506 0.00753984 -0.011605)
(-0.0514972 0.0406768 0.000907896)
(-0.0316219 0.0700237 0.0127024)
(-0.00646733 0.0912842 0.0225483)
(0.0208139 0.101109 0.0295795)
(0.0463375 0.0977168 0.0332754)
(0.0660459 0.0814099 0.0333241)
(0.0764396 0.0546375 0.0293846)
(0.0752237 0.0214707 0.021023)
(0.0618805 -0.013063 0.00838657)
(0.038204 -0.0434252 -0.00673388)
(0.0085767 -0.0642212 -0.0209802)
(-0.0190072 -0.0712791 -0.0310509)
(-0.0104481 -0.0450427 -0.00907058)
(-0.024255 -0.0337452 -0.00763685)
(-0.0297553 -0.0127264 -0.00312156)
(-0.0266393 0.0145305 0.00301888)
(-0.0159647 0.0438362 0.00988357)
(0.00101512 0.0707308 0.0169688)
(0.0226311 0.0912199 0.0238072)
(0.0464493 0.102341 0.0297929)
(0.0692148 0.102513 0.0342655)
(0.0872402 0.0917735 0.0366047)
(0.0971204 0.0717957 0.0361636)
(0.0964952 0.045446 0.0322189)
(0.0846856 0.01629 0.0244737)
(0.0632605 -0.0114575 0.0140344)
(0.0364301 -0.0331388 0.00346316)
(0.0109237 -0.0447253 -0.00472501)
(0.0223146 -0.0283116 0.024567)
(0.0120999 -0.0214911 0.0241686)
(0.0083877 -0.0047004 0.0236957)
(0.0112766 0.0193711 0.0222113)
(0.0196363 0.0464875 0.0200211)
(0.0325107 0.0718989 0.0182841)
(0.0489266 0.0916272 0.0181012)
(0.0673087 0.10309 0.0199029)
(0.0851882 0.105138 0.0234286)
(0.0995026 0.0979574 0.0279428)
(0.107361 0.0828883 0.0323712)
(0.106851 0.0619529 0.0353995)
(0.0975137 0.0374557 0.035938)
(0.0805613 0.0122409 0.0339599)
(0.0592605 -0.0100015 0.0307701)
(0.0393912 -0.0253967 0.0280063)
(0.0466141 -0.0222392 0.0577587)
(0.0414748 -0.0179125 0.057299)
(0.0399501 -0.00276055 0.0525747)
(0.0428832 0.0209029 0.0432056)
(0.049035 0.0483747 0.0305449)
(0.057567 0.074068 0.0176108)
(0.0680612 0.0935807 0.00773322)
(0.0797985 0.10465 0.00312613)
(0.0912106 0.106772 0.00441387)
(0.100103 0.100572 0.0108575)
(0.104471 0.0873864 0.0207653)
(0.103253 0.0688286 0.0319235)
(0.0965309 0.0465593 0.0422262)
(0.0852067 0.0226014 0.0503969)
(0.0711625 -9.82251e-05 0.0564168)
(0.0593268 -0.0177973 0.0610688)
(0.0579859 -0.0281929 0.0841425)
(0.057954 -0.0243188 0.0846057)
(0.0585407 -0.00804828 0.076994)
(0.0616179 0.0181185 0.0611681)
(0.0660706 0.0488001 0.0388797)
(0.0709297 0.0771744 0.0146335)
(0.075896 0.0977708 -0.00569996)
(0.080889 0.108328 -0.0174844)
(0.0853144 0.109007 -0.0188132)
(0.0881252 0.101089 -0.0104411)
(0.0884791 0.0862125 0.00504721)
(0.0862789 0.0661124 0.024215)
(0.082067 0.042571 0.0437721)
(0.0763785 0.017657 0.0612838)
(0.0696841 -0.00583624 0.0756614)
(0.0656397 -0.0242531 0.0870227)
(0.0557804 -0.0458088 0.09927)
(0.0593595 -0.040042 0.100539)
(0.061217 -0.0201752 0.0913664)
(0.0639334 0.0107391 0.0713714)
(0.0669941 0.0468153 0.0419508)
(0.0692679 0.080006 0.00832517)
(0.0699499 0.103267 -0.0213346)
(0.0691284 0.113699 -0.0396281)
(0.0672747 0.111915 -0.043155)
(0.0648408 0.0999361 -0.0327698)
(0.0622293 0.0800582 -0.0121917)
(0.0599429 0.0547415 0.013738)
(0.0584422 0.026651 0.0405034)
(0.0576967 -0.00133859 0.0647828)
(0.0570006 -0.0260607 0.0847858)
(0.0581617 -0.0440026 0.100197)
(0.0424219 -0.0735127 0.101512)
(0.0475471 -0.0630923 0.103127)
(0.0493212 -0.0373377 0.0935441)
(0.0505729 -0.000173447 0.0716434)
(0.0517227 0.0422341 0.0379433)
(0.0519825 0.0811174 -0.00242353)
(0.0499618 0.107969 -0.0395887)
(0.0453806 0.118609 -0.0632161)
(0.0396191 0.113634 -0.0680346)
(0.0345015 0.0958494 -0.0552454)
(0.0311937 0.0686808 -0.0302154)
(0.0301549 0.0358175 0.00060287)
(0.0313475 0.0012339 0.0317421)
(0.0341797 -0.0310893 0.0595481)
(0.0373102 -0.0573232 0.0821223)
(0.0406535 -0.074098 0.0989024)
(0.0223375 -0.093548 0.0908244)
(0.0275822 -0.0787492 0.0928848)
(0.0277953 -0.04956 0.0843864)
(0.0256446 -0.00844065 0.0627238)
(0.0226787 0.0401931 0.0269168)
(0.0198937 0.0877267 -0.0186455)
(0.0170533 0.122233 -0.0622571)
(0.0133634 0.13435 -0.089997)
(0.00900087 0.12293 -0.0944912)
(0.0051518 0.0937539 -0.0780856)
(0.00293729 0.0547281 -0.0487642)
(0.00297544 0.0128295 -0.014827)
(0.00537131 -0.0266028 0.0177887)
(0.00961475 -0.0596532 0.0458751)
(0.0143305 -0.083381 0.0681345)
(0.0181513 -0.0958512 0.0842667)
(0.00971423 -0.130476 0.109281)
(0.0160943 -0.0993531 0.106254)
(0.018428 -0.0509736 0.0891864)
(0.019612 0.00621204 0.0584241)
(0.0200151 0.0611051 0.0182676)
(0.019131 0.102646 -0.0229745)
(0.0161591 0.123966 -0.0559574)
(0.0107039 0.124282 -0.0741601)
(0.00358925 0.10683 -0.0756758)
(-0.00332429 0.0757395 -0.0623865)
(-0.00807117 0.0348288 -0.0381612)
(-0.00942623 -0.0118025 -0.00741038)
(-0.00734259 -0.0589859 0.0256049)
(-0.00288129 -0.100433 0.0570632)
(0.00190043 -0.129505 0.0836288)
(0.00520836 -0.140751 0.102355)
(-0.0158498 -0.141627 0.0723422)
(-0.0154074 -0.107579 0.0705573)
(-0.0165825 -0.0587142 0.0587095)
(-0.015846 -0.000707805 0.0353191)
(-0.0132947 0.0573475 0.00248606)
(-0.0107099 0.104057 -0.0335531)
(-0.0101978 0.129619 -0.0641716)
(-0.0124519 0.130242 -0.082148)
(-0.0161572 0.108406 -0.0846256)
(-0.0191701 0.0697803 -0.0730885)
(-0.0199547 0.0208444 -0.0515292)
(-0.0182823 -0.0317444 -0.0246063)
(-0.0151511 -0.0812292 0.0034282)
(-0.0122602 -0.121051 0.0291876)
(-0.0115729 -0.14572 0.0502765)
(-0.0136672 -0.151637 0.0648415)
(-0.0415699 -0.155712 0.0361117)
(-0.045315 -0.117159 0.0356436)
(-0.0493749 -0.0662875 0.0282173)
(-0.0494497 -0.00800999 0.0115659)
(-0.0455873 0.0493719 -0.0134363)
(-0.0394774 0.0954949 -0.0423159)
(-0.0336391 0.120915 -0.068015)
(-0.0297922 0.121068 -0.0838865)
(-0.0277694 0.0975508 -0.0868442)
(-0.0263218 0.0560328 -0.077878)
(-0.024544 0.00380527 -0.0605123)
(-0.0225597 -0.0514364 -0.0389719)
(-0.0213534 -0.102113 -0.0170173)
(-0.0222739 -0.14128 0.00262845)
(-0.0265996 -0.163517 0.0184758)
(-0.0328798 -0.165398 0.0297567)
(-0.0651332 -0.159238 0.00165313)
(-0.0718164 -0.11856 0.00298675)
(-0.0777185 -0.0681995 7.56808e-05)
(-0.0776757 -0.0120434 -0.00963808)
(-0.0719114 0.0425642 -0.0262099)
(-0.0619443 0.086384 -0.0467698)
(-0.0504093 0.110591 -0.0660794)
(-0.0399565 0.110135 -0.0787015)
(-0.0319144 0.0857633 -0.0816596)
(-0.0263438 0.042976 -0.0753916)
(-0.0230358 -0.0103622 -0.0627305)
(-0.0221815 -0.0658141 -0.0472928)
(-0.0243339 -0.115329 -0.0322281)
(-0.0301266 -0.151942 -0.0194771)
(-0.0399493 -0.170657 -0.00946733)
(-0.0498797 -0.168433 -0.00161005)
(-0.0835505 -0.154106 -0.0279983)
(-0.0920499 -0.113606 -0.0246842)
(-0.0987384 -0.0655427 -0.0232018)
(-0.0977062 -0.0131122 -0.0259952)
(-0.0894912 0.0372341 -0.0339096)
(-0.0756285 0.077439 -0.0456392)
(-0.0588661 0.0996135 -0.0578237)
(-0.0425393 0.0987306 -0.0664389)
(-0.0292537 0.0748452 -0.0688612)
(-0.0203351 0.0329279 -0.0650532)
(-0.0162727 -0.0191666 -0.0571217)
(-0.0172623 -0.0727598 -0.0480096)
(-0.0233135 -0.119668 -0.0401899)
(-0.0342232 -0.153072 -0.03474)
(-0.0494082 -0.168414 -0.0309885)
(-0.0625668 -0.163009 -0.0269316)
(-0.0939148 -0.141594 -0.0496608)
(-0.103332 -0.10357 -0.044731)
(-0.109921 -0.0592621 -0.0395561)
(-0.107488 -0.0116148 -0.0361794)
(-0.096862 0.0336941 -0.0360679)
(-0.0796484 0.0697436 -0.0392657)
(-0.0586836 0.0897096 -0.044186)
(-0.0377388 0.0889279 -0.0483185)
(-0.0203608 0.0669419 -0.0496446)
(-0.00895149 0.0278944 -0.0478228)
(-0.00466374 -0.020922 -0.044248)
(-0.00772809 -0.0710764 -0.0411369)
(-0.0176303 -0.11455 -0.0402525)
(-0.0332958 -0.14477 -0.0418196)
(-0.0531323 -0.157523 -0.0441932)
(-0.0691133 -0.150413 -0.0442352)
(-0.0939981 -0.123123 -0.060655)
(-0.103706 -0.0895807 -0.0551408)
(-0.10952 -0.0501525 -0.0476705)
(-0.105727 -0.00789593 -0.039837)
(-0.0933025 0.0322011 -0.0334521)
(-0.0738577 0.0642435 -0.0295305)
(-0.0501918 0.0824142 -0.0279264)
(-0.0262213 0.0825067 -0.0275719)
(-0.00606612 0.0636874 -0.027259)
(0.00703393 0.0290889 -0.0265962)
(0.0113017 -0.0149006 -0.0263722)
(0.00637504 -0.0605077 -0.0281119)
(-0.0068176 -0.100145 -0.0329097)
(-0.026369 -0.127601 -0.0402766)
(-0.0496872 -0.138907 -0.0478843)
(-0.068059 -0.13187 -0.0520079)
(-0.0827118 -0.100673 -0.0589417)
(-0.0922385 -0.0729283 -0.0543751)
(-0.0968162 -0.0390733 -0.0466565)
(-0.0920456 -0.0024098 -0.0370769)
(-0.0788838 0.0326512 -0.0274559)
(-0.0587957 0.0611078 -0.0192153)
(-0.0343333 0.0780326 -0.0130605)
(-0.00920888 0.0797307 -0.0090096)
(0.0122449 0.0650198 -0.00667913)
(0.0262353 0.0360845 -0.00590122)
(0.0304381 -0.00189625 -0.00717305)
(0.0242232 -0.0421452 -0.0115182)
(0.00877453 -0.0777827 -0.0195709)
(-0.0133048 -0.103076 -0.0304282)
(-0.0385117 -0.114217 -0.0414474)
(-0.0585524 -0.109077 -0.048986)
(-0.0606805 -0.0766999 -0.0434873)
(-0.0694236 -0.0550719 -0.0413882)
(-0.072454 -0.0268954 -0.0357933)
(-0.0672594 0.00441579 -0.0278783)
(-0.0546635 0.0348846 -0.0190854)
(-0.0358116 0.0601882 -0.0105801)
(-0.0127334 0.0761738 -0.00314863)
(0.0113391 0.0797021 0.00276762)
(0.0323262 0.0694649 0.0069785)
(0.0462471 0.0468272 0.0092635)
(0.0502963 0.0156238 0.00903581)
(0.043584 -0.0186671 0.00533959)
(0.0273616 -0.0502008 -0.00240461)
(0.0046501 -0.0738554 -0.0133172)
(-0.0204176 -0.085944 -0.0249182)
(-0.0407323 -0.0842361 -0.0341984)
(-0.0307385 -0.0541084 -0.0150026)
(-0.0376809 -0.0377796 -0.0161231)
(-0.0389205 -0.0145691 -0.0147629)
(-0.0337666 0.0122766 -0.011996)
(-0.0229656 0.0389851 -0.00844525)
(-0.00723009 0.061597 -0.00430837)
(0.0121622 0.0766008 0.000364932)
(0.0328064 0.0814801 0.00544104)
(0.0512312 0.075173 0.0106339)
(0.0636598 0.0584588 0.0153927)
(0.0671788 0.0339954 0.0187282)
(0.0607385 0.00579116 0.0192757)
(0.0455131 -0.0216328 0.0159975)
(0.024535 -0.0439592 0.00919391)
(0.00203217 -0.0576366 0.00066181)
(-0.0162375 -0.0601947 -0.0075252)
(0.00196962 -0.0362853 0.0230825)
(-0.00173619 -0.023501 0.0193266)
(-0.000915807 -0.0035327 0.0152594)
(0.00403497 0.020664 0.0101429)
(0.0122379 0.0451179 0.00460671)
(0.0233987 0.0658127 0.000134498)
(0.0371376 0.0796879 -0.00181223)
(0.0520996 0.0849668 -0.000389255)
(0.06573 0.081104 0.00446815)
(0.0749036 0.0687431 0.0120119)
(0.0770807 0.0496803 0.0206817)
(0.071347 0.026597 0.0283674)
(0.0587622 0.00268197 0.033172)
(0.0419341 -0.0186282 0.0343603)
(0.0244944 -0.0339926 0.0326267)
(0.0112176 -0.0406533 0.0290659)
(0.0308024 -0.0268167 0.0641509)
(0.031628 -0.0154873 0.0594736)
(0.0347381 0.00385013 0.0501366)
(0.0397106 0.0282208 0.0359927)
(0.0452825 0.0528775 0.0191137)
(0.0513254 0.07313 0.00319919)
(0.0582886 0.0860758 -0.00806293)
(0.0659736 0.0907494 -0.0122954)
(0.0729959 0.0874003 -0.00881167)
(0.077288 0.0768955 0.00145905)
(0.0771552 0.0605562 0.0162428)
(0.0721495 0.0401526 0.032501)
(0.0632535 0.0179413 0.0472962)
(0.0523226 -0.00326106 0.0586841)
(0.041745 -0.0202514 0.066138)
(0.0357622 -0.0299798 0.0699287)
(0.0497352 -0.0284319 0.0997357)
(0.0553031 -0.0167704 0.0958086)
(0.0605593 0.00476078 0.082561)
(0.0658869 0.0326436 0.0603568)
(0.069591 0.0607816 0.0323069)
(0.0711921 0.0830125 0.00436051)
(0.0715328 0.0960086 -0.0170354)
(0.0715162 0.0995164 -0.0275339)
(0.0711571 0.0947839 -0.025733)
(0.0697883 0.0832119 -0.0128782)
(0.0668726 0.0660707 0.00787934)
(0.0625651 0.0448082 0.0324646)
(0.0576879 0.0214106 0.0568821)
(0.0531503 -0.00138627 0.0780856)
(0.0497567 -0.0202593 0.094519)
(0.0511009 -0.0317907 0.105869)
(0.0557671 -0.0421054 0.122519)
(0.0647395 -0.0285848 0.119929)
(0.0712916 -0.00256591 0.104622)
(0.0768814 0.0315686 0.0770553)
(0.079763 0.0662503 0.0404924)
(0.0786009 0.0932261 0.00238347)
(0.0737368 0.10786 -0.0280283)
(0.066867 0.110279 -0.0441221)
(0.0596935 0.102769 -0.0437028)
(0.0532596 0.0874927 -0.0285027)
(0.0482052 0.066108 -0.0027252)
(0.0450214 0.0403763 0.0284589)
(0.0440436 0.0127266 0.0601342)
(0.04513 -0.0135925 0.0884744)
(0.0475989 -0.0348269 0.111228)
(0.0537777 -0.0472126 0.127691)
(0.0496731 -0.0667275 0.12917)
(0.0598889 -0.0495042 0.127567)
(0.0662892 -0.0173282 0.111897)
(0.071164 0.0243503 0.0821608)
(0.0734609 0.066906 0.0409159)
(0.0712064 0.100254 -0.00413545)
(0.0635196 0.117902 -0.0415738)
(0.0521848 0.119648 -0.062046)
(0.0404676 0.108609 -0.0623047)
(0.031078 0.0879022 -0.0448707)
(0.0254412 0.0599802 -0.0153698)
(0.0238969 0.0273911 0.0199138)
(0.0260723 -0.00654796 0.0554685)
(0.0309877 -0.0376983 0.0872445)
(0.0370241 -0.0616033 0.1128)
(0.0447957 -0.0742189 0.131146)
(0.0349182 -0.0858203 0.119346)
(0.0445446 -0.0661596 0.11856)
(0.049105 -0.0309699 0.104339)
(0.0510841 0.0159543 0.0752958)
(0.050902 0.0673441 0.032477)
(0.047938 0.111472 -0.0166907)
(0.0411357 0.136645 -0.0588129)
(0.0308829 0.138317 -0.0817528)
(0.0196463 0.120049 -0.081421)
(0.0103874 0.0885447 -0.0616138)
(0.0050372 0.0499101 -0.0296877)
(0.00415401 0.00910744 0.00709228)
(0.0073187 -0.0294602 0.0430336)
(0.0134302 -0.0617748 0.0744577)
(0.020644 -0.0842606 0.0993291)
(0.0280595 -0.0942114 0.116813)
(0.0331434 -0.0971394 0.122784)
(0.0448109 -0.0670378 0.117674)
(0.050929 -0.0211574 0.0975598)
(0.0538608 0.0318857 0.0644435)
(0.0532816 0.0803633 0.0232647)
(0.0485351 0.113276 -0.0176859)
(0.0394432 0.125452 -0.0494873)
(0.0269528 0.118593 -0.0660143)
(0.0134032 0.097565 -0.065482)
(0.00177858 0.0668326 -0.0498148)
(-0.00542181 0.0296794 -0.0230584)
(-0.00692916 -0.0107536 0.0100548)
(-0.00292746 -0.0504364 0.0449267)
(0.00512392 -0.0843227 0.0774881)
(0.0146499 -0.106959 0.104217)
(0.0242963 -0.113675 0.122141)
(0.0114747 -0.108741 0.0845973)
(0.0171407 -0.0765755 0.0811265)
(0.0204308 -0.0298348 0.0669421)
(0.0239647 0.0252948 0.0417711)
(0.0267638 0.0787434 0.00813303)
(0.026426 0.118341 -0.0276708)
(0.0212766 0.135281 -0.0570709)
(0.012103 0.128471 -0.073061)
(0.00182697 0.102638 -0.0731343)
(-0.0063086 0.0640996 -0.0591732)
(-0.0102214 0.0187206 -0.0355062)
(-0.00951541 -0.0279892 -0.00702829)
(-0.00529528 -0.0705188 0.0218812)
(0.000434964 -0.103563 0.0478094)
(0.00524445 -0.122751 0.0682988)
(0.00814954 -0.125279 0.0814984)
(-0.0120155 -0.122569 0.0465502)
(-0.0113316 -0.0871075 0.0438987)
(-0.0110334 -0.0393038 0.0341372)
(-0.00816945 0.0155077 0.0159805)
(-0.00343634 0.0685172 -0.00942492)
(0.000772579 0.108748 -0.0376362)
(0.00192299 0.12712 -0.0617116)
(-0.000655372 0.120856 -0.0752956)
(-0.00524529 0.0935105 -0.07572)
(-0.0092887 0.0516304 -0.0644255)
(-0.0111279 0.00229965 -0.0452424)
(-0.0105998 -0.0475798 -0.0225431)
(-0.0087588 -0.0914839 -0.000129119)
(-0.00724273 -0.123755 0.0192582)
(-0.0077122 -0.140355 0.0340454)
(-0.00995963 -0.139222 0.0433688)
(-0.0363298 -0.128357 0.00945402)
(-0.0392503 -0.0912556 0.00791859)
(-0.0410047 -0.0446052 0.00249034)
(-0.0382359 0.0074692 -0.00874606)
(-0.0315074 0.0575824 -0.0256106)
(-0.0228732 0.0961449 -0.0452641)
(-0.0152097 0.11438 -0.0626773)
(-0.0105416 0.108282 -0.0727759)
(-0.00887591 0.080174 -0.0730548)
(-0.0089267 0.0365837 -0.0643951)
(-0.00958102 -0.0144396 -0.0499107)
(-0.0106148 -0.0648898 -0.0333481)
(-0.0125526 -0.107597 -0.0179139)
(-0.0162169 -0.136952 -0.00560715)
(-0.0222654 -0.149618 0.00304373)
(-0.0286693 -0.144438 0.0085311)
(-0.0589166 -0.127052 -0.0236287)
(-0.0638791 -0.0899398 -0.0236786)
(-0.0666018 -0.0460313 -0.0248833)
(-0.0631049 0.0016329 -0.0293956)
(-0.0540627 0.0469588 -0.0378436)
(-0.0413666 0.0818401 -0.0488524)
(-0.027962 0.0983988 -0.0592227)
(-0.0168216 0.0922351 -0.0652818)
(-0.00954527 0.0645906 -0.0648834)
(-0.00624675 0.0215026 -0.0584427)
(-0.0064578 -0.0286668 -0.0483816)
(-0.00980846 -0.0773422 -0.0378484)
(-0.0160859 -0.117086 -0.0294564)
(-0.0250974 -0.142539 -0.0244237)
(-0.0364313 -0.151101 -0.0221391)
(-0.0460045 -0.142345 -0.0205345)
(-0.0766699 -0.119417 -0.0494049)
(-0.0821723 -0.0840997 -0.0479112)
(-0.0848714 -0.0441852 -0.0454486)
(-0.0801698 -0.00198016 -0.0440088)
(-0.0689118 0.0374889 -0.044854)
(-0.0528709 0.0675893 -0.047854)
(-0.0349855 0.0816584 -0.0514298)
(-0.0187989 0.0755101 -0.0532864)
(-0.00714314 0.0496145 -0.0517962)
(-0.00141328 0.00915309 -0.0470633)
(-0.00180151 -0.0378817 -0.0408805)
(-0.00778835 -0.0829411 -0.0358062)
(-0.0183604 -0.118671 -0.033905)
(-0.032236 -0.140064 -0.0356362)
(-0.047996 -0.14511 -0.03936)
(-0.0597686 -0.133873 -0.0416074)
(-0.0864947 -0.106312 -0.0648173)
(-0.0913643 -0.0745329 -0.0623226)
(-0.0932393 -0.0395259 -0.0573777)
(-0.0872439 -0.00328297 -0.0515791)
(-0.0743295 0.0300915 -0.0465726)
(-0.0561291 0.0552675 -0.0431283)
(-0.0354382 0.0668307 -0.0409316)
(-0.016019 0.0611166 -0.0388981)
(-0.00150143 0.0381034 -0.0360276)
(0.0056839 0.00194627 -0.0322978)
(0.00471681 -0.0402278 -0.0289926)
(-0.00378217 -0.0804324 -0.0281519)
(-0.0180589 -0.11172 -0.0313557)
(-0.0357969 -0.129502 -0.0384681)
(-0.0546817 -0.132149 -0.0471251)
(-0.0677733 -0.119922 -0.0529892)
(-0.0859119 -0.0890658 -0.0672879)
(-0.0894023 -0.0621119 -0.0650102)
(-0.0898774 -0.0324737 -0.0594393)
(-0.0828755 -0.0021656 -0.0517837)
(-0.0693188 0.0254269 -0.043759)
(-0.0505834 0.0460991 -0.0365497)
(-0.0291206 0.0555812 -0.0305673)
(-0.00854548 0.0508619 -0.0255667)
(0.00715611 0.0316245 -0.0211715)
(0.0148412 0.000993282 -0.0174004)
(0.0131409 -0.0351249 -0.0153169)
(0.00267611 -0.0697535 -0.0166146)
(-0.0142165 -0.0966512 -0.0225725)
(-0.0343566 -0.111673 -0.0327314)
(-0.0546881 -0.11333 -0.0444471)
(-0.0682077 -0.101783 -0.0532815)
(-0.0738173 -0.0694108 -0.0550931)
(-0.0754827 -0.0477271 -0.0546311)
(-0.0741954 -0.0233434 -0.0507524)
(-0.0667409 0.00154636 -0.0444569)
(-0.0538715 0.024065 -0.0371604)
(-0.0365374 0.0408801 -0.0298737)
(-0.016604 0.0487337 -0.0230506)
(0.00280924 0.0453396 -0.0167528)
(0.0178345 0.0303169 -0.0109369)
(0.0250219 0.00585744 -0.00592541)
(0.0225858 -0.0235581 -0.0028257)
(0.011065 -0.0523156 -0.00335649)
(-0.00687397 -0.0751485 -0.00880898)
(-0.0275064 -0.0883842 -0.0187899)
(-0.0472678 -0.0904477 -0.0308753)
(-0.0600468 -0.0811305 -0.0413146)
(-0.051176 -0.0494911 -0.0280935)
(-0.0505628 -0.0324075 -0.0307369)
(-0.0473092 -0.0124227 -0.0308423)
(-0.0399884 0.00813684 -0.0293427)
(-0.0291766 0.0266333 -0.0269481)
(-0.0152612 0.0402961 -0.0238158)
(0.000737239 0.0467428 -0.0197127)
(0.0165369 0.044489 -0.014354)
(0.0288267 0.0333719 -0.0077201)
(0.0343161 0.0148706 -0.00042818)
(0.0311175 -0.00794717 0.00602292)
(0.019661 -0.0310347 0.00950786)
(0.00260431 -0.050311 0.00831347)
(-0.0162385 -0.0626002 0.00230637)
(-0.0331607 -0.0661071 -0.00680681)
(-0.0434646 -0.0601007 -0.0165125)
(-0.0214398 -0.0320247 0.0111514)
(-0.0177928 -0.0177831 0.00524008)
(-0.0124035 -0.000437348 -0.000457874)
(-0.00557987 0.0176462 -0.00672977)
(0.00210026 0.0336529 -0.013098)
(0.0108732 0.045009 -0.0181476)
(0.020774 0.0500666 -0.0202396)
(0.0306379 0.048245 -0.0181684)
(0.038098 0.0398588 -0.011621)
(0.0405237 0.0260156 -0.00147152)
(0.0363427 0.00860447 0.0101722)
(0.0259672 -0.00982585 0.0204678)
(0.01176 -0.0264036 0.0269383)
(-0.00291906 -0.0384338 0.0285341)
(-0.0147707 -0.0438848 0.0258559)
(-0.0203235 -0.0414873 0.0200313)
(0.00963203 -0.0203305 0.0564221)
(0.0172546 -0.00663586 0.0485739)
(0.0249616 0.0107162 0.0369944)
(0.0314019 0.0291239 0.0213096)
(0.0356095 0.0449646 0.00354669)
(0.038299 0.0553048 -0.0126347)
(0.040655 0.0590672 -0.0235036)
(0.042854 0.0566971 -0.0264907)
(0.0437982 0.04924 -0.0208162)
(0.0419413 0.0377648 -0.0076526)
(0.0364217 0.0233728 0.01014)
(0.027785 0.00748912 0.0288387)
(0.0179162 -0.00794413 0.0450241)
(0.00925103 -0.0205836 0.0565439)
(0.00408987 -0.0281476 0.0627923)
(0.00535336 -0.0288568 0.0638177)
(0.03532 -0.0176361 0.0983989)
(0.0472973 -0.00260997 0.0907334)
(0.0573065 0.0177329 0.0745645)
(0.0639496 0.0400539 0.0499909)
(0.0654373 0.0590636 0.0204474)
(0.0624111 0.0705607 -0.00785138)
(0.0570209 0.0736463 -0.028503)
(0.0509365 0.0698821 -0.0372269)
(0.0446222 0.0613065 -0.0327632)
(0.0379209 0.0493 -0.0167218)
(0.0309037 0.0346611 0.00716601)
(0.0243047 0.0182624 0.0342241)
(0.0194014 0.00162128 0.0600787)
(0.0174207 -0.0129836 0.0815417)
(0.0192463 -0.0229501 0.0970017)
(0.0277076 -0.0259553 0.10594)
(0.0505255 -0.0258964 0.127848)
(0.0658552 -0.00856255 0.12185)
(0.0774882 0.0170958 0.103346)
(0.0848917 0.0466304 0.0726627)
(0.0853848 0.0724909 0.0337353)
(0.0785428 0.0880538 -0.00522215)
(0.0667013 0.0917896 -0.0348984)
(0.0530569 0.0863244 -0.0489323)
(0.0399999 0.0749214 -0.0455677)
(0.0289623 0.0596112 -0.0270301)
(0.0208935 0.0413886 0.00193644)
(0.0165234 0.0211922 0.0356939)
(0.016345 0.000678008 0.0690487)
(0.0202973 -0.0175846 0.0980605)
(0.0277619 -0.0305355 0.120485)
(0.0412173 -0.0352575 0.135576)
(0.0538654 -0.0448183 0.139865)
(0.0703743 -0.0245109 0.135645)
(0.0820972 0.00749976 0.116881)
(0.0898455 0.0456682 0.08383)
(0.0908718 0.0805503 0.0397409)
(0.0831045 0.102677 -0.00664947)
(0.0677266 0.108772 -0.0434133)
(0.0488983 0.101972 -0.0616014)
(0.0310633 0.0868587 -0.0588082)
(0.0172573 0.0664417 -0.0381998)
(0.00902818 0.042321 -0.00576697)
(0.00679869 0.0159436 0.0319749)
(0.0101973 -0.0104812 0.0693601)
(0.0181199 -0.0337679 0.102208)
(0.0288021 -0.0502189 0.128051)
(0.0436663 -0.0563128 0.145946)
(0.0471287 -0.0627859 0.134019)
(0.0625228 -0.0413323 0.131139)
(0.0724239 -0.00578644 0.113726)
(0.078556 0.0397995 0.0813764)
(0.0795078 0.0864534 0.0360271)
(0.0733338 0.12113 -0.0138553)
(0.0596105 0.134214 -0.0544651)
(0.0410985 0.125928 -0.0745854)
(0.0224848 0.103103 -0.0714487)
(0.00787536 0.0725807 -0.049387)
(-0.000438564 0.0388085 -0.0155821)
(-0.00195988 0.00479863 0.0229265)
(0.00258053 -0.0266068 0.0605081)
(0.0116204 -0.0523788 0.0932606)
(0.0228845 -0.0694423 0.118902)
(0.0364144 -0.0750874 0.136429)
(0.0537931 -0.0476064 0.126652)
(0.071165 -0.0217444 0.12125)
(0.0809478 0.0152411 0.100918)
(0.0852642 0.0567325 0.0683838)
(0.0828203 0.0924238 0.0286014)
(0.0730162 0.112663 -0.0106778)
(0.0567069 0.114285 -0.0410549)
(0.0365197 0.100954 -0.0565622)
(0.0163705 0.0785041 -0.0552673)
(0.000238816 0.0513797 -0.038963)
(-0.00900118 0.0222714 -0.0117221)
(-0.0101456 -0.00669784 0.0215901)
(-0.003635 -0.033001 0.056268)
(0.00867453 -0.0535766 0.0882547)
(0.0236952 -0.0652296 0.114246)
(0.0414483 -0.0650049 0.131592)
(0.0398071 -0.0598684 0.0911474)
(0.0517049 -0.032307 0.0876328)
(0.0592381 0.00693263 0.0730402)
(0.0646838 0.0525072 0.0482514)
(0.0662068 0.0949459 0.0158337)
(0.0612178 0.122737 -0.0182681)
(0.0490741 0.129036 -0.045802)
(0.0323035 0.115339 -0.0600595)
(0.0153273 0.0879256 -0.0587925)
(0.00226225 0.0531444 -0.0440607)
(-0.00441611 0.0159389 -0.0202284)
(-0.0041997 -0.0196002 0.00787083)
(0.00177589 -0.0497096 0.0359843)
(0.0112666 -0.0710893 0.0608903)
(0.0213688 -0.0812687 0.0803108)
(0.0318813 -0.0785962 0.0925103)
(0.0210855 -0.0736203 0.0531557)
(0.0272774 -0.0440904 0.049974)
(0.0316956 -0.00419621 0.0396203)
(0.0366477 0.0414336 0.0219842)
(0.0408151 0.0846221 -0.00172733)
(0.0414591 0.114867 -0.0275183)
(0.0365135 0.124227 -0.0489223)
(0.0267024 0.111851 -0.0600601)
(0.0153075 0.0828363 -0.0586507)
(0.00595675 0.0441347 -0.04639)
(0.00088514 0.00224784 -0.0271556)
(0.000492419 -0.0371472 -0.00522166)
(0.00372079 -0.069231 0.0157867)
(0.00868411 -0.0904177 0.0333952)
(0.0132342 -0.0986864 0.046197)
(0.0174525 -0.0933826 0.0532791)
(-0.00188959 -0.0818191 0.0149629)
(-0.000340054 -0.0513174 0.0120388)
(0.00166256 -0.0126913 0.00571463)
(0.00631212 0.0303892 -0.00500073)
(0.0127202 0.0713066 -0.0198749)
(0.0185573 0.101014 -0.0365495)
(0.0211154 0.11144 -0.0506065)
(0.0192869 0.0999169 -0.0575846)
(0.0144264 0.0701198 -0.0554822)
(0.00899343 0.0292217 -0.0454939)
(0.00483492 -0.0149873 -0.0308309)
(0.00252992 -0.0555185 -0.0151762)
(0.00161944 -0.0868432 -0.00156921)
(0.00107855 -0.105491 0.00827805)
(-0.000167706 -0.110259 0.0140447)
(-0.00116987 -0.101667 0.0161668)
(-0.0270557 -0.0843548 -0.0203)
(-0.0284216 -0.0539278 -0.0225137)
(-0.0277063 -0.0181394 -0.0248489)
(-0.0226558 0.0204094 -0.028962)
(-0.0140068 0.0565343 -0.035498)
(-0.00372825 0.082855 -0.0434337)
(0.00532827 0.0921259 -0.050152)
(0.0107805 0.0809076 -0.052645)
(0.0120549 0.0515619 -0.0493579)
(0.010101 0.0108545 -0.0411029)
(0.0061856 -0.0328638 -0.0304971)
(0.00119422 -0.0718318 -0.020726)
(-0.00444242 -0.100215 -0.0143156)
(-0.0106198 -0.114874 -0.012191)
(-0.0172362 -0.115496 -0.0134142)
(-0.0220483 -0.10365 -0.0158164)
(-0.0512527 -0.0815714 -0.0493651)
(-0.0535007 -0.0525526 -0.0504027)
(-0.0529619 -0.0208872 -0.0491217)
(-0.0469174 0.0118003 -0.0474409)
(-0.0361402 0.0415824 -0.0466845)
(-0.0223507 0.0627402 -0.0469396)
(-0.00835111 0.0693765 -0.0470462)
(0.00273447 0.0581654 -0.0452757)
(0.00880751 0.030533 -0.0405861)
(0.00935052 -0.0076297 -0.0335523)
(0.00500077 -0.0482247 -0.0263117)
(-0.00303793 -0.0834087 -0.0216331)
(-0.0133222 -0.107432 -0.0215989)
(-0.0245081 -0.117578 -0.0263936)
(-0.0354758 -0.11428 -0.0338903)
(-0.0425548 -0.0998723 -0.0401749)
(-0.0706631 -0.0739294 -0.0690788)
(-0.0719157 -0.0478103 -0.0688934)
(-0.0705736 -0.0211794 -0.0649328)
(-0.0632466 0.00501663 -0.0589638)
(-0.050803 0.0279445 -0.0527431)
(-0.0347693 0.0433955 -0.0471401)
(-0.01777 0.0469324 -0.0420441)
(-0.00322588 0.0358404 -0.0367155)
(0.00578879 0.0110075 -0.0306081)
(0.00759968 -0.0227368 -0.0242281)
(0.00226361 -0.058204 -0.0193532)