/*--------------------------------*- C++ -*----------------------------------*\
| =========                 |                                                 |
| \\      /  F ield         | OpenFOAM: The Open Source CFD Toolbox           |
|  \\    /   O peration     | Version:  3.0.0                                 |
|   \\  /    A nd           | Web:      www.OpenFOAM.org                      |
|    \\/     M anipulation  |                                                 |
\*---------------------------------------------------------------------------*/
FoamFile
{
    version     2.0;
    format      ascii;
    class       volScalarField;
    location    "8.75";
    object      p;
}
// * * * * * * * * * * * * * * * * * * * * * * * * * * * * * * * * * * * * * //

dimensions      [0 2 -2 0 0 0 0];

internalField   nonuniform List<scalar> 
4096
(
0.00413017
-0.0124298
-0.0212417
-0.02727
-0.0309316
-0.0335044
-0.0357678
-0.0363176
-0.0331154
-0.0252639
-0.0137258
-0.00108364
0.00942562
0.0149208
0.0141972
0.0133583
0.0261571
0.00952078
0.00354043
-0.00209428
-0.00798483
-0.014614
-0.0218219
-0.0272232
-0.0278187
-0.0218536
-0.00994967
0.00487122
0.0183529
0.0266683
0.0284796
0.0342874
0.0547147
0.035436
0.0306915
0.0248295
0.0174945
0.0087822
-0.000944132
-0.00970668
-0.0141217
-0.0113974
-0.000787944
0.0150144
0.0314949
0.0432515
0.0483308
0.0617271
0.0730979
0.0527207
0.0503349
0.0459429
0.0392591
0.0307153
0.020514
0.010194
0.00264694
0.00115301
0.00784466
0.021701
0.0385934
0.0518504
0.0590048
0.0784721
0.0772976
0.0584182
0.0589255
0.0572699
0.0531613
0.0467721
0.03809
0.0279301
0.0183413
0.0124937
0.0138393
0.0232387
0.0379709
0.0505609
0.0582428
0.0803475
0.0678187
0.0527643
0.056107
0.0575524
0.057262
0.0545835
0.0491241
0.0408545
0.0307478
0.0214871
0.0172539
0.020877
0.0308472
0.0409261
0.0475192
0.0678742
0.0478219
0.0379784
0.0432743
0.0482351
0.0518382
0.0538572
0.0528561
0.047995
0.0390293
0.0278743
0.0189162
0.0163368
0.02031
0.0261472
0.0301557
0.0446967
0.0222288
0.0174234
0.0235017
0.0311459
0.038719
0.04541
0.0496091
0.0491398
0.0426562
0.0312704
0.0191957
0.0113042
0.00919748
0.00999067
0.0104958
0.0170725
-0.00334411
-0.00525243
0.000817068
0.0100621
0.0206297
0.0314296
0.0404533
0.0446414
0.0414739
0.0312687
0.0179719
0.00663817
-0.000291915
-0.00420703
-0.00734967
-0.00758493
-0.0240764
-0.0266914
-0.021071
-0.0113288
0.000822266
0.0144525
0.0273392
0.0356584
0.0359915
0.0280957
0.0155105
0.00300098
-0.00671927
-0.0141675
-0.0206968
-0.023841
-0.0383474
-0.0448701
-0.0399732
-0.0305297
-0.0179732
-0.00317211
0.0121904
0.0236211
0.0273072
0.0225138
0.0121866
0.000479834
-0.0100584
-0.0197145
-0.0293537
-0.0319651
-0.0482357
-0.0592348
-0.0551808
-0.0464075
-0.0341627
-0.0193455
-0.00343283
0.00965722
0.0161021
0.0147336
0.00763509
-0.00198502
-0.0120585
-0.0227993
-0.0350616
-0.0372933
-0.0546527
-0.0679979
-0.0656867
-0.0580283
-0.0466542
-0.0330049
-0.0183762
-0.00533581
0.0028364
0.00466824
0.00119835
-0.00554348
-0.01425
-0.0250903
-0.0383966
-0.0418999
-0.0563223
-0.0695929
-0.0695934
-0.0637499
-0.0541454
-0.0430098
-0.0313483
-0.0201591
-0.0115606
-0.00709147
-0.00680333
-0.0100215
-0.0162041
-0.0256453
-0.0381214
-0.0439357
-0.0499873
-0.0621081
-0.0644111
-0.0610947
-0.0543893
-0.0470233
-0.0397925
-0.0321491
-0.0245729
-0.018249
-0.0141758
-0.01302
-0.0153015
-0.0215946
-0.0315714
-0.0390608
-0.0249783
-0.0388957
-0.0451833
-0.0464154
-0.0442679
-0.041548
-0.0392997
-0.0363177
-0.0313159
-0.0240151
-0.0157669
-0.00833592
-0.00376881
-0.00382642
-0.00904964
-0.0153396
0.0129385
-0.00439594
-0.0119153
-0.0172117
-0.0203499
-0.0222801
-0.0239742
-0.0243942
-0.0217124
-0.0147404
-0.00429567
0.00707588
0.0163765
0.0210398
0.0203215
0.0224219
0.0444232
0.0258731
0.019458
0.0126271
0.00569967
-0.00114352
-0.0077969
-0.0126467
-0.0131143
-0.00759177
0.00350529
0.0174633
0.0305229
0.0390979
0.0421394
0.0521259
0.0745862
0.0547433
0.049411
0.041827
0.0326028
0.022612
0.0125039
0.00412493
0.000282075
0.00332719
0.0136906
0.0289955
0.0449099
0.0567473
0.06313
0.0801138
0.0906487
0.072018
0.0692259
0.0630657
0.0540673
0.043486
0.0320485
0.0214488
0.0143489
0.0136032
0.0208075
0.034533
0.0509887
0.0640432
0.0724131
0.0939047
0.0891581
0.0741679
0.0747918
0.0718871
0.0655896
0.0570706
0.0467957
0.0359189
0.0265279
0.0215781
0.0238447
0.0335516
0.0473393
0.0594178
0.0678728
0.0901419
0.071498
0.0616056
0.0656126
0.0667677
0.0649724
0.0606478
0.053823
0.0447858
0.0347316
0.0263169
0.0231363
0.027081
0.0360219
0.0448568
0.051401
0.0703926
0.0427494
0.0379677
0.0444413
0.0497258
0.0530117
0.0539945
0.052162
0.0465672
0.0374181
0.0269161
0.0190871
0.0170325
0.0200461
0.0241666
0.0272635
0.0397422
0.0101259
0.00903016
0.0166049
0.0251312
0.0330825
0.0396154
0.0430142
0.0415095
0.0342415
0.0230118
0.0120804
0.00523077
0.00279312
0.00201136
0.00109728
0.00575764
-0.019513
-0.019444
-0.0117108
-0.00130756
0.0102152
0.0212186
0.0292234
0.0314466
0.0264283
0.0155348
0.00321303
-0.00649969
-0.0126971
-0.0173002
-0.0217062
-0.0234081
-0.0418381
-0.0432017
-0.0363673
-0.0251502
-0.0115082
0.00251548
0.0137583
0.0188578
0.0160327
0.00660864
-0.00543024
-0.0160322
-0.0240138
-0.0308964
-0.0378377
-0.042139
-0.0563668
-0.061391
-0.0554981
-0.0444573
-0.0299078
-0.0142155
-0.00125052
0.0057534
0.00512356
-0.00195124
-0.0120754
-0.0219496
-0.0302742
-0.0383605
-0.0472915
-0.051293
-0.0652946
-0.0739948
-0.0694997
-0.0591771
-0.0444931
-0.0284103
-0.0148639
-0.00682127
-0.00537792
-0.00950493
-0.0167548
-0.0247752
-0.0326777
-0.0415357
-0.0519684
-0.0553481
-0.0698134
-0.0801658
-0.0776624
-0.0686059
-0.0546297
-0.0393009
-0.0264592
-0.0182601
-0.0151015
-0.0161566
-0.0200368
-0.0255874
-0.032468
-0.0414413
-0.0527155
-0.0576154
-0.0674568
-0.0777375
-0.0775855
-0.0706345
-0.058728
-0.0456851
-0.0349083
-0.0275659
-0.023348
-0.0216178
-0.0219785
-0.0244415
-0.0293413
-0.037254
-0.0479361
-0.055103
-0.0543396
-0.064495
-0.0666597
-0.06277
-0.0545519
-0.0454386
-0.0381001
-0.0327567
-0.0284173
-0.024483
-0.0213137
-0.0199331
-0.0214425
-0.0266153
-0.0351197
-0.0428623
-0.024541
-0.0372023
-0.0424351
-0.0429873
-0.040103
-0.0362785
-0.0333519
-0.0308211
-0.0270494
-0.0211551
-0.0139347
-0.00733109
-0.00348313
-0.00399013
-0.00894057
-0.0141579
0.0243356
0.00767083
0.000850452
-0.00472993
-0.00864781
-0.0112335
-0.0130484
-0.0134766
-0.0107481
-0.00404977
0.00563574
0.0159161
0.0242315
0.0284822
0.0282941
0.0326474
0.0590348
0.0409404
0.033869
0.0257398
0.0175658
0.00999015
0.00330216
-0.00116107
-0.00139601
0.00409799
0.0147801
0.0281593
0.0409295
0.0498568
0.0540593
0.0654562
0.0866792
0.0690106
0.0627523
0.0537666
0.0431832
0.0324191
0.0222673
0.0143732
0.0110625
0.0142482
0.0240851
0.0384891
0.0538461
0.0660991
0.0739126
0.0908689
0.0985888
0.0839612
0.0800531
0.0723704
0.0620545
0.0506187
0.0390232
0.0288747
0.022439
0.0220053
0.0286789
0.0413689
0.0567598
0.0702899
0.0803379
0.100374
0.0924404
0.0825958
0.0820456
0.0775673
0.0699567
0.0604571
0.049784
0.03913
0.0303753
0.0259262
0.0278625
0.0364502
0.0491974
0.0616582
0.0719265
0.0919526
0.0701303
0.0654585
0.0684007
0.0682284
0.0651683
0.0597549
0.0521621
0.0428285
0.0329735
0.0250101
0.021878
0.0250949
0.0332766
0.0425282
0.0509055
0.0677677
0.0369957
0.0365334
0.0423061
0.0466811
0.0491261
0.0490611
0.0459814
0.0392903
0.0294283
0.0188423
0.011306
0.00931183
0.0122743
0.0171212
0.0219899
0.0332333
0.0003866
0.00227292
0.00980052
0.0181654
0.0257921
0.0315625
0.033422
0.0299092
0.0207107
0.00847474
-0.002336
-0.00837273
-0.00987589
-0.0094349
-0.00866459
-0.00413351
-0.0322658
-0.0301789
-0.0218455
-0.0105684
0.00143386
0.0118999
0.0179933
0.0173173
0.00925976
-0.00347186
-0.0161623
-0.0247831
-0.029267
-0.0321378
-0.0349342
-0.0362102
-0.0558168
-0.055268
-0.0469501
-0.0342004
-0.019575
-0.00601166
0.00298137
0.00457956
-0.00186621
-0.0139181
-0.0268249
-0.0365481
-0.042617
-0.0474721
-0.0528305
-0.0565648
-0.0693484
-0.0715089
-0.0637605
-0.0509182
-0.0353579
-0.0203801
-0.00987603
-0.00659925
-0.0110469
-0.0209913
-0.0325021
-0.0419259
-0.0486479
-0.0546745
-0.0616591
-0.065227
-0.0755714
-0.0800165
-0.0736286
-0.0617404
-0.0464449
-0.0313368
-0.0203261
-0.0157716
-0.0178699
-0.0247856
-0.0335765
-0.0417401
-0.0486328
-0.0555946
-0.0637455
-0.0669967
-0.075947
-0.0814627
-0.0772636
-0.0671943
-0.0531954
-0.0390243
-0.0283517
-0.0229363
-0.0226383
-0.0261016
-0.0315469
-0.0376522
-0.0441126
-0.0516464
-0.0604798
-0.0650477
-0.068288
-0.0744163
-0.0729352
-0.0656537
-0.0542906
-0.0423853
-0.0331116
-0.0275857
-0.0253247
-0.0254183
-0.0271612
-0.0303441
-0.0351893
-0.0420855
-0.0506044
-0.056881
-0.0488438
-0.0567119
-0.0581275
-0.0546242
-0.0474414
-0.0393725
-0.0328601
-0.028346
-0.0250266
-0.0222338
-0.020085
-0.0193512
-0.0209192
-0.0253559
-0.0321849
-0.0381801
-0.0158748
-0.0274078
-0.0318713
-0.0329019
-0.0310866
-0.0280972
-0.025391
-0.0227546
-0.0189989
-0.0135782
-0.0072739
-0.00176218
0.00127917
0.000671512
-0.00344128
-0.00617104
0.0339367
0.0181993
0.0104628
0.00377395
-0.00103852
-0.0040935
-0.00594049
-0.00603185
-0.00295247
0.00391503
0.0134621
0.0234139
0.0315711
0.0362004
0.036968
0.0413774
0.0669929
0.0508558
0.0421273
0.0323222
0.022931
0.0148684
0.00844431
0.00464989
0.00516822
0.0110542
0.0216085
0.0345261
0.0470354
0.056407
0.0620762
0.0722978
0.0895956
0.0758632
0.0680354
0.0573585
0.0456053
0.0343381
0.0244051
0.0172478
0.0147586
0.0183284
0.0277334
0.0411192
0.0557247
0.0685288
0.0778437
0.0925163
0.096298
0.0869944
0.0817802
0.0726097
0.0611722
0.0491248
0.0375413
0.0279038
0.0221598
0.0220376
0.0281401
0.0395062
0.0537637
0.0676375
0.0794717
0.0967471
0.0857314
0.0816524
0.0801504
0.0744716
0.0658593
0.055588
0.0444992
0.0338186
0.0252613
0.020916
0.0223918
0.0298061
0.0415288
0.0543467
0.0664913
0.0839899
0.0601732
0.0608112
0.0632691
0.062314
0.0584295
0.0520735
0.0434894
0.0332767
0.0227538
0.0143916
0.0109654
0.0136492
0.0213694
0.0313002
0.0416666
0.0567894
0.0249451
0.0287971
0.0347056
0.0388738
0.0407644
0.0397248
0.0350421
0.0264648
0.0148908
0.00314871
-0.00474144
-0.00648869
-0.00301726
0.00298951
0.00990846
0.0205751
-0.0127247
-0.00754007
0.000911048
0.00985018
0.0175358
0.0222149
0.02193
0.0155545
0.00379316
-0.0103374
-0.0218162
-0.027199
-0.027355
-0.025268
-0.0225204
-0.0174096
-0.0452416
-0.040418
-0.0303956
-0.0177696
-0.00523475
0.00428982
0.00790853
0.00386729
-0.00738848
-0.0225396
-0.0362415
-0.0443106
-0.0471734
-0.0481891
-0.0492117
-0.0491675
-0.0670816
-0.063747
-0.0532113
-0.0386166
-0.0231491
-0.0104708
-0.00410339
-0.00608176
-0.0159713
-0.0305145
-0.0446262
-0.0541476
-0.0588748
-0.0619789
-0.0656983
-0.068275
-0.0773684
-0.0760633
-0.0661275
-0.0514421
-0.035089
-0.0210592
-0.0131177
-0.0132427
-0.0209342
-0.0332946
-0.0459935
-0.0555652
-0.061418
-0.0659501
-0.0711731
-0.0741227
-0.0793712
-0.079796
-0.0716125
-0.058312
-0.0425629
-0.0284577
-0.0197119
-0.0180363
-0.0228679
-0.0318424
-0.0418
-0.0502396
-0.0566318
-0.0623654
-0.068589
-0.0717107
-0.0750042
-0.0768968
-0.0714843
-0.0606651
-0.046651
-0.0334242
-0.0244671
-0.021161
-0.0228751
-0.0278934
-0.034264
-0.040634
-0.0467386
-0.0532283
-0.0602239
-0.0647214
-0.0622733
-0.0664715
-0.0644963
-0.0571719
-0.0462014
-0.0350549
-0.0267977
-0.0225579
-0.0214608
-0.022495
-0.0247783
-0.0280401
-0.0324866
-0.0384663
-0.0455557
-0.0513591
-0.0384588
-0.0462517
-0.0479635
-0.0451457
-0.0387324
-0.0312635
-0.0251587
-0.0210279
-0.0181077
-0.015647
-0.0136333
-0.0127496
-0.0138285
-0.0174493
-0.0232653
-0.0281414
-0.0040161
-0.0160131
-0.021131
-0.0232055
-0.0223196
-0.0198612
-0.0172394
-0.0144577
-0.0105675
-0.00514854
0.00101307
0.00640238
0.00960617
0.00960161
0.00639463
0.00510259
0.0423476
0.0277177
0.0179987
0.00964685
0.00381671
0.000273623
-0.00170318
-0.00170539
0.00156079
0.00865913
0.0183987
0.0285671
0.037244
0.0430219
0.0453217
0.0486836
0.0692119
0.055826
0.0450432
0.0333483
0.0227537
0.0142645
0.00806748
0.00490896
0.00609419
0.0123326
0.0227185
0.0351636
0.047508
0.057834
0.0651128
0.0733835
0.0852617
0.0757543
0.0663945
0.0541362
0.0412976
0.0295249
0.0197053
0.013031
0.0110499
0.0147339
0.0235692
0.0358687
0.0496739
0.0629099
0.0741828
0.0868118
0.0864104
0.0819743
0.0758024
0.0654735
0.0531459
0.0405284
0.028768
0.0192235
0.0135845
0.0132901
0.0186563
0.0287422
0.0420008
0.0562547
0.0699844
0.0854184
0.0722809
0.0728359
0.070878
0.0644565
0.0551291
0.0441297
0.0323919
0.0211328
0.0120362
0.00711101
0.00791819
0.0144593
0.0254936
0.0388417
0.0528015
0.0691684
0.045206
0.0497893
0.0522805
0.051009
0.0465718
0.0392592
0.0293997
0.017744
0.00589104
-0.00355642
-0.00757259
-0.00501205
0.00287953
0.0137462
0.0260032
0.0405341
0.0102636
0.0172949
0.0238093
0.0281503
0.0296545
0.0274855
0.0209218
0.0100889
-0.0035264
-0.0167865
-0.025307
-0.0266036
-0.0221043
-0.0147016
-0.00591357
0.00492611
-0.0257175
-0.0178458
-0.00807533
0.0016297
0.00926287
0.0126622
0.0100436
0.000887739
-0.0133687
-0.0292077
-0.0413788
-0.0462347
-0.0450101
-0.0413703
-0.0369996
-0.030989
-0.0554683
-0.0479672
-0.0359521
-0.0219558
-0.00914184
-0.000861975
0.000238344
-0.00678704
-0.0205849
-0.0373779
-0.0517541
-0.0595625
-0.0613704
-0.0611609
-0.0611092
-0.0596921
-0.0734467
-0.0671836
-0.0543018
-0.037956
-0.0219444
-0.0103711
-0.0064188
-0.0112181
-0.0234353
-0.0393914
-0.0541127
-0.0636757
-0.0679642
-0.0703836
-0.0733119
-0.0749574
-0.0789334
-0.0744255
-0.0623666
-0.0459922
-0.0290395
-0.0159283
-0.0100607
-0.0125767
-0.0222055
-0.0356889
-0.0489147
-0.0586601
-0.0645074
-0.0687448
-0.0732927
-0.076079
-0.0755604
-0.0731031
-0.0634917
-0.0489916
-0.0328158
-0.0194316
-0.0122678
-0.0124066
-0.0186998
-0.0285038
-0.0387774
-0.0473044
-0.05367
-0.0591369
-0.0646545
-0.0682548
-0.065852
-0.066202
-0.0602411
-0.0490132
-0.0348909
-0.0221762
-0.0142632
-0.0121613
-0.0148014
-0.0202699
-0.0266491
-0.0327759
-0.0385242
-0.0445083
-0.0508432
-0.0559307
-0.0488871
-0.0534002
-0.052063
-0.0450119
-0.0343193
-0.0234384
-0.0157899
-0.0120553
-0.0113697
-0.0124244
-0.0143498
-0.016975
-0.0206573
-0.0258487
-0.0323677
-0.0384003
-0.0233531
-0.0326224
-0.0358478
-0.03416
-0.0284646
-0.0211892
-0.0151149
-0.0109389
-0.00786135
-0.00503358
-0.00240682
-0.000693928
-0.000785935
-0.00341645
-0.00860149
-0.0134391
0.0101438
-0.00288376
-0.00978853
-0.0132885
-0.0131847
-0.0111972
-0.00873184
-0.00600583
-0.00206987
0.00356296
0.0101237
0.0161161
0.0202114
0.0213985
0.0193499
0.0181863
0.0491988
0.0358545
0.0242028
0.0143185
0.00759507
0.00355472
0.00117309
0.000696835
0.00343776
0.0101561
0.0197558
0.0301425
0.0396183
0.0469897
0.0514398
0.054133
0.0672228
0.0562504
0.0438331
0.030506
0.0187655
0.00968655
0.00339309
0.000385315
0.00166588
0.00772125
0.0176127
0.0294991
0.0417918
0.0532297
0.0624436
0.0700407
0.0757804
0.069293
0.0590845
0.0458242
0.0322439
0.0200208
0.0100172
0.00325527
0.00102452
0.00412015
0.0120379
0.0233449
0.0365581
0.0504449
0.0633187
0.076081
0.0715035
0.0701804
0.0637115
0.0528596
0.0400827
0.0270616
0.014928
0.00495496
-0.00132127
-0.00251665
0.00182836
0.0109402
0.0236604
0.0384965
0.0539098
0.0692329
0.0552436
0.0581974
0.0561885
0.0495065
0.0398192
0.0282544
0.0157681
0.00359776
-0.00655313
-0.0125629
-0.0125994
-0.0064606
0.00460333
0.0187455
0.0343201
0.0502677
0.0286959
0.0350277
0.0376448
0.0362712
0.0314554
0.023208
0.0120784
-0.00101219
-0.0142778
-0.0248432
-0.0294134
-0.0265561
-0.0178491
-0.00583108
0.00782908
0.0222976
-0.0034902
0.00491813
0.0118422
0.0162462
0.0171765
0.0138398
0.00553071
-0.00715302
-0.022289
-0.036458
-0.0451954
-0.0458152
-0.0400215
-0.0312908
-0.021321
-0.0102554
-0.035176
-0.0258948
-0.0152455
-0.00519069
0.00194575
0.00390616
-0.000741944
-0.0118575
-0.0274913
-0.0438382
-0.055863
-0.0600592
-0.0577368
-0.0530646
-0.0479034
-0.0414176
-0.0597953
-0.0505307
-0.0371529
-0.0224554
-0.00996831
-0.00310696
-0.00399906
-0.0128078
-0.0275999
-0.0444556
-0.0583946
-0.065753
-0.0671577
-0.0666435
-0.0663155
-0.064457
-0.0723243
-0.063984
-0.0495385
-0.0321939
-0.0162259
-0.00578237
-0.0034637
-0.00960947
-0.0223999
-0.0380687
-0.0522189
-0.0615422
-0.066096
-0.0689822
-0.0722443
-0.0738306
-0.0721986
-0.0657671
-0.0524068
-0.0350395
-0.0178796
-0.00546485
-0.000692952
-0.00403682
-0.0138484
-0.0268517
-0.0394509
-0.0490385
-0.0553955
-0.0604702
-0.0656643
-0.0692058
-0.0631024
-0.0597624
-0.0496433
-0.0344662
-0.0180165
-0.00494671
0.00163035
0.00110162
-0.00507809
-0.0142966
-0.0238779
-0.0320644
-0.0386681
-0.0447588
-0.0509762
-0.0560147
-0.048446
-0.0495276
-0.0441351
-0.0327911
-0.0185728
-0.00597063
0.00165798
0.00367304
0.00129025
-0.00352011
-0.00904959
-0.014453
-0.0198304
-0.0258311
-0.0326398
-0.039158
-0.0288361
-0.0353023
-0.0354363
-0.029237
-0.0187855
-0.00798785
-0.000614513
0.0031661
0.00422822
0.00391835
0.00300387
0.00147093
-0.00123913
-0.00576837
-0.0122315
-0.0192283
-0.00427049
-0.01564
-0.0212128
-0.021143
-0.0162791
-0.00965834
-0.00345385
0.00100188
0.00465291
0.00829355
0.011929
0.0148241
0.0159687
0.0145396
0.0100664
0.00457937
0.0242908
0.0108431
0.00184109
-0.00309989
-0.00371632
-0.00196373
0.000247632
0.00261982
0.00623975
0.0118218
0.0187599
0.0255078
0.0307532
0.0334544
0.0329115
0.0311347
0.053043
0.0406636
0.0280645
0.017478
0.0104802
0.00625728
0.00341379
0.00201881
0.00345349
0.00873492
0.0172967
0.0273316
0.0374191
0.0464275
0.0530857
0.0567112
0.0614894
0.0517205
0.0386775
0.0244443
0.0118679
0.00214591
-0.00458917
-0.00797023
-0.0072137
-0.00199298
0.0070085
0.018251
0.0306299
0.0431184
0.0541977
0.062842
0.0626222
0.0571089
0.046884
0.0334584
0.0197251
0.00731098
-0.00300074
-0.0102997
-0.0133955
-0.0114466
-0.00479543
0.00554853
0.0187424
0.0334209
0.0479303
0.0609562
0.0543612
0.0533011
0.0469481
0.0362408
0.0235797
0.0105287
-0.0019152
-0.0125337
-0.0198072
-0.0222204
-0.018956
-0.0104112
0.00237495
0.0178928
0.0342437
0.0497803
0.0370991
0.0399952
0.0379784
0.0313539
0.0216374
0.00982955
-0.00319484
-0.0161425
-0.0272283
-0.0341437
-0.0347566
-0.0285194
-0.016849
-0.00187239
0.014338
0.0302047
0.012914
0.018919
0.0213499
0.0197934
0.0145141
0.0056255
-0.00640318
-0.0204327
-0.0343545
-0.0452424
-0.0497098
-0.0461378
-0.0363191
-0.023341
-0.00927328
0.00480669
-0.014343
-0.00622146
0.000499542
0.00452507
0.00471895
0.000171041
-0.00936295
-0.0229376
-0.0383401
-0.0520968
-0.0600225
-0.0596221
-0.0526972
-0.0431785
-0.0330827
-0.0225092
-0.0394855
-0.0301299
-0.0195275
-0.00991578
-0.00377794
-0.00323473
-0.00918832
-0.0209652
-0.0363303
-0.0515588
-0.0622093
-0.0653806
-0.0624415
-0.057558
-0.0526556
-0.0466267
-0.0570189
-0.0472917
-0.0337485
-0.0193523
-0.00783171
-0.00229669
-0.00426123
-0.0133039
-0.0273257
-0.0425572
-0.0548385
-0.0613376
-0.0628179
-0.0628769
-0.0632499
-0.0619505
-0.063056
-0.0541123
-0.0395263
-0.0221454
-0.00678309
0.00277405
0.00453927
-0.00125392
-0.0130646
-0.0268195
-0.0392858
-0.0479498
-0.0530884
-0.0572153
-0.0616374
-0.0640568
-0.0571413
-0.0507596
-0.0372963
-0.0199265
-0.00291213
0.00922771
0.0140197
0.0113628
0.00294479
-0.00825752
-0.0193309
-0.0283676
-0.035407
-0.0419558
-0.048757
-0.0540124
-0.0433792
-0.0412207
-0.0316428
-0.0164243
0.0001912
0.0134563
0.0204495
0.0208109
0.0160115
0.00841
0.000209013
-0.0073381
-0.0142995
-0.0215552
-0.0294426
-0.0366938
-0.0256204
-0.0289169
-0.0248223
-0.0138006
0.000489295
0.0133986
0.0215095
0.0243128
0.0230646
0.0196031
0.0153229
0.0108048
0.00568594
-0.000739114
-0.00870894
-0.0172326
-0.00575844
-0.0146142
-0.0167082
-0.0114567
-0.00137377
0.00918645
0.0169225
0.021206
0.0230715
0.0238141
0.0240472
0.0235905
0.0217373
0.0176959
0.0110548
0.00270609
0.0151011
0.00216179
-0.00576876
-0.0073707
-0.00347876
0.00267503
0.00847736
0.0131559
0.0174154
0.0219263
0.0264841
0.0305379
0.0328058
0.0325121
0.0289625
0.0227982
0.0360365
0.0225811
0.0120125
0.00620184
0.00534733
0.00707155
0.00897418
0.0107191
0.0135769
0.018584
0.0254555
0.0325041
0.0386777
0.0428288
0.0439002
0.0419512
0.0524692
0.0398809
0.0275374
0.017394
0.0110821
0.00738259
0.00445046
0.00213951
0.00185115
0.00495463
0.0115373
0.020505
0.0306731
0.0408335
0.0491191
0.0553752
0.05177
0.0415306
0.02902
0.0149091
0.00212132
-0.00800786
-0.0152631
-0.0192461
-0.0192679
-0.0150123
-0.007012
0.00364873
0.0161256
0.0293248
0.0412525
0.051958
0.0467071
0.0400249
0.0302858
0.0175283
0.00439656
-0.00766209
-0.0180426
-0.0258647
-0.0299054
-0.0291592
-0.023496
-0.0135964
-0.000339648
0.0149164
0.0297286
0.0437368
0.0357042
0.0330735
0.0268352
0.016754
0.00483373
-0.0076717
-0.0199854
-0.0309006
-0.0389246
-0.0421676
-0.0395113
-0.0310067
-0.0177947
-0.0017836
0.0143626
0.0297288
0.0191921
0.0204145
0.0180108
0.011546
0.00210816
-0.00948703
-0.022494
-0.03561
-0.0468336
-0.0538014
-0.054231
-0.0474029
-0.0349073
-0.0194406
-0.00376107
0.0110074
-0.000954569
0.00346549
0.00509319
0.00309192
-0.00258999
-0.0118228
-0.0240649
-0.0380132
-0.0514628
-0.0614647
-0.0648648
-0.0602202
-0.0494531
-0.036107
-0.022729
-0.0101747
-0.0216107
-0.0148124
-0.00909451
-0.00602105
-0.00679383
-0.0122111
-0.0221487
-0.035387
-0.049639
-0.0616302
-0.0677593
-0.0661045
-0.0585197
-0.0489638
-0.0396915
-0.0306112
-0.0386741
-0.0303197
-0.0207475
-0.0123012
-0.0074971
-0.0080518
-0.0143754
-0.0254688
-0.0391181
-0.051971
-0.0604272
-0.0624188
-0.0593687
-0.0549607
-0.0509877
-0.0462156
-0.0480622
-0.0391652
-0.0265716
-0.0133606
-0.00313408
0.00145493
-0.000592798
-0.00853467
-0.020481
-0.0330735
-0.043122
-0.0486575
-0.0505495
-0.0516096
-0.0530635
-0.0529132
-0.0472527
-0.0393907
-0.0256139
-0.00926585
0.00519987
0.0143093
0.0164667
0.012026
0.00271382
-0.00856898
-0.0190376
-0.026995
-0.0328513
-0.0384014
-0.0442553
-0.0481536
-0.0368641
-0.0319892
-0.0196172
-0.00269456
0.0140697
0.0263881
0.032047
0.0310562
0.024906
0.0159938
0.00660866
-0.00191511
-0.00973458
-0.0178835
-0.0265127
-0.0337025
-0.0205351
-0.0204366
-0.0120511
0.0028362
0.0196977
0.0334283
0.041489
0.0434903
0.0406776
0.0349828
0.0281559
0.0210743
0.0135412
0.00490609
-0.00484828
-0.0143094
-0.0022535
-0.00774105
-0.00504488
0.00550629
0.0202347
0.0333615
0.0423153
0.0463871
0.0466328
0.0445897
0.0412879
0.0373655
0.0321158
0.0249457
0.0157238
0.00538276
0.0153583
0.00492637
0.00137943
0.00581912
0.0156586
0.0261072
0.0341382
0.0390668
0.041814
0.0434934
0.0445365
0.0446096
0.0431324
0.0391627
0.0323119
0.023089
0.0307277
0.0169659
0.00783228
0.00492419
0.00794815
0.013145
0.0184467
0.0232319
0.0280493
0.0332993
0.0386399
0.0432269
0.04612
0.0465212
0.0436951
0.0378027
0.043233
0.0293101
0.0181703
0.0122049
0.0117516
0.0138489
0.0157391
0.0169689
0.0188874
0.0228035
0.0287807
0.0357319
0.0424435
0.0476197
0.0499634
0.0492123
0.0471151
0.0322837
0.020774
0.011892
0.00720174
0.00494229
0.00266122
-3.34704e-05
-0.00174355
-0.000782292
0.0036343
0.0111705
0.0209783
0.0316445
0.0404289
0.0499847
0.0380943
0.0256595
0.0142512
0.00127511
-0.0108608
-0.0208293
-0.0282927
-0.0326613
-0.0331695
-0.0294651
-0.0219219
-0.0114132
0.00124939
0.0144945
0.0256743
0.0376282
0.0288485
0.0195353
0.0101412
-0.00146612
-0.0132581
-0.024234
-0.0340907
-0.041946
-0.0463653
-0.0461244
-0.040758
-0.0307382
-0.0170879
-0.00177034
0.0119211
0.0254055
0.0169464
0.0117025
0.0050724
-0.00427958
-0.0149769
-0.0262554
-0.0377519
-0.0483606
-0.0561369
-0.0592889
-0.056382
-0.0473448
-0.0335482
-0.0175313
-0.00280205
0.0106021
0.00278518
0.00161709
-0.0017726
-0.00821698
-0.0171376
-0.0279878
-0.0402341
-0.0525527
-0.062903
-0.0688455
-0.0682175
-0.0604251
-0.047255
-0.0318962
-0.0177532
-0.00564464
-0.0120681
-0.0097835
-0.00954249
-0.0122684
-0.0182288
-0.0273548
-0.0390255
-0.0518699
-0.0637247
-0.0718235
-0.0734737
-0.0676673
-0.0563999
-0.0433189
-0.0314166
-0.0214213
-0.0252833
-0.020364
-0.0161712
-0.0143367
-0.0160386
-0.0218493
-0.0313671
-0.0432644
-0.0553897
-0.0648857
-0.0688887
-0.0661429
-0.0584603
-0.0494256
-0.0413908
-0.0342759
-0.0339749
-0.0272612
-0.0192266
-0.0122803
-0.00871935
-0.00985106
-0.0157233
-0.0252577
-0.0365136
-0.0466638
-0.0529859
-0.0541295
-0.0514065
-0.0477608
-0.0447727
-0.0412954
-0.0356591
-0.0282709
-0.0171903
-0.00542151
0.00362854
0.00779508
0.00642603
0.000172199
-0.00923053
-0.0192709
-0.0274571
-0.0324439
-0.0349644
-0.037015
-0.0393238
-0.0398804
-0.0293115
-0.0229685
-0.0106803
0.00467775
0.0182702
0.0273381
0.0304785
0.0279158
0.0210493
0.0120379
0.00305466
-0.0046501
-0.0113244
-0.0180774
-0.024957
-0.0297695
-0.0162081
-0.0129166
-0.00180343
0.0143583
0.0308481
0.0435202
0.0504343
0.0514042
0.0475068
0.0405283
0.0322556
0.0237352
0.0149887
0.00547988
-0.00446839
-0.012889
0.000403704
-0.00101599
0.00628649
0.0205208
0.0376119
0.0517866
0.0611013
0.0649207
0.0640725
0.0599891
0.053975
0.0467608
0.0383115
0.028365
0.0172394
0.00653459
0.0169289
0.01022
0.0121349
0.0222297
0.0366918
0.0502821
0.0602011
0.0656987
0.0674513
0.0665868
0.0640477
0.0597681
0.0537975
0.0456624
0.0354702
0.0244934
0.0303722
0.0194313
0.015538
0.0195012
0.0288344
0.0391512
0.0475126
0.0532119
0.0568629
0.0592446
0.0606506
0.060773
0.0588227
0.0543613
0.0471071
0.0383402
0.0391428
0.0253189
0.0164136
0.0131136
0.0149213
0.0191713
0.0239096
0.0288011
0.0341953
0.0401102
0.0459475
0.0507737
0.0537211
0.0540389
0.0511276
0.0467979
0.0449846
0.0291549
0.0181115
0.0125598
0.0128574
0.0158366
0.0182306
0.019425
0.0207217
0.0236
0.0285556
0.035002
0.0419159
0.0476309
0.0504862
0.0522606
0.0376291
0.0184406
0.00731677
-0.000373274
-0.00290078
-0.00288769
-0.00365261
-0.00587252
-0.00810943
-0.00841353
-0.0054231
0.00112181
0.0106584
0.0213288
0.0294155
0.0412977
0.0213017
0.00575629
-0.0050929
-0.0163541
-0.0269874
-0.0360391
-0.0431069
-0.0472877
-0.0475795
-0.0435245
-0.0354475
-0.0243853
-0.0114305
0.00133703
0.010244
0.0209981
0.0105913
-0.0018245
-0.0115676
-0.022092
-0.0321061
-0.0413687
-0.0499985
-0.0571187
-0.0610478
-0.0602753
-0.0541805
-0.0433053
-0.0290845
-0.0141878
-0.00276208
0.00776914
-6.89968e-05
-0.00809066
-0.0158238
-0.0246905
-0.0339917
-0.0435974
-0.0535314
-0.0628669
-0.0696081
-0.0716524
-0.0675959
-0.0575048
-0.04312
-0.0275821
-0.0151143
-0.00551765
-0.0104619
-0.014098
-0.0189484
-0.0255904
-0.0338655
-0.0435799
-0.0543849
-0.0651536
-0.0737887
-0.0779412
-0.0756987
-0.0667917
-0.0532145
-0.0384581
-0.0263856
-0.0179031
-0.0194164
-0.0193772
-0.0206939
-0.0241617
-0.0302262
-0.0388243
-0.0493505
-0.0604506
-0.0701594
-0.0760216
-0.0758673
-0.069132
-0.0578031
-0.0454099
-0.0351623
-0.0278559
-0.0254945
-0.0225459
-0.0198839
-0.0191243
-0.021437
-0.0271303
-0.035669
-0.045824
-0.0556737
-0.062878
-0.0652166
-0.0618938
-0.0545273
-0.0462101
-0.0392901
-0.0337165
-0.0270732
-0.0219564
-0.0153105
-0.00959244
-0.00683211
-0.00799702
-0.0129767
-0.0208114
-0.029875
-0.0379949
-0.043031
-0.0439838
-0.0418577
-0.0389076
-0.0365077
-0.0336043
-0.0229165
-0.0168012
-0.00697051
0.00358085
0.0118841
0.0160895
0.0156622
0.0110972
0.00367404
-0.00470412
-0.0120416
-0.01718
-0.0204637
-0.0231942
-0.0258149
-0.0265332
-0.0131354
-0.00777309
0.00347178
0.0175874
0.0306881
0.0399895
0.0442158
0.0433619
0.0383083
0.0306417
0.0221313
0.0139779
0.00641822
-0.00110788
-0.00829963
-0.0130957
0.000676051
0.00320639
0.0134153
0.0287208
0.0447611
0.0577955
0.0658759
0.0686133
0.0664503
0.060611
0.0525634
0.043356
0.0336267
0.0231594
0.0126988
0.00436834
0.0157549
0.0137587
0.0205042
0.034138
0.0504969
0.0650689
0.0755406
0.0810202
0.0818178
0.0787489
0.0728767
0.0650877
0.0554359
0.0443859
0.0325941
0.022318
0.0289421
0.021827
0.0236565
0.0331629
0.0469377
0.0605941
0.0713865
0.078347
0.0815553
0.081549
0.0789644
0.074159
0.0671793
0.0580015
0.0470806
0.0372762
0.0373198
0.0257338
0.0225905
0.026277
0.0348964
0.044913
0.0536987
0.0604123
0.0651447
0.068191
0.0696499
0.0692867
0.0666574
0.0612838
0.0531319
0.0463681
0.0394934
0.0244551
0.0170229
0.0139914
0.0150287
0.0183564
0.0227241
0.0280162
0.0342705
0.0410402
0.0474231
0.0523759
0.0550469
0.0546095
0.0504306
0.0484048
0.0413114
0.0218381
0.0107057
0.00552157
0.00677402
0.0110232
0.0145236
0.0164049
0.017818
0.0202835
0.0246508
0.0307809
0.037863
0.0437988
0.046353
0.0507944
0.0250904
0.000881005
-0.0114212
-0.0185831
-0.0190714
-0.0163853
-0.014992
-0.0159218
-0.0175902
-0.0178466
-0.01487
-0.00817477
0.00167102
0.0121722
0.0187934
0.0305294
0.00351999
-0.0154865
-0.0262129
-0.0359776
-0.0446401
-0.0521518
-0.0582268
-0.0616038
-0.0609332
-0.0555922
-0.0460842
-0.0335684
-0.0199547
-0.00813584
-0.00233576
0.00448229
-0.005552
-0.0206698
-0.0316867
-0.0413847
-0.0496327
-0.056976
-0.0639956
-0.0698107
-0.0724754
-0.0702356
-0.0624847
-0.0500673
-0.0350947
-0.0209455
-0.0122885
-0.00655746
-0.012762
-0.0231654
-0.0324408
-0.0411901
-0.0492462
-0.0571078
-0.0652788
-0.0729364
-0.0780074
-0.0782735
-0.0724513
-0.060948
-0.0459873
-0.0312252
-0.0212118
-0.0161109
-0.0183485
-0.0242788
-0.0305509
-0.0374498
-0.045075
-0.0535482
-0.0627814
-0.0717347
-0.0784255
-0.0806212
-0.0767076
-0.0667363
-0.0529339
-0.0389999
-0.0289447
-0.0237525
-0.0216911
-0.0238022
-0.026276
-0.0301788
-0.0360395
-0.0438014
-0.0529853
-0.0624053
-0.0702335
-0.0743098
-0.0728633
-0.065595
-0.0544353
-0.0428107
-0.0339764
-0.0284104
-0.0222377
-0.021028
-0.0192121
-0.018949
-0.0212964
-0.0264283
-0.0338599
-0.0425045
-0.0507562
-0.0566284
-0.0582569
-0.0549666
-0.0480961
-0.0404066
-0.0342451
-0.0290183
-0.0190921
-0.0151767
-0.0091622
-0.00396629
-0.00135643
-0.0020933
-0.0060867
-0.0126105
-0.0204132
-0.0277171
-0.0326263
-0.0340793
-0.03266
-0.0301868
-0.0279804
-0.0246242
-0.0119218
-0.00641276
0.00286409
0.0128128
0.0208712
0.0254387
0.0259576
0.0226211
0.0162409
0.00832228
0.000690324
-0.00529052
-0.00940845
-0.0125224
-0.0149444
-0.0148882
-0.00125667
0.00390555
0.0146312
0.027979
0.0406932
0.0502846
0.0554882
0.0559089
0.0519156
0.044596
0.0355784
0.0262844
0.0178707
0.00991468
0.00302812
-0.00073692
0.0114054
0.0137991
0.0235834
0.0379832
0.0534034
0.0666041
0.0757146
0.0798997
0.0789591
0.0735561
0.0650685
0.0550112
0.0439341
0.0328009
0.0224747
0.0155985
0.0237071
0.0212506
0.0279034
0.0406041
0.0559972
0.070536
0.0819374
0.0890112
0.0912416
0.0888239
0.0826344
0.0737939
0.0630945
0.0511999
0.0391558