/*--------------------------------*- C++ -*----------------------------------*\
| =========                 |                                                 |
| \\      /  F ield         | OpenFOAM: The Open Source CFD Toolbox           |
|  \\    /   O peration     | Version:  3.0.0                                 |
|   \\  /    A nd           | Web:      www.OpenFOAM.org                      |
|    \\/     M anipulation  |                                                 |
\*---------------------------------------------------------------------------*/
FoamFile
{
    version     2.0;
    format      ascii;
    class       surfaceScalarField;
    location    "8.75";
    object      phi;
}
// * * * * * * * * * * * * * * * * * * * * * * * * * * * * * * * * * * * * * //

dimensions      [0 3 -1 0 0 0 0];

internalField   nonuniform List<scalar> 
11520
(
-0.000261622
-0.000402324
0.00025557
-0.000298572
-0.000326777
0.000323384
-0.00030567
-0.000251851
0.000355894
-0.000280279
-0.000170164
0.000345919
-0.000229511
-9.04073e-05
0.000290836
-0.000169413
-2.76537e-05
0.000195138
-0.000117217
4.4746e-06
7.51306e-05
-8.18211e-05
2.88568e-07
-4.30143e-05
-6.15049e-05
-3.73257e-05
-0.00013457
-4.97295e-05
-0.000100357
-0.000187141
-4.21014e-05
-0.000178195
-0.000200981
-4.09396e-05
-0.000258074
-0.000181602
-5.44229e-05
-0.000326567
-0.000133292
-8.96972e-05
-0.000373638
-5.9549e-05
-0.000145717
-0.000397463
3.15211e-05
-0.000398355
0.000121455
-0.0004498
-0.000289963
0.000127108
-0.000504598
-0.000226717
0.00020342
-0.000516793
-0.000173492
0.000258919
-0.000485609
-0.000118523
0.000284592
-0.00041718
-6.61384e-05
0.000275575
-0.000325766
-2.60061e-05
0.000232483
-0.000230409
-6.23645e-06
0.000163438
-0.000146227
-1.20698e-05
8.35543e-05
-8.17935e-05
-4.10511e-05
8.11118e-06
-4.02181e-05
-8.84912e-05
-5.35375e-05
-2.30815e-05
-0.000148009
-9.89432e-05
-3.45489e-05
-0.000208585
-0.000126709
-7.90093e-05
-0.000257121
-0.000131364
-0.000155183
-0.000284464
-0.000106806
-0.000254035
-0.000292271
-5.43821e-05
-0.000285364
1.10841e-05
-0.000604323
-0.000123275
-8.20999e-06
-0.000664236
-9.29522e-05
7.63362e-05
-0.000672957
-7.36564e-05
0.00015397
-0.00063235
-5.42432e-05
0.000214151
-0.00054835
-3.54593e-05
0.00024986
-0.000433756
-2.20207e-05
0.000258221
-0.000306046
-1.80334e-05
0.000240911
-0.000184554
-2.4866e-05
0.000202991
-8.55706e-05
-4.07737e-05
0.000150649
-2.13442e-05
-6.38722e-05
8.72707e-05
-7.67686e-07
-9.23411e-05
1.46803e-05
-2.86528e-05
-0.000120132
-6.0074e-05
-0.000104548
-0.000137904
-0.000119839
-0.000217901
-0.000140306
-0.000146829
-0.000351533
-0.000133024
-0.000134101
-0.000124437
-8.97313e-05
-0.000702817
7.68112e-05
-0.000153358
-0.000757469
5.86345e-05
-6.24283e-05
-0.000756736
3.68946e-05
3.35462e-05
-0.000705425
1.61664e-05
0.000122048
-0.00061004
-1.4713e-06
0.000195115
-0.00048182
-1.61943e-05
0.000246555
-0.000336472
-2.83728e-05
0.000273649
-0.000193088
-3.66009e-05
0.0002759
-7.24915e-05
-3.81652e-05
0.000252715
5.35446e-06
-3.26412e-05
0.00020018
2.49014e-05
-2.26125e-05
0.000114433
-1.99499e-05
-8.51335e-06
3.82809e-06
-0.000123368
1.23123e-05
-0.000104876
-0.00026524
3.7886e-05
-0.000181249
-0.000421824
5.916e-05
-0.000208725
6.49065e-05
-0.00018497
-0.000731995
0.000282926
-0.000297741
-0.000771865
0.000209476
-0.000204836
-0.000757289
0.000142286
-9.83705e-05
-0.000694924
7.98696e-05
1.04241e-05
-0.000592566
2.52765e-05
0.000108709
-0.000460315
-1.76984e-05
0.000189537
-0.000311164
-4.64707e-05
0.000247944
-0.000162203
-5.69894e-05
0.000281742
-3.54708e-05
-4.44708e-05
0.000288085
4.42968e-05
-8.21573e-06
0.000257633
5.64677e-05
4.532e-05
0.000177696
-5.20119e-06
0.000107664
5.0639e-05
-0.000129456
0.000172073
-9.20483e-05
-0.000288678
0.000227237
-0.000209773
-0.000454545
0.000261297
-0.000275048
0.000261718
-0.000273326
-0.000682805
0.000462451
-0.000417493
-0.000700609
0.000336422
-0.000327845
-0.000667762
0.000224708
-0.000217316
-0.000595624
0.000121221
-0.000100083
-0.000491364
3.26564e-05
1.03421e-05
-0.000364312
-3.64533e-05
0.000103912
-0.000224061
-8.12071e-05
0.000176598
-8.4759e-05
-9.48484e-05
0.000228238
3.25292e-05
-6.91606e-05
0.000257638
0.000101327
-1.62816e-06
0.00025407
9.9152e-05
9.79844e-05
0.000196072
2.07695e-05
0.000211902
7.45378e-05
-0.00011666
0.000321247
-8.28802e-05
-0.000281551
0.000405633
-0.00022853
-0.000442822
0.000450117
-0.000325045
0.000443929
-0.000346501
-0.000552162
0.000580871
-0.000477819
-0.000542572
0.000415265
-0.000396555
-0.000491449
0.000264956
-0.000288538
-0.000411965
0.000128441
-0.000172811
-0.000313424
1.32697e-05
-6.64986e-05
-0.000201422
-7.52251e-05
2.07443e-05
-8.20801e-05
-0.000132827
8.8593e-05
3.40902e-05
-0.000149405
0.000141359
0.000128258
-0.000112136
0.000182735
0.000175546
-1.55764e-05
0.000203202
0.000154809
0.000128192
0.00017549
6.29324e-05
0.000291815
7.74636e-05
-7.96507e-05
0.000443495
-7.40306e-05
-0.000238813
0.000553244
-0.000230595
-0.000382513
0.000603185
-0.000346787
0.00058759
-0.000389145
-0.000346256
0.000610367
-0.000447723
-0.000308638
0.000426325
-0.000378779
-0.000243438
0.000250929
-0.00028035
-0.000164798
9.60803e-05
-0.000178546
-8.14081e-05
-3.05126e-05
-9.32574e-05
4.67927e-06
-0.000127409
-3.20895e-05
9.18837e-05
-0.000191145
1.02961e-05
0.000173213
-0.000208883
4.69052e-05
0.000233155
-0.000162808
8.75959e-05
0.00025199
-4.39422e-05
0.000124255
0.00021338
0.000134625
0.000126913
0.000116446
0.000337967
6.38115e-05
-1.8429e-05
0.000523011
-6.20981e-05
-0.000158351
0.000650497
-0.000208817
-0.00027189
0.000698347
-0.00032708
0.000666378
-0.000381009
-8.89931e-05
0.000543421
-0.000326845
-2.85645e-05
0.000362924
-0.000269311
4.17811e-05
0.000183278
-0.000186751
0.000109222
3.12689e-05
-0.000110467
0.000167592
-8.76534e-05
-6.2215e-05
0.000218781
-0.000178641
-4.54486e-05
0.000265054
-0.000240321
-4.55275e-05
0.000302161
-0.000256651
-3.92887e-05
0.00031956
-0.000205126
-1.13649e-05
0.000305707
-7.46806e-05
3.14628e-05
0.000252691
0.000120694
5.92591e-05
0.000163425
0.000343201
3.50338e-05
5.46589e-05
0.000543357
-4.89785e-05
-4.71925e-05
0.000675288
-0.000162495
-0.000116072
0.000712195
-0.000259692
0.000655098
-0.000307151
0.000171819
0.000399126
-0.000155711
0.000245889
0.000237452
-0.000102217
0.000312438
7.68056e-05
-3.56416e-05
0.000361594
-4.99152e-05
1.02437e-05
0.000390178
-0.00014273
1.30748e-05
0.000402897
-0.000213834
-2.55092e-05
0.000404287
-0.000264856
-7.93264e-05
0.000392757
-0.000276935
-0.000113169
0.000363626
-0.000224775
-0.00010573
0.00031519
-9.68231e-05
-6.41473e-05
0.000250906
9.25606e-05
-1.98605e-05
0.000179117
0.00030571
-7.8453e-06
0.000112949
0.000493414
-4.15032e-05
6.82665e-05
0.000609488
-0.000102635
5.91714e-05
0.000625566
-0.000155658
0.000541181
-0.000173618
0.000376184
0.000212446
1.48496e-05
0.000454583
7.69613e-05
7.28758e-05
0.000512527
-4.55319e-05
0.000128586
0.000543861
-0.000129285
0.000147802
0.00054679
-0.000182438
0.000107206
0.000524936
-0.000223619
1.3199e-05
0.000484652
-0.000256427
-9.703e-05
0.000427018
-0.000262206
-0.000174004
0.000354694
-0.000215296
-0.000191249
0.000276187
-0.00010495
-0.000156581
0.000204822
5.48133e-05
-0.000101493
0.000154196
0.000229759
-5.86112e-05
0.000134848
0.000376634
-4.2876e-05
0.000152439
0.000455596
-4.53584e-05
0.000206435
0.000443047
-4.22722e-05
0.000341493
-1.45211e-05
0.000482287
1.53877e-05
0.000156649
0.000555044
-8.85695e-05
0.000220493
0.000602918
-0.000161079
0.000269274
0.00062228
-0.00019313
0.000269053
0.000609949
-0.000200556
0.000194762
0.000565368
-0.000206225
5.41392e-05
0.000494108
-0.000216534
-0.00010437
0.000401656
-0.000215976
-0.000220834
0.000298856
-0.000181357
-0.000262994
0.000203036
-0.00010292
-0.00023825
0.000133604
7.9294e-06
-0.000176879
0.000105628
0.000123987
-0.000109076
0.000125525
0.000212294
-5.07694e-05
0.000190804
0.000243987
-1.97153e-06
0.000288635
0.000202833
5.4437e-05
0.000100207
0.000131935
0.000481565
-0.000166154
0.000258874
0.000538771
-0.000231924
0.000326079
0.000573535
-0.000252545
0.000367611
0.000586145
-0.000234199
0.000353201
0.00057045
-0.000197823
0.000257715
0.000519413
-0.000168303
8.79488e-05
0.000434928
-0.000156357
-0.000103636
0.000327287
-0.000151805
-0.000249934
0.000214517
-0.00013606
-0.000314137
0.000119526
-9.93793e-05
-0.000301154
6.30842e-05
-4.75208e-05
-0.000238288
5.74697e-05
2.33103e-06
-0.000153286
0.000103201
2.99515e-05
-6.36075e-05
0.000189936
1.80196e-05
2.50863e-05
0.000299021
-4.03018e-05
0.000118286
-0.000128682
0.000229182
0.000389493
-0.000312316
0.000316701
0.000422354
-0.000334298
0.000383795
0.00044008
-0.000309147
0.000417055
0.000447883
-0.0002503
0.000392823
0.000438394
-0.000179706
0.000289509
0.000397718
-0.000122444
0.00011175
0.000322251
-9.30399e-05
-9.17054e-05
0.000223679
-8.81837e-05
-0.000253951
0.000123611
-9.43466e-05
-0.000335185
4.61223e-05
-0.000100741
-0.000335638
9.58774e-06
-0.000105736
-0.000277838
2.12751e-05
-0.000115222
-0.000186745
7.61922e-05
-0.00013759
-8.05839e-05
0.00015909
-0.000179418
3.01805e-05
0.000250106
-0.000241057
0.00014362
-0.000306389
0.000266884
0.000230682
-0.000408034
0.000329279
0.000234845
-0.000385588
0.000394034
0.000234089
-0.000326423
0.000420788
0.000237614
-0.00024195
0.000393457
0.000239875
-0.000151646
0.000296628
0.000223897
-7.89592e-05
0.000133023
0.000179109
-4.05081e-05
-5.92528e-05
0.000112657
-3.8844e-05
-0.000221721
4.37144e-05
-6.4487e-05
-0.000314164
-6.5135e-06
-0.000105858
-0.000330474
-2.36217e-05
-0.000154856
-0.000286535
-4.37015e-06
-0.000207817
-0.000203275
4.31681e-05
-0.000263191
-9.80512e-05
0.00010289
-0.000319557
1.67226e-05
0.000157806
-0.000373582
0.000133648
-0.000414382
0.000251203
4.34987e-05
0.000301493
2.03099e-05
0.000362057
1.25537e-06
0.000386982
-1.46004e-06
0.000366466
1.15241e-05
0.000291105
2.667e-05
0.000161503
2.76482e-05
1.57035e-06
1.00656e-05
-0.000145744
-1.67542e-05
-0.000243412
-3.76424e-05
-0.000278135
-4.11664e-05
-0.00025728
-2.54151e-05
-0.000195835
2.15316e-06
-0.000108061
2.85342e-05
-5.72596e-06
4.25714e-05
0.000100916
0.000201814
-0.000399831
-0.0002727
0.000239758
-0.000430718
-0.000220551
0.000278858
-0.000430659
-0.0001825
0.000287882
-0.000397016
-0.000147016
0.000258104
-0.000335195
-0.000116929
0.000190305
-0.000259786
-0.000100025
9.39269e-05
-0.000189549
-0.000102008
-1.28523e-05
-0.000137969
-0.000122569
-0.000109245
-0.000109659
-0.000155969
-0.000177446
-0.000101872
-0.000194079
-0.000210823
-0.00010996
-0.000230066
-0.000210681
-0.000131494
-0.000258408
-0.000181173
-0.000166865
-0.000275041
-0.000125954
-0.000216235
-0.000279233
-4.98275e-05
-0.00027644
-0.00027543
3.80069e-05
-0.000266995
0.000119226
-0.000547155
-0.000137473
8.29408e-05
-0.00059244
-0.000104383
0.000132536
-0.000594594
-8.82824e-05
0.000166855
-0.000553446
-7.85347e-05
0.000174963
-0.000474168
-7.5096e-05
0.000154464
-0.000370059
-8.10907e-05
0.000109439
-0.000260245
-9.79603e-05
4.95771e-05
-0.000163781
-0.000122784
-1.26939e-05
-9.471e-05
-0.000149281
-6.7649e-05
-6.05301e-05
-0.000171828
-0.000109968
-6.26131e-05
-0.000187766
-0.00013916
-9.87182e-05
-0.000195183
-0.000153829
-0.000164419
-0.000191584
-0.00014912
-0.000252249
-0.000177564
-0.000120646
-0.000352462
-0.000159723
-6.98763e-05
-0.000144983
-7.29513e-06
-0.000647911
4.35365e-05
-7.77599e-05
-0.00069849
4.1474e-05
-1.89411e-05
-0.000697504
2.54524e-05
3.92499e-05
-0.000647039
1.2974e-06
8.38537e-05
-0.000552525
-2.8963e-05
0.000109213
-0.000426446
-6.37569e-05
0.000114808
-0.000287273
-9.95357e-05
0.000103313
-0.000156622
-0.000129833
7.93887e-05
-5.56455e-05
-0.000146371
4.67626e-05
-1.26765e-06
-0.000144616
5.68067e-06
-1.60553e-06
-0.000127473
-4.52749e-05
-5.49038e-05
-0.000100318
-0.000101641
-0.000150482
-6.656e-05
-0.000149285
-0.000272691
-2.94266e-05
-0.000172757
-0.000405044
2.28911e-06
-0.000163761
1.86532e-05
-0.00012196
-0.000690204
0.000244584
-0.000236025
-0.000737782
0.000198669
-0.000172045
-0.000728658
0.000145213
-9.53384e-05
-0.000667617
8.24201e-05
-2.01158e-05
-0.000560993
1.50899e-05
4.44378e-05
-0.000420844
-5.09711e-05
9.36207e-05
-0.000264418
-0.000107848
0.000125536
-0.000113378
-0.000145015
0.000140041
7.39066e-06
-0.000150923
0.000136499
7.34733e-05
-0.000120392
0.000109873
6.99821e-05
-6.13148e-05
5.17656e-05
-9.30141e-07
1.01233e-05
-3.57009e-05
-0.000123562
8.21154e-05
-0.000130919
-0.000272826
0.000144911
-0.000206322
-0.000426772
0.000189476
-0.000241965
0.0002039
-0.000225167
-0.000671159
0.000436453
-0.000378543
-0.000707466
0.000344925
-0.000314785
-0.000685545
0.000251469
-0.000226547
-0.000612458
0.000149047
-0.000129289
-0.000496796
4.40825e-05
-3.59457e-05
-0.000350377
-5.31531e-05
4.53e-05
-0.000188912
-0.000130998
0.000109629
-3.24668e-05
-0.000175246
0.000155529
9.41291e-05
-0.000170988
0.000181554
0.000161611
-0.00010996
0.00017972
0.000149633
-3.58557e-06
0.000131944
6.00174e-05
0.000119786
3.05919e-05
-8.38863e-05
0.000234492
-0.000100521
-0.000251114
0.000324314
-0.000221948
-0.00041509
0.000379871
-0.000301467
0.000389986
-0.000314409
-0.000592494
0.000590205
-0.000481993
-0.000609661
0.000457489
-0.000423242
-0.000570224
0.000324462
-0.000329746
-0.000484779
0.000183528
-0.00022001
-0.000363812
4.42071e-05
-0.000110749
-0.000219507
-8.03405e-05
-1.32062e-05
-6.524e-05
-0.000175993
6.73267e-05
8.20524e-05
-0.000225617
0.000131315
0.000199228
-0.000210819
0.000180294
0.000257394
-0.00012016
0.000206104
0.000232985
3.43224e-05
0.000182574
0.000127134
0.000212961
8.72143e-05
-3.21746e-05
0.000373163
-6.22425e-05
-0.00020794
0.000489425
-0.000217875
-0.000370491
0.000552764
-0.000335387
0.000556353
-0.000380118
-0.000458684
0.000682287
-0.000516514
-0.000450059
0.000517891
-0.000465582
-0.000390979
0.000349192
-0.000372348
-0.000295106
0.000175612
-0.000260768
-0.000175268
9.63581e-06
-0.000151765
-4.31432e-05
-0.000133998
-5.77231e-05
9.11416e-05
-0.000240583
1.88981e-05
0.000214258
-0.000291449
8.40754e-05
0.000307645
-0.000265744
0.000144273
0.00034679
-0.00014922
0.000193116
0.000309192
4.74503e-05
0.00019996
0.000193724
0.000277822
0.00012807
2.88311e-05
0.000482611
-1.85864e-05
-0.000144947
0.000623481
-0.000190873
-0.000295182
0.000690308
-0.000334096
0.000683917
-0.000406593
-0.000276002
0.000698515
-0.000456606
-0.000238714
0.000516001
-0.000414176
-0.000162431
0.000320586
-0.000328028
-6.30684e-05
0.000126047
-0.000228345
4.53237e-05
-5.28939e-05
-0.00013912
0.000153867
-0.000203327
-7.13028e-05
0.000255325
-0.000311599
-2.01465e-05
0.000340507
-0.000358504
2.87774e-05
0.000396835
-0.000321994
8.75183e-05
0.00040827
-0.000186886
0.000150487
0.000359169
3.77566e-05
0.000185707
0.00024661
0.000305569
0.000148623
9.27301e-05
0.000547114
2.72793e-05
-6.44015e-05
0.00070942
-0.000137624
-0.000190695
0.000776115
-0.000286593
0.000754679
-0.000373809
-5.68478e-05
0.000635781
-0.000302108
6.07556e-06
0.000450088
-0.000266321
9.01923e-05
0.000244717
-0.000194998
0.000181198
4.70369e-05
-0.000122462
0.000266497
-0.000127309
-7.30993e-05
0.000340215
-0.000270008
-5.24865e-05
0.000398273
-0.000369865
-4.532e-05
0.000435064
-0.000407993
-2.65899e-05
0.000444655
-0.000362598
1.96481e-05
0.000421414
-0.000219933
8.77495e-05
0.000361724
1.22225e-05
0.000144484
0.000265252
0.000291704
0.000145371
0.000144711
0.000549994
6.86832e-05
2.66778e-05
0.00072492
-5.99626e-05
-5.93357e-05
0.000789149
-0.000186713
0.000748988
-0.000265951
0.000167702
0.000502584
-9.21026e-05
0.000245293
0.000328089
-5.7809e-05
0.000325979
0.000134135
-5.7461e-06
0.000397126
-4.39864e-05
3.01203e-05
0.000450687
-0.000194857
2.70622e-05
0.000483645
-0.000315901
-1.25737e-05
0.000493502
-0.000398666
-6.0382e-05
0.000477791
-0.000425347
-8.01032e-05
0.000437405
-0.000375558
-5.23851e-05
0.000378005
-0.000238002
1.33226e-05
0.000307465
-2.13722e-05
8.42741e-05
0.000232973
0.000238378
0.000119973
0.000162129
0.000481916
9.74188e-05
0.000106566
0.000648977
2.88703e-05
8.14817e-05
0.000704779
-4.62037e-05
0.000648986
-9.02488e-05
0.000344216
0.000319284
0.00011452
0.000425482
0.000167002
0.000152697
0.0004928
7.55307e-06
0.00018785
0.000539241
-0.000130191
0.000187565
0.000561371
-0.000241772
0.000131991
0.000556964
-0.000330069
3.17743e-05
0.000522844
-0.000390085
-7.14909e-05
0.000459827
-0.000405532
-0.000130802
0.000376164
-0.000358373
-0.000124771
0.000286993
-0.000240012
-6.53991e-05
0.000209319
-5.9503e-05
1.43123e-05
0.00015642
0.000153024
7.96403e-05
0.000135332
0.000350745
0.000109384
0.000147436
0.000484116
0.000107399
0.000191781
0.000519893
9.82698e-05
0.000456348
0.000109311
0.000424057
0.000114763
0.000276364
0.00049752
-5.48727e-06
0.000319519
0.000547394
-0.000114648
0.0003416
0.000573098
-0.000199332
0.00031249
0.000573878
-0.000262838
0.000215047
0.000544772
-0.00031283
6.60058e-05
0.000481013
-0.000347915
-8.27809e-05
0.000386278
-0.00035514
-0.000176491
0.000275908
-0.000319007
-0.00019199
0.000172154
-0.000232457
-0.000142052
9.66321e-05
-0.000103151
-5.77082e-05
6.45665e-05
4.58049e-05
3.02087e-05
8.14357e-05
0.000180248
0.000102859
0.000141977
0.000264209
0.000157394
0.00023527
0.000273925
0.000207112
0.000212409
0.000271893
0.000392191
-8.00772e-05
0.000378014
0.000447274
-0.000158027
0.000423536
0.000478615
-0.000212508
0.00043413
0.000491339
-0.000243351
0.000384497
0.000484822
-0.000259617
0.000261011
0.000449548
-0.000272669
8.30615e-05
0.000377579
-0.000285485
-9.40965e-05
0.000274443
-0.000289368
-0.00021257
0.00016018
-0.000271303
-0.000247579
6.05569e-05
-0.000224043
-0.000209944
-2.31133e-06
-0.000151529
-0.000127042
-1.53978e-05
-6.86965e-05
-2.56978e-05
2.2864e-05
2.46225e-06
7.59162e-05
0.000102934
3.92383e-05
0.000169986
0.000207996
2.73372e-05
0.000259812
-2.50228e-05
0.000358119
0.000266992
-0.000235264
0.000417449
0.00029614
-0.000265111
0.000461732
0.000309462
-0.000271182
0.000462407
0.000316138
-0.000258242
0.000401038
0.000314684
-0.000237494
0.00026884
0.000291472
-0.000222466
8.47583e-05
0.000234527
-0.000219895
-0.00010035
0.000148075
-0.000225345
-0.00023152
5.23081e-05
-0.000228002
-0.00028272
-2.77007e-05
-0.000219332
-0.00026034
-7.23093e-05
-0.000198343
-0.000186416
-7.22912e-05
-0.000171757
-8.37025e-05
-2.98994e-05
-0.000151034
3.05207e-05
4.24468e-05
-0.000148143
0.000145215
0.000127364
-0.000169662
0.000255701
-0.000207961
0.000364632
8.30702e-05
-0.000326813
0.000398682
8.43682e-05
-0.00031207
0.000439695
8.25194e-05
-0.000283691
0.000435147
8.83837e-05
-0.000243712
0.000373062
0.000100132
-0.000202114
0.0002495
0.000102493
-0.000172596
8.0792e-05
7.94505e-05
-0.000163769
-9.23356e-05
2.98676e-05
-0.000174164
-0.000223318
-3.12773e-05
-0.000194841
-0.00028618
-8.3345e-05
-0.000216231
-0.000281507
-0.000110453
-0.00023307
-0.000224699
-0.000106511
-0.000245286
-0.000133687
-7.56673e-05
-0.000256273
-2.36561e-05
-3.00155e-05
-0.000270441
9.33693e-05
1.6802e-05
-0.000290484
0.000207652
-0.000312104
0.000311225
-0.000112371
0.000333108
-0.00013672
0.0003703
-0.000150442
0.000367467
-0.000143361
0.00031686
-0.000116165
0.000217435
-8.28692e-05
8.14394e-05
-6.24892e-05
-6.28255e-05
-6.44691e-05
-0.000180708
-8.35007e-05
-0.000248687
-0.000105956
-0.000261936
-0.000119843
-0.000228609
-0.000120568
-0.000160885
-0.000111558
-7.02702e-05
-0.000101442
3.2598e-05
-9.83875e-05
0.000136527
0.000226395
-0.000455509
-0.000126393
0.00019847
-0.000475516
-9.62114e-05
0.000213695
-0.000468198
-8.25516e-05
0.000202481
-0.000431765
-7.67278e-05
0.00015516
-0.000370329
-7.9658e-05
7.62221e-05
-0.000296003
-9.55901e-05
-1.97309e-05
-0.000224838
-0.000125832
-0.000112803
-0.00017089
-0.000165769
-0.000184901
-0.000141628
-0.000204586
-0.000225718
-0.000138622
-0.000231
-0.000234617
-0.00015863
-0.000239011
-0.000216668
-0.000195627
-0.00022938
-0.000177277
-0.000243278
-0.000207122
-0.000119913
-0.000296156
-0.000179347
-4.84917e-05
-0.000350392
-0.000154392
3.01675e-05
-0.000137758
0.00010282
-0.000553196
1.48559e-05
1.95589e-05
-0.00058677
2.36004e-05
4.62983e-05
-0.000581412
1.6819e-05
6.21265e-05
-0.000536996
-1.11398e-06
5.49332e-05
-0.00045739
-2.95164e-05
2.47157e-05
-0.000353591
-6.94044e-05
-2.05454e-05
-0.000243121
-0.000117155
-6.95698e-05
-0.000145265
-0.000164786
-0.000111533
-7.73013e-05
-0.000199757
-0.000140442
-5.04814e-05
-0.000211105
-0.000156683
-6.71866e-05
-0.000196867
-0.000164598
-0.000120711
-0.000163644
-0.00016604
-0.000199342
-0.000120271
-0.000157339
-0.0002904
-7.55055e-05
-0.000133429
-0.000383691
-3.8275e-05
-9.27024e-05
-1.5966e-05
-3.74489e-05
-0.000599586
0.000189717
-0.000156122
-0.000640353
0.000166714
-0.000121288
-0.00063351
0.000130799
-8.15725e-05
-0.00058025
8.04691e-05
-5.09894e-05
-0.000484519
1.80494e-05
-3.40839e-05
-0.000357671
-5.23676e-05
-2.90769e-05
-0.000217166
-0.000123
-3.13473e-05
-8.52987e-05
-0.000180698
-3.6567e-05
1.41329e-05
-0.00020932
-4.31061e-05
6.04317e-05
-0.000197138
-5.45846e-05
4.4201e-05
-0.00014731
-7.86018e-05
-2.75983e-05
-7.64611e-05
-0.000117025
-0.000136716
-1.28443e-06
-0.000159154
-0.000262139
6.61962e-05
-0.000189035
-0.000387259
0.000116606
-0.000193523
0.00014097
-0.000163067
-0.000595693
0.000373886
-0.000316282
-0.000636352
0.000314591
-0.000279262
-0.000623143
0.000244372
-0.000222121
-0.000559082
0.000156693
-0.000160401
-0.000449611
5.59938e-05
-0.000102977
-0.000306322
-4.87913e-05
-5.32448e-05
-0.000146868
-0.00014465
-1.22673e-05
5.99049e-06
-0.00021364
2.01254e-05
0.000125557
-0.000235257
4.28692e-05
0.000184228
-0.000195148
4.92108e-05
0.000165071
-0.000100451
2.40634e-05
7.44835e-05
1.91135e-05
-4.06876e-05
-6.22552e-05
0.000134233
-0.000129698
-0.000215915
0.00022788
-0.000214346
-0.000363728
0.00029127
-0.000268816
0.000315105
-0.00027125
-0.000547028
0.000541595
-0.000446568
-0.000579741
0.000445741
-0.000413222
-0.000554754
0.000338164
-0.000345326
-0.000477581
0.000210712
-0.000260482
-0.000356284
7.07451e-05
-0.000171994
-0.000203659
-6.7984e-05
-8.81323e-05
-3.71252e-05
-0.000187677
-1.38789e-05
0.000121951
-0.000266418
4.92299e-05
0.000247469
-0.000279987
0.000100766
0.000309443
-0.000210523
0.000133122
0.000284595
-6.63786e-05
0.000122719
0.000176745
0.000109497
4.80586e-05
1.71985e-05
0.000270329
-7.70701e-05
-0.000157039
0.000391841
-0.000211672
-0.000317774
0.000466382
-0.000315845
0.000487149
-0.000356884
-0.00045985
0.000670284
-0.000527394
-0.000476571
0.000540375
-0.000501154
-0.00043482
0.00039432
-0.000427653
-0.000343363
0.000227376
-0.000328131
-0.000213559
5.09736e-05
-0.000220781
-5.99441e-05
-0.000116638
-0.000118167
0.000100887
-0.000254477
-2.67039e-05
0.000250124
-0.000338099
5.37603e-05
0.000365662
-0.00034136
0.000126129
0.000420437
-0.000243801
0.000184607
0.000388642
-5.20254e-05
0.000200015
0.00026885
0.000182195
0.000134308
9.42674e-05
0.000392184
-9.51457e-06
-9.11315e-05
0.000541666
-0.000182301
-0.000254632
0.000624347
-0.000329851
0.000638997
-0.000410037
-0.000339661
0.000743718
-0.00053548
-0.00033321
0.000584635
-0.000516293
-0.000271896
0.000402125
-0.000441467
-0.000168068
0.000200322
-0.000337542
-3.61954e-05
-4.95453e-06
-0.00022771
0.00010772
-0.000191323
-0.000126954
0.000248928
-0.000337826
-3.89606e-05
0.000372142
-0.000419089
4.18511e-05
0.000461225
-0.000409283
0.000123113
0.000497203
-0.000287737
0.000201074
0.000458317
-5.81289e-05
0.00024495
0.000337198
0.000226959
0.000204426
0.000161072
0.000485045
6.46783e-05
-2.35606e-05
0.000662397
-0.000126971
-0.000179138
0.000749982
-0.000304154
0.000754614
-0.000416155
-0.000190608
0.000753197
-0.000450521
-0.000156949
0.000572829
-0.000436029
-7.76839e-05
0.000360921
-0.000366089
3.19723e-05
0.000134793
-0.000272472
0.000154754
-8.49684e-05
-0.000181887
0.000276505
-0.00027719
-0.000107187
0.00038406
-0.000420693
-4.48338e-05
0.000466518
-0.000492067
1.92978e-05
0.000514659
-0.000467788
9.78818e-05
0.000520569
-0.000329401
0.00018624
0.000473227
-7.89523e-05
0.000253872
0.000364091
0.000237192
0.000247525
0.000207189
0.000532956
0.000136271
4.15459e-05
0.000736826
-4.64109e-05
-9.33644e-05
0.000828402
-0.000230103
0.000819557
-0.000357072
-1.85823e-05
0.000696203
-0.000270216
4.02215e-05
0.000505703
-0.000257998
0.000129317
0.000279002
-0.000202175
0.000232503
4.61445e-05
-0.000137001
0.000333731
-0.000170414
-8.88822e-05
0.000420527
-0.000352644
-6.38286e-05
0.000482796
-0.00048223
-4.60519e-05
0.000513823
-0.000538645
-1.10391e-05
0.000511893
-0.000501627
5.54171e-05
0.000480227
-0.000356453
0.000146468
0.00042115
-0.000105971
0.00023058
0.0003327
0.000211849
0.000259164
0.000217693
0.000520597
0.000196048
9.68399e-05
0.000741739
5.59774e-05
1.50234e-06
0.000838376
-0.000101348
0.000815758
-0.000216965
0.000157274
0.000574559
-2.77913e-05
0.000231847
0.000388928
-1.56075e-05
0.000317622
0.000169546
1.79357e-05
0.000400919
-4.68366e-05
3.98042e-05
0.000469657
-0.000240429
2.83405e-05
0.00051387
-0.000398252
-1.11787e-05
0.00052554
-0.00050589
-4.83925e-05
0.00050214
-0.000546025
-4.93232e-05
0.000449585
-0.000501853
3.95528e-07
0.000380413
-0.000362836
8.88767e-05
0.000308147
-0.000133371
0.000183941
0.000240553
0.000155354
0.000244061
0.000178609
0.000442405
0.000237556
0.000125821
0.000656885
0.000166512
9.50812e-05
0.000752502
7.041e-05
0.000723063
-2.41309e-06
0.000291365
0.000399678
0.000213671
0.000370285
0.000234573
0.000228132
0.000441627
4.82177e-05
0.000237836
0.000497767
-0.000128236
0.000212824
0.000531973
-0.000281449
0.000138805
0.000535718
-0.000404128
3.39052e-05
0.00050169
-0.00048594
-5.74125e-05
0.000431396
-0.000512561
-9.3972e-05
0.000337668
-0.000470118
-6.27773e-05
0.000240518
-0.000351033
1.99475e-05
0.000159953
-0.000161018
0.000122525
0.000110397
7.46587e-05
0.000209891
9.56545e-05
0.000309535
0.000256996
0.00011161
0.000488061
0.000260267
0.000153498
0.000567642
0.000241242
0.000537844
0.000232392
0.000335262
0.00019712
0.000396776
0.000407503
6.75729e-05
0.000414278
0.00045999
-6.67109e-05
0.000404042
0.00049209
-0.000187894
0.000340048
0.000500923
-0.000290589
0.000215354
0.000477253
-0.000373157
5.87053e-05
0.000413464
-0.000429465
-7.54667e-05
0.000314401
-0.000448043
-0.000141946
0.000198355
-0.000416904
-0.000129159
8.97748e-05
-0.000329642
-5.4862e-05
1.14222e-05
-0.000191151
5.07775e-05
-2.11346e-05
-2.11208e-05
0.000158545
-3.39151e-06
0.00014689
0.00024776
5.78854e-05
0.000272875
0.000311304
0.000149321
0.000325319
0.000358
0.000298167
0.000407776
0.000272859
2.88165e-06
0.000496244
0.000328643
-7.92253e-05
0.00051455
0.000362896
-0.000155884
0.00048905
0.000380352
-0.000220115
0.000399261
0.000379095
-0.000272917
0.000244596
0.000347751
-0.000317713
5.8961e-05
0.000277402
-0.00035276
-0.000100453
0.0001743
-0.000369392
-0.000188119
5.91356e-05
-0.00035653
-0.000192788
-4.25611e-05
-0.000307071
-0.000130819
-0.000108933
-0.000223122
-2.86998e-05
-0.000126629
-0.00011799
8.8868e-05
-9.31962e-05
-1.43797e-05
0.000203753
-1.75522e-05
6.12158e-05
0.000306001
8.45188e-05
8.82931e-05
0.000394767
6.56349e-05
0.00047832
0.00012683
-0.000145822
0.000511103
0.000159709
-0.000177804
0.000527432
0.000178536
-0.000204455
0.00049215
0.000190709
-0.000222677
0.000391427
0.000193671
-0.000236571
0.000229532
0.000174098
-0.000253059
3.96775e-05
0.000120842
-0.000274088
-0.000125766
3.81455e-05
-0.000293578
-0.000224638
-5.52207e-05
-0.000300852
-0.000245032
-0.000136231
-0.000287143
-0.000199258
-0.000186132
-0.0002508
-0.000108837
-0.000194788
-0.000198881
5.84545e-06
-0.000162175
-0.000145285
0.000128813
-9.78796e-05
-0.00010629
0.000248425
-1.70053e-05
-9.41344e-05
0.000357254
-0.000109216
0.000450697
-6.01302e-05
-0.000222327
0.000452889
-5.16372e-05
-0.000212833
0.000466231
-4.43872e-05
-0.000205815
0.000429257
-3.07639e-05
-0.000196282
0.000333045
-1.38995e-05
-0.000188476
0.00018454
-7.8461e-06
-0.000190486
1.21656e-05
-2.64264e-05
-0.000206258
-0.000141585
-7.07321e-05
-0.000231453
-0.000241138
-0.00012842
-0.000255729
-0.000273615
-0.00018186
-0.000268878
-0.000246332
-0.000216349
-0.000265962
-0.000175048
-0.00022436
-0.000249078
-7.54791e-05
-0.000206616
-0.000225836
3.91498e-05
-0.000171018
-0.00020593
0.000157411
-0.000128607
-0.000197449
0.000268556
-0.000202358
0.000358188
-0.000240669
0.000340839
-0.000254434
0.000352612
-0.000255201
0.000323054
-0.00023673
0.000245346
-0.000201868
0.000126402
-0.000164048
-1.19444e-05
-0.00013984
-0.000138674
-0.000137738
-0.000226785
-0.000154178
-0.000264379
-0.000178749
-0.000254454
-0.000201217
-0.000207099
-0.000215726
-0.000132973
-0.000221785
-4.13152e-05
-0.000223051
5.8823e-05
-0.000224736
0.000157232
0.000236872
-0.000430124
8.96361e-06
0.000139776
-0.000438874
2.53137e-05
0.000139805
-0.000428434
2.95789e-05
0.000114323
-0.000397029
2.44591e-05
5.42716e-05
-0.000346709
7.67074e-06
-3.23362e-05
-0.00028586
-2.50454e-05
-0.000126302
-0.000226345
-7.43807e-05
-0.000205816
-0.000179449
-0.000132846
-0.000254973
-0.000153616
-0.000185048
-0.000268715
-0.000153786
-0.000214028
-0.000252244
-0.000179299
-0.000211234
-0.000215856
-0.000222808
-0.00018102
-0.000168309
-0.000273415
-0.000135774
-0.000113443
-0.000321618
-8.85872e-05
-5.28128e-05
-0.000362686
-4.99252e-05
1.12759e-05
-2.54055e-05
7.26211e-05
-0.00047468
0.000137443
-5.08621e-05
-0.000499528
0.000136301
-3.98414e-05
-0.0004938
0.000123425
-3.74473e-05
-0.000455844
9.69504e-05
-5.5515e-05
-0.000386811
5.54325e-05
-9.20785e-05
-0.000294575
-1.74588e-06
-0.000136081
-0.000193322
-7.12291e-05
-0.000173974
-0.000100899
-0.000141296
-0.000195505
-3.55332e-05
-0.000193178
-0.000197677
-1.16939e-05
-0.000208591
-0.000185959
-3.44113e-05
-0.000182098
-0.000171017
-9.53149e-05
-0.000125601
-0.000160555
-0.000177697
-5.77774e-05
-0.000152953
-0.000265099
6.62566e-06
-0.00014124
-0.000345558
5.5793e-05
-0.000117962
8.57901e-05
-7.75803e-05
-0.000474458
0.000288249
-0.000228122
-0.000510091
0.000263082
-0.000212436
-0.000505264
0.000224825
-0.000187799
-0.000458839
0.000167828
-0.000168292
-0.000372341
9.2265e-05
-0.000157414
-0.000254115
2.03297e-06
-0.000151082
-0.00011994
-9.36737e-05
-0.000143077
8.62061e-06
-0.000177633
-0.000128791
0.000106941
-0.000226666
-0.000107939
0.000151587
-0.000220018
-8.78042e-05
0.000130135
-0.000156145
-8.31026e-05
5.05574e-05
-5.84171e-05
-0.000104632
-6.36992e-05
4.36304e-05
-0.000146305
-0.000186752