/*--------------------------------*- C++ -*----------------------------------*\
| =========                 |                                                 |
| \\      /  F ield         | OpenFOAM: The Open Source CFD Toolbox           |
|  \\    /   O peration     | Version:  3.0.0                                 |
|   \\  /    A nd           | Web:      www.OpenFOAM.org                      |
|    \\/     M anipulation  |                                                 |
\*---------------------------------------------------------------------------*/
FoamFile
{
    version     2.0;
    format      ascii;
    class       volVectorField;
    location    "8.75";
    object      U;
}
// * * * * * * * * * * * * * * * * * * * * * * * * * * * * * * * * * * * * * //

dimensions      [0 1 -1 0 0 0 0];

internalField   nonuniform List<vector> 
4096
(
(-0.0649285 -0.118973 0.0644803)
(-0.0722565 -0.0977062 0.084263)
(-0.0794355 -0.0746816 0.094782)
(-0.076922 -0.0494147 0.0944982)
(-0.0662716 -0.0252207 0.0825694)
(-0.0510781 -0.00677117 0.0593743)
(-0.0359734 0.00235897 0.0282838)
(-0.0245439 0.000977972 -0.00383754)
(-0.0175988 -0.00976101 -0.0296818)
(-0.0137414 -0.0274216 -0.0451877)
(-0.0112237 -0.0492018 -0.0502511)
(-0.00969455 -0.0719638 -0.0465739)
(-0.0106792 -0.0924166 -0.0353685)
(-0.0169161 -0.107783 -0.0171903)
(-0.0303217 -0.116837 0.00615999)
(-0.0424741 -0.11866 0.0303854)
(-0.111811 -0.0899249 0.0367349)
(-0.122624 -0.0714141 0.058709)
(-0.133428 -0.0546303 0.0747795)
(-0.130996 -0.036877 0.0829376)
(-0.117493 -0.0196827 0.0819341)
(-0.0961026 -0.006222 0.0715628)
(-0.0712144 0.000573294 0.0536175)
(-0.0474268 -0.000668781 0.0320083)
(-0.0278661 -0.00954487 0.0111547)
(-0.0139313 -0.0243865 -0.00614197)
(-0.00606822 -0.0427574 -0.019236)
(-0.00499853 -0.0613692 -0.0279996)
(-0.011967 -0.0766679 -0.030868)
(-0.0282162 -0.0861354 -0.0256336)
(-0.053475 -0.0898158 -0.0124026)
(-0.0727642 -0.0883759 0.00495328)
(-0.15273 -0.0551069 0.00659848)
(-0.162441 -0.0421125 0.0311665)
(-0.174234 -0.0322254 0.0527441)
(-0.170207 -0.0223282 0.0691559)
(-0.153541 -0.0129861 0.0788691)
(-0.127259 -0.00599972 0.0811025)
(-0.0952159 -0.00298419 0.0762087)
(-0.0622115 -0.00455124 0.0655885)
(-0.032912 -0.0104154 0.0509448)
(-0.0110779 -0.0198692 0.0332517)
(0.000546377 -0.0317791 0.0128888)
(-5.46181e-05 -0.0437852 -0.00839641)
(-0.0136283 -0.0527948 -0.0258892)
(-0.0395191 -0.0568005 -0.0340306)
(-0.0752232 -0.0567457 -0.030725)
(-0.0987543 -0.0541837 -0.0188289)
(-0.180359 -0.0072233 -0.0280292)
(-0.186536 -0.00494312 -0.00101226)
(-0.196987 -0.00482489 0.0253144)
(-0.190368 -0.00471049 0.0488071)
(-0.170873 -0.00439893 0.067543)
(-0.14148 -0.00447145 0.0802196)
(-0.105504 -0.00546071 0.0862746)
(-0.0673668 -0.00734775 0.085651)
(-0.0321859 -0.00964263 0.0781953)
(-0.00533432 -0.0121654 0.0629273)
(0.0082928 -0.0150278 0.0388486)
(0.00528274 -0.0173591 0.00810862)
(-0.0144709 -0.0174127 -0.0220776)
(-0.0482303 -0.0146245 -0.042775)
(-0.0914544 -0.0108969 -0.0493424)
(-0.116846 -0.00868937 -0.0425085)
(-0.190345 0.0464456 -0.0653862)
(-0.191894 0.0349324 -0.0368374)
(-0.198765 0.0237469 -0.00732631)
(-0.188829 0.0131894 0.021076)
(-0.167028 0.00398323 0.0459785)
(-0.136329 -0.00337794 0.0656913)
(-0.0994878 -0.00855913 0.0793054)
(-0.0602259 -0.0108785 0.0863618)
(-0.0234747 -0.00946665 0.0860158)
(0.00465394 -0.00429429 0.0758629)
(0.0178402 0.00346736 0.0528609)
(0.0116888 0.0128315 0.0178955)
(-0.0132829 0.0234599 -0.0207611)
(-0.0524183 0.0337226 -0.0516894)
(-0.0994644 0.0408963 -0.0674424)
(-0.12515 0.0418117 -0.0657915)
(-0.179958 0.0977935 -0.0992826)
(-0.17668 0.071894 -0.0707653)
(-0.177774 0.0488858 -0.0399702)
(-0.164087 0.0274733 -0.00918007)
(-0.140795 0.00891636 0.0184695)
(-0.110668 -0.00561012 0.0411704)
(-0.0758116 -0.0150713 0.0582257)
(-0.0390711 -0.0180959 0.0696658)
(-0.00484964 -0.0131176 0.0749877)
(0.0206684 0.000151365 0.071288)
(0.030634 0.0195848 0.053502)
(0.0204716 0.0419316 0.0199738)
(-0.00861169 0.0640735 -0.0219431)
(-0.0504106 0.0820012 -0.0595095)
(-0.0973874 0.0922347 -0.0827847)
(-0.122351 0.0914577 -0.0864502)
(-0.148305 0.138 -0.119633)
(-0.140272 0.0997053 -0.0931412)
(-0.134289 0.0655572 -0.0629191)
(-0.11713 0.0342017 -0.032599)
(-0.0937365 0.00748161 -0.00595488)
(-0.0664656 -0.0132075 0.0152051)
(-0.0364257 -0.0265456 0.0310208)
(-0.00550671 -0.0304025 0.0428129)
(0.0225982 -0.0221597 0.0512149)
(0.0421967 -0.000878347 0.0535673)
(0.0468385 0.0305415 0.0433224)
(0.0324088 0.0662542 0.0158055)
(0.000775001 0.0998458 -0.0241558)
(-0.0408437 0.124939 -0.0639778)
(-0.0840621 0.137366 -0.0918791)
(-0.107291 0.13457 -0.100258)
(-0.0971042 0.158264 -0.116831)
(-0.0844456 0.112193 -0.0942699)
(-0.0716475 0.0693089 -0.066635)
(-0.0526753 0.030835 -0.0398922)
(-0.0315519 -0.00117176 -0.0184696)
(-0.00979332 -0.0257103 -0.00375371)
(0.012621 -0.0416544 0.00587139)
(0.0347704 -0.0461138 0.0136508)
(0.0537044 -0.0351836 0.0218488)
(0.0648401 -0.0069923 0.028441)
(0.0632041 0.0351496 0.0260401)
(0.0457351 0.0830084 0.00745704)
(0.0144812 0.126795 -0.0257619)
(-0.0233486 0.157662 -0.0626948)
(-0.0591201 0.170647 -0.0908262)
(-0.078539 0.164776 -0.101692)
(-0.0328243 0.153264 -0.090266)
(-0.0154741 0.105421 -0.071796)
(0.00179147 0.0584266 -0.0483673)
(0.0199512 0.0176373 -0.0278909)
(0.0361681 -0.0150723 -0.0153799)
(0.0500529 -0.0400265 -0.0114706)
(0.062622 -0.0565902 -0.0125438)
(0.0736504 -0.0610773 -0.0127816)
(0.0810142 -0.0482745 -0.00801213)
(0.0818496 -0.0155131 0.000327269)
(0.0736434 0.0337498 0.00447735)
(0.0552603 0.0899242 -0.00408585)
(0.0286972 0.140717 -0.0266478)
(-0.000302843 0.174944 -0.0550848)
(-0.0243661 0.186375 -0.0778197)
(-0.0353662 0.175329 -0.0869722)
(0.0317267 0.124676 -0.0507909)
(0.0541719 0.0800125 -0.0341577)
(0.0725747 0.0349968 -0.0147112)
(0.0877061 -0.00210291 -0.00125275)
(0.0975945 -0.0303437 0.000723128)
(0.10263 -0.0519041 -0.00871239)
(0.104459 -0.066829 -0.023501)
(0.103277 -0.0705944 -0.034612)
(0.097897 -0.0569517 -0.0357552)
(0.0875827 -0.0228876 -0.0280079)
(0.0728422 0.0279753 -0.0192706)
(0.0550898 0.0857902 -0.0183871)
(0.0367252 0.137499 -0.0282637)
(0.0213365 0.170793 -0.0437001)
(0.013054 0.178255 -0.0555883)
(0.0173472 0.160191 -0.0577066)
(0.0816422 0.0801375 -0.0108888)
(0.108633 0.0414367 0.00629483)
(0.125563 0.00420323 0.0232569)
(0.13712 -0.0236469 0.0310458)
(0.141474 -0.0430259 0.0234096)
(0.138831 -0.0579584 0.000672373)
(0.130846 -0.0690734 -0.0285896)
(0.118111 -0.0714098 -0.0516957)
(0.100701 -0.0582603 -0.0600758)
(0.0803191 -0.0267134 -0.0544758)
(0.0602574 0.0194988 -0.0428651)
(0.0441116 0.0709608 -0.033866)
(0.034899 0.115504 -0.0311453)
(0.0342925 0.141687 -0.0319816)
(0.0423147 0.142423 -0.0301044)
(0.0654902 0.117985 -0.020975)
(0.107766 0.0288619 0.0232022)
(0.13615 -0.00231358 0.0414899)
(0.150144 -0.02767 0.0568941)
(0.158815 -0.0426911 0.0607628)
(0.159951 -0.0505665 0.0458942)
(0.152606 -0.0567523 0.0122086)
(0.137661 -0.0624388 -0.0298079)
(0.116114 -0.0630162 -0.0640324)
(0.0897887 -0.0520669 -0.0796943)
(0.0628106 -0.0270115 -0.0769834)
(0.0405009 0.00868607 -0.0636138)
(0.0274959 0.0468936 -0.0478675)
(0.0266328 0.0776317 -0.0340051)
(0.0378173 0.0919325 -0.0215234)
(0.0575408 0.0845383 -0.00676866)
(0.0939006 0.0573036 0.0141115)
(0.10933 -0.0212256 0.0492603)
(0.134012 -0.0433412 0.0679542)
(0.143935 -0.0551567 0.0816372)
(0.150084 -0.0564837 0.0825943)
(0.150305 -0.0523417 0.0632058)
(0.141985 -0.0490266 0.0225134)
(0.124447 -0.0486819 -0.0282511)
(0.0988973 -0.0478196 -0.0708115)
(0.0689768 -0.0410047 -0.0926584)
(0.0406463 -0.0258447 -0.0930462)
(0.0201443 -0.00473474 -0.0789424)
(0.0118936 0.0164891 -0.0582146)
(0.0175845 0.0309261 -0.0358011)
(0.0353197 0.0327405 -0.0132162)
(0.0594998 0.0190391 0.0110257)
(0.0973095 -0.0063764 0.0403288)
(0.090114 -0.0645413 0.0657741)
(0.106518 -0.0758037 0.0842485)
(0.11124 -0.0746542 0.0958531)
(0.114559 -0.0639211 0.0945246)
(0.115224 -0.0493867 0.0733404)
(0.109394 -0.0376177 0.030585)
(0.0943844 -0.031906 -0.0233265)
(0.0710045 -0.0304831 -0.0700616)
(0.0438181 -0.0292276 -0.096224)
(0.0194755 -0.0255742 -0.0997984)
(0.0040044 -0.0201124 -0.0865008)
(0.000812616 -0.0157666 -0.0635773)
(0.0101453 -0.0161306 -0.0364432)
(0.0288258 -0.0240468 -0.00804744)
(0.0507405 -0.0402669 0.0212178)
(0.0798749 -0.0604368 0.0536896)
(0.0548513 -0.0976489 0.0723442)
(0.061082 -0.0967802 0.0903049)
(0.0600392 -0.0846909 0.100117)
(0.0603225 -0.0650091 0.0976722)
(0.0619203 -0.043274 0.0777235)
(0.0610335 -0.0258012 0.0383712)
(0.0534096 -0.0166559 -0.0124005)
(0.0383328 -0.0157183 -0.0585925)
(0.0195581 -0.020128 -0.0870542)
(0.00301038 -0.0270428 -0.0942773)
(-0.00621494 -0.035152 -0.0841959)
(-0.00576196 -0.0445875 -0.0629858)
(0.00364352 -0.0560028 -0.0358864)
(0.0184075 -0.069782 -0.00645914)
(0.0330739 -0.0852534 0.023518)
(0.0488659 -0.0989742 0.0545246)
(0.0113245 -0.108139 0.0697285)
(0.00888053 -0.0980233 0.0868088)
(0.00204612 -0.0804697 0.0958044)
(-0.00105803 -0.0573106 0.0944606)
(0.000795662 -0.032936 0.0794163)
(0.00531987 -0.0132502 0.0488025)
(0.00803061 -0.00298461 0.00713838)
(0.00578058 -0.00343319 -0.034065)
(-0.000719667 -0.0125508 -0.0631635)
(-0.00771321 -0.0269363 -0.0750032)
(-0.0112379 -0.0436528 -0.0710615)
(-0.00945709 -0.060717 -0.0557672)
(-0.00320163 -0.0768485 -0.033407)
(0.00442444 -0.0911464 -0.00727857)
(0.00939377 -0.10281 0.0200029)
(0.0128619 -0.110252 0.0466766)
(-0.102106 -0.086357 0.066088)
(-0.106396 -0.0705802 0.0798548)
(-0.112387 -0.057837 0.0852803)
(-0.10804 -0.0454204 0.0801214)
(-0.0949978 -0.0345896 0.0641461)
(-0.0764171 -0.0278908 0.0392283)
(-0.0568362 -0.0271248 0.0098369)
(-0.0406736 -0.0323368 -0.0178806)
(-0.0302808 -0.0418846 -0.0387014)
(-0.0257324 -0.0533921 -0.0501775)
(-0.0259012 -0.0647258 -0.0523654)
(-0.0297539 -0.0742267 -0.0462989)
(-0.0370006 -0.0807977 -0.0328988)
(-0.0482687 -0.084138 -0.0133223)
(-0.0642355 -0.0850147 0.0100091)
(-0.0741788 -0.0837652 0.0321694)
(-0.139218 -0.0542567 0.0290516)
(-0.145858 -0.0425496 0.0451908)
(-0.154684 -0.0351095 0.0568006)
(-0.149765 -0.0288918 0.0611368)
(-0.133608 -0.0241972 0.0572435)
(-0.10917 -0.0224296 0.045735)
(-0.0806612 -0.0245775 0.028919)
(-0.053164 -0.030342 0.0102719)
(-0.0310938 -0.038277 -0.00695115)
(-0.0173449 -0.0466219 -0.0208822)
(-0.0131071 -0.0540143 -0.0308981)
(-0.0181858 -0.0592843 -0.0364182)
(-0.0315884 -0.0614359 -0.0360833)
(-0.0523796 -0.0603687 -0.0287502)
(-0.0794603 -0.05751 -0.0150393)
(-0.0957731 -0.0540869 0.00158795)
(-0.16575 -0.0135871 -0.00957607)
(-0.172132 -0.00889986 0.00884945)
(-0.18184 -0.00841615 0.0263565)
(-0.175364 -0.00991717 0.0398744)
(-0.156077 -0.0130541 0.047704)
(-0.126926 -0.0180328 0.049364)
(-0.0918025 -0.0246201 0.0453844)
(-0.055896 -0.031637 0.0369919)
(-0.0248273 -0.0373069 0.0254504)
(-0.00377482 -0.0404192 0.0113189)
(0.00360825 -0.0409504 -0.0050726)
(-0.00361451 -0.0391202 -0.0219204)
(-0.0235273 -0.0348152 -0.0351966)
(-0.0532525 -0.0284427 -0.0409413)
(-0.0897946 -0.0220128 -0.0375136)
(-0.110668 -0.0176211 -0.0260947)
(-0.177501 0.0365393 -0.0490853)
(-0.182536 0.0307951 -0.0291513)
(-0.191046 0.0222249 -0.00702844)
(-0.182127 0.0113256 0.0140955)
(-0.159911 -0.00098626 0.0317687)
(-0.127451 -0.0137613 0.0445872)
(-0.0883608 -0.0255419 0.0519112)
(-0.0475795 -0.0341458 0.0536405)
(-0.0110822 -0.0370945 0.0496093)
(0.0145243 -0.0332645 0.0387161)
(0.0234001 -0.0240777 0.0196418)
(0.0132609 -0.0120834 -0.00586701)
(-0.0129216 0.00103318 -0.0314372)
(-0.0500798 0.0137058 -0.0500142)
(-0.0934028 0.0235776 -0.0572967)
(-0.117264 0.0277717 -0.0515784)
(-0.17344 0.0883773 -0.0862956)
(-0.176493 0.0708134 -0.066114)
(-0.181633 0.0521742 -0.0412159)
(-0.169381 0.0311425 -0.0148536)
(-0.14441 0.0091164 0.00975766)
(-0.110023 -0.0118088 0.0304466)
(-0.0695884 -0.0290815 0.0459785)
(-0.0275328 -0.0395102 0.0558792)
(0.0104293 -0.0397356 0.0595935)
(0.0372093 -0.0281466 0.0548564)
(0.0455018 -0.00734661 0.0378326)
(0.0318468 0.0170831 0.00831975)
(5.21929e-05 0.0406328 -0.0262839)
(-0.0426382 0.0601022 -0.0559863)
(-0.0896346 0.0730539 -0.0735937)
(-0.11527 0.0762864 -0.0743738)
(-0.154179 0.134048 -0.114973)
(-0.154471 0.105046 -0.0959072)
(-0.154121 0.0760209 -0.0699234)
(-0.137797 0.0447675 -0.0409223)
(-0.110496 0.0132843 -0.012856)
(-0.0757529 -0.0153714 0.0115098)
(-0.0366636 -0.0377905 0.0309405)
(0.00304627 -0.0499101 0.0455086)
(0.0384284 -0.0474475 0.055288)
(0.0628489 -0.0279231 0.0577667)
(0.0685681 0.00547294 0.0467461)
(0.0511961 0.0438968 0.0185645)
(0.0149496 0.078845 -0.0204291)
(-0.0310213 0.105196 -0.0581065)
(-0.0785742 0.120588 -0.0844849)
(-0.104904 0.12235 -0.0922006)
(-0.121308 0.166686 -0.12693)
(-0.117572 0.128035 -0.110035)
(-0.11024 0.0890341 -0.0844587)
(-0.0897781 0.0483091 -0.05548)
(-0.0612615 0.00867952 -0.0280184)
(-0.0283288 -0.0262532 -0.00491916)
(0.00644777 -0.0525652 0.0133114)
(0.0402165 -0.0656421 0.0281558)
(0.0690574 -0.0604058 0.0409682)
(0.0876511 -0.0334936 0.049655)
(0.0892979 0.0120618 0.0465679)
(0.0691859 0.0648055 0.0243244)
(0.030818 0.111555 -0.0137534)
(-0.0156731 0.144466 -0.0550606)
(-0.0607595 0.161304 -0.0872275)
(-0.0865217 0.16097 -0.101117)
(-0.0767182 0.181279 -0.115261)
(-0.0675337 0.135991 -0.101066)
(-0.0530958 0.0885394 -0.07759)
(-0.0297686 0.0404792 -0.0518862)
(-0.00235668 -0.00460892 -0.0296306)
(0.0259241 -0.0431099 -0.0132783)
(0.0532651 -0.0711808 -0.00154607)
(0.0776564 -0.0839669 0.00913911)
(0.0963571 -0.0759053 0.021612)
(0.105973 -0.0430838 0.0342259)
(0.102323 0.012028 0.0388153)
(0.0815363 0.0770924 0.0255364)
(0.0452909 0.134946 -0.00621732)
(0.00250114 0.173902 -0.0455156)
(-0.036704 0.191063 -0.0787729)
(-0.0597432 0.187554 -0.0960488)
(-0.0233663 0.175514 -0.0801121)
(-0.00793866 0.127409 -0.0681673)
(0.011559 0.0747832 -0.0484913)
(0.0349483 0.0231964 -0.0294021)
(0.0581413 -0.0232592 -0.0168911)
(0.0788246 -0.0617207 -0.0122307)
(0.0959705 -0.088952 -0.0116015)
(0.108283 -0.100068 -0.00873097)
(0.11421 -0.0893831 0.000572221)
(0.112558 -0.0530593 0.0146354)
(0.102433 0.00687739 0.0251863)
(0.0826133 0.0789302 0.0218392)
(0.0535862 0.144698 0.00104919)
(0.0207394 0.188753 -0.0296304)
(-0.00764627 0.205662 -0.0575739)
(-0.0233328 0.197738 -0.0731279)
(0.0311523 0.149941 -0.0316403)
(0.052747 0.102864 -0.0202363)
(0.0736111 0.050188 -0.00484298)
(0.0936788 0.000536374 0.00583416)
(0.110055 -0.0423284 0.00592848)
(0.121351 -0.0769503 -0.00418221)
(0.126987 -0.100826 -0.0174801)
(0.126076 -0.109219 -0.0246551)
(0.118303 -0.0966627 -0.0204046)
(0.104846 -0.05989 -0.00684187)
(0.0878988 -0.000962781 0.00770185)
(0.0693092 0.0701343 0.0135039)
(0.0502874 0.136727 0.00602898)
(0.0329186 0.182341 -0.0105218)
(0.0210296 0.198411 -0.0265203)
(0.0203003 0.185967 -0.0339737)
(0.0739075 0.107878 0.0163277)
(0.10013 0.0651378 0.0289935)
(0.118908 0.0185909 0.041071)
(0.133735 -0.0230394 0.0439224)
(0.142843 -0.0575063 0.0318216)
(0.145357 -0.0848899 0.00674678)
(0.140494 -0.103456 -0.0208199)
(0.127548 -0.108752 -0.0385209)
(0.10765 -0.0958031 -0.040134)
(0.0842662 -0.0620962 -0.0282936)
(0.0620107 -0.00998687 -0.0112678)
(0.0449266 0.0520159 0.0022307)
(0.035438 0.110262 0.00773196)
(0.0340486 0.150329 0.00701272)
(0.0402145 0.162839 0.00638643)
(0.0592295 0.147291 0.0119355)
(0.093917 0.0558341 0.0550656)
(0.120775 0.0202082 0.069422)
(0.135462 -0.0148481 0.0791526)
(0.14512 -0.0437344 0.075914)
(0.148924 -0.0663741 0.0540914)
(0.145702 -0.0842121 0.0167542)
(0.133816 -0.0963696 -0.0229032)
(0.112675 -0.0989923 -0.0499507)
(0.084885 -0.0877598 -0.0573872)
(0.0558836 -0.0607785 -0.0480002)
(0.0317898 -0.0203686 -0.0296681)
(0.0175233 0.0265342 -0.0101241)
(0.0157723 0.0695498 0.00625572)
(0.0260226 0.0977075 0.0193868)
(0.0449466 0.103507 0.0327796)
(0.0782029 0.0869815 0.0513962)
(0.0882557 0.00240402 0.0815385)
(0.110331 -0.0234254 0.0968346)
(0.119956 -0.0443261 0.104232)
(0.125467 -0.0587292 0.0964492)
(0.126855 -0.0684946 0.0683929)
(0.122152 -0.0761838 0.0235128)
(0.108425 -0.0819833 -0.0239973)
(0.0849428 -0.0830482 -0.0578972)
(0.0553815 -0.0757351 -0.0705302)
(0.0263408 -0.058332 -0.0641933)
(0.00443492 -0.0324779 -0.045906)
(-0.00567274 -0.00311628 -0.0225202)
(-0.0020516 0.0226288 0.00154088)
(0.013807 0.0373835 0.0246684)
(0.0371914 0.0363936 0.0480764)
(0.0719674 0.0211347 0.0754209)
(0.0608914 -0.0442171 0.0946796)
(0.0741439 -0.0579452 0.109893)
(0.078228 -0.0650094 0.11488)
(0.0806413 -0.0663677 0.104118)
(0.0820366 -0.0648751 0.0737003)
(0.0797688 -0.0638513 0.026919)
(0.069657 -0.064623 -0.0230633)
(0.0503031 -0.0655359 -0.0605208)
(0.0253431 -0.0635585 -0.0773403)
(0.00134058 -0.0567166 -0.0746692)
(-0.0155216 -0.0454219 -0.0582143)
(-0.0214188 -0.0324019 -0.0339071)
(-0.0154583 -0.0217871 -0.00611325)
(0.000110235 -0.0178031 0.0225418)
(0.0204214 -0.0228682 0.0512922)
(0.0464857 -0.0349549 0.0816211)
(0.0187543 -0.0774975 0.0946829)
(0.0224803 -0.0784789 0.109083)
(0.0211457 -0.0743416 0.112408)
(0.0214976 -0.0662664 0.100947)
(0.0244813 -0.0571296 0.0722724)
(0.0273252 -0.0505201 0.029183)
(0.0251445 -0.0485225 -0.0178275)
(0.0152654 -0.0504789 -0.0552886)
(-0.000145108 -0.0538835 -0.07505)
(-0.0158224 -0.0563767 -0.0766788)
(-0.0266438 -0.0570558 -0.0641687)
(-0.0296692 -0.0566135 -0.0423056)
(-0.0246842 -0.0567408 -0.0150633)
(-0.0141063 -0.0592851 0.014538)
(-0.00206561 -0.0651833 0.0443113)
(0.0114366 -0.0729493 0.0731189)
(-0.0280105 -0.0879098 0.0833955)
(-0.0315331 -0.0794875 0.0965558)
(-0.0378079 -0.069437 0.0996701)
(-0.0389176 -0.0572979 0.0903854)
(-0.0339414 -0.0453602 0.0674277)
(-0.0251559 -0.0370435 0.0327629)
(-0.0174198 -0.034669 -0.00654362)
(-0.0149706 -0.038155 -0.0404999)
(-0.0182704 -0.0453549 -0.0616331)
(-0.0243563 -0.0536734 -0.067876)
(-0.0294959 -0.061326 -0.0612156)
(-0.0314039 -0.0676306 -0.0449667)
(-0.029967 -0.0727322 -0.0222609)
(-0.0271143 -0.0771439 0.00411372)
(-0.0257103 -0.0813546 0.0313237)
(-0.0235802 -0.0850232 0.0561167)
(-0.118233 -0.0482785 0.0575746)
(-0.118868 -0.0381768 0.0640809)
(-0.122652 -0.032475 0.0634895)
(-0.117096 -0.0284655 0.0533693)
(-0.103866 -0.026596 0.034389)
(-0.0856163 -0.0283746 0.00964927)
(-0.0661258 -0.0345784 -0.0160156)
(-0.0494192 -0.0442992 -0.0375518)
(-0.0383092 -0.0549362 -0.0516018)
(-0.0340282 -0.0634048 -0.0571902)
(-0.036442 -0.0676402 -0.0549939)
(-0.0442207 -0.0672855 -0.0460753)
(-0.0554799 -0.0633906 -0.031323)
(-0.0689991 -0.0577708 -0.0119966)
(-0.084589 -0.052538 0.00967435)
(-0.0911055 -0.0488901 0.0294168)
(-0.14238 -0.0160648 0.0140446)
(-0.145709 -0.010326 0.0234751)
(-0.152035 -0.00886605 0.0295999)
(-0.1458 -0.00987322 0.0294808)
(-0.129278 -0.0133757 0.022809)
(-0.104933 -0.0199655 0.0111284)
(-0.0764137 -0.0295755 -0.00289448)
(-0.0485437 -0.0406406 -0.0163621)
(-0.0261849 -0.0502619 -0.0272466)
(-0.0133142 -0.0556455 -0.0349816)
(-0.0120274 -0.0556773 -0.0398948)
(-0.0216796 -0.0510596 -0.04186)
(-0.0394375 -0.0433472 -0.0397507)
(-0.0624462 -0.0344648 -0.0325071)
(-0.0888205 -0.0266008 -0.0202848)
(-0.102316 -0.0213566 -0.00495639)
(-0.153612 0.0252011 -0.0299261)
(-0.158696 0.0238801 -0.0180593)
(-0.166055 0.0188527 -0.00574253)
(-0.158514 0.0105073 0.00371868)
(-0.138808 -0.000790009 0.00898924)
(-0.109447 -0.0145489 0.0102267)
(-0.0740289 -0.0294634 0.00834607)
(-0.0376779 -0.0428674 0.00446307)
(-0.00642179 -0.0511454 -0.000767719)
(0.0136076 -0.0514952 -0.00777412)
(0.0177803 -0.0440475 -0.0175822)
(0.00560541 -0.0315108 -0.0296298)
(-0.0189184 -0.01689 -0.0406974)
(-0.0508314 -0.0027606 -0.046921)
(-0.0863079 0.00849087 -0.0457334)
(-0.105616 0.0147121 -0.0360235)
(-0.151945 0.0723808 -0.0715862)
(-0.158104 0.0620929 -0.0585894)
(-0.164541 0.0488357 -0.0415782)
(-0.154718 0.0314667 -0.0241429)
(-0.131818 0.010804 -0.00862101)
(-0.0985678 -0.0115063 0.00394495)
(-0.0586024 -0.0327527 0.0131548)
(-0.0170776 -0.0489884 0.0190091)
(0.0196722 -0.0555182 0.0212905)
(0.0443788 -0.0491108 0.0184647)
(0.0501946 -0.0311975 0.00757278)
(0.0350467 -0.00752427 -0.0119232)
(0.00401145 0.0163537 -0.0351096)
(-0.0355847 0.036829 -0.0549926)
(-0.0778669 0.0514993 -0.0658787)
(-0.101752 0.0578622 -0.0634428)
(-0.139053 0.118633 -0.107153)
(-0.145262 0.0988352 -0.0945757)
(-0.148695 0.0763125 -0.0746421)
(-0.135484 0.0489536 -0.0513515)
(-0.109277 0.0181918 -0.0280967)
(-0.0732677 -0.0130716 -0.00701213)
(-0.0312393 -0.0408244 0.010638)
(0.0118614 -0.0599056 0.024483)
(0.0500748 -0.0645157 0.0343276)
(0.0762108 -0.0505581 0.0381358)
(0.0822013 -0.0202391 0.0304751)
(0.0640654 0.0170667 0.00780639)
(0.0273355 0.0519686 -0.0247592)
(-0.018237 0.0793945 -0.0570165)
(-0.0647482 0.097182 -0.0799149)
(-0.0919144 0.103014 -0.0861879)
(-0.117012 0.157563 -0.130995)
(-0.121619 0.128558 -0.12)
(-0.120073 0.0961577 -0.0986104)
(-0.102591 0.0584344 -0.0717647)
(-0.0733138 0.0177176 -0.0439736)
(-0.0360406 -0.0218669 -0.0183396)
(0.00528425 -0.0552384 0.00362101)
(0.0461395 -0.0763551 0.0220328)
(0.0814345 -0.0786488 0.0375539)
(0.105197 -0.0571081 0.0484056)
(0.109796 -0.0138203 0.047263)
(0.0895136 0.0386308 0.0263691)
(0.048935 0.0858098 -0.0111708)
(-0.000319213 0.120389 -0.052876)
(-0.0483545 0.140657 -0.086293)
(-0.0773186 0.145296 -0.101711)
(-0.0877134 0.184128 -0.136316)
(-0.0884765 0.146804 -0.127292)
(-0.0805003 0.104499 -0.105701)
(-0.058598 0.0569043 -0.0779626)
(-0.0273412 0.00756421 -0.0498069)
(0.00894607 -0.0385085 -0.0248114)
(0.0463605 -0.0755066 -0.00378967)
(0.0810279 -0.0970356 0.0148005)
(0.109024 -0.0963239 0.0329016)
(0.126366 -0.0679208 0.0492997)
(0.127738 -0.013097 0.0558699)
(0.107084 0.0541708 0.0411844)
(0.0661896 0.114218 0.00425229)
(0.0166049 0.155923 -0.0422305)
(-0.0299896 0.177775 -0.0828913)
(-0.0589303 0.180338 -0.106086)
(-0.0523349 0.19516 -0.117344)
(-0.0470268 0.151102 -0.11003)
(-0.032333 0.099931 -0.0899042)
(-0.00713063 0.0443097 -0.0649353)
(0.0237355 -0.01095 -0.0417263)
(0.0559326 -0.0603882 -0.0234282)
(0.0859843 -0.0981809 -0.00900305)
(0.110734 -0.118099 0.00535398)
(0.127623 -0.113741 0.0228478)
(0.134975 -0.0799417 0.0424007)
(0.130912 -0.0172393 0.0557924)
(0.111481 0.0613958 0.0500796)
(0.0754641 0.133344 0.0198935)
(0.0308953 0.182226 -0.0247452)
(-0.0103909 0.204986 -0.067191)
(-0.0366874 0.204378 -0.0943623)
(-0.0117701 0.189464 -0.0738616)
(0.000766289 0.141103 -0.0676417)
(0.0204782 0.0837471 -0.0511769)
(0.0461714 0.0236652 -0.0332962)
(0.0733299 -0.0334168 -0.0206376)
(0.0981429 -0.0823092 -0.0148054)
(0.117695 -0.117867 -0.0118207)
(0.129646 -0.134434 -0.00518211)
(0.132922 -0.126364 0.00921791)
(0.128188 -0.0893457 0.0296957)
(0.116899 -0.0238668 0.0479913)
(0.0987613 0.0593504 0.0517855)
(0.0721064 0.138859 0.0335352)
(0.0396221 0.194321 -0.00118695)
(0.00958675 0.218366 -0.0375924)
(-0.0091951 0.213961 -0.0624243)
(0.0298124 0.166855 -0.0153358)
(0.0490733 0.117554 -0.00921814)
(0.0703198 0.0587956 0.00196448)
(0.0928091 -0.000357295 0.00960392)
(0.11306 -0.0541712 0.00787174)
(0.128142 -0.0985729 -0.00238537)
(0.135566 -0.129361 -0.0135909)
(0.133665 -0.141686 -0.016532)
(0.122946 -0.130809 -0.00671257)
(0.106282 -0.0935254 0.013171)
(0.0876733 -0.0307638 0.0346516)
(0.0700315 0.0487509 0.0470173)
(0.0536461 0.12742 0.0430894)
(0.0381248 0.185305 0.0248939)
(0.0257955 0.210769 0.00283499)
(0.0223011 0.203774 -0.0120473)
(0.0618541 0.127912 0.0422915)
(0.0856723 0.0818326 0.0493524)
(0.104918 0.0283217 0.0554092)
(0.121673 -0.0233784 0.0524389)
(0.133865 -0.0687786 0.035916)
(0.139317 -0.105268 0.00942706)
(0.135551 -0.129674 -0.0158694)
(0.121422 -0.137948 -0.0284302)
(0.0989992 -0.126206 -0.0237334)
(0.0730811 -0.0922312 -0.00540561)
(0.0493371 -0.037436 0.0181308)
(0.032435 0.030951 0.0377543)
(0.0245166 0.0993413 0.0474822)
(0.0247854 0.151399 0.047392)
(0.03142 0.174995 0.0436282)
(0.048013 0.167453 0.0440237)
(0.0730224 0.0770183 0.0865094)
(0.0972369 0.038413 0.0947295)
(0.112515 -0.00347385 0.0966383)
(0.123437 -0.0421428 0.0849915)
(0.129266 -0.075213 0.0565497)
(0.128019 -0.101579 0.017113)
(0.116813 -0.119104 -0.0194784)
(0.0949065 -0.12447 -0.0401861)
(0.0656782 -0.114431 -0.0405386)
(0.0352721 -0.087341 -0.0245261)
(0.0101877 -0.0447265 -6.49793e-05)
(-0.00446952 0.00757384 0.0250613)
(-0.00609305 0.0594318 0.0457117)
(0.00454114 0.0987409 0.0606462)
(0.0238699 0.1159 0.0728531)
(0.0546487 0.108542 0.0876871)
(0.0595871 0.0234153 0.112436)
(0.079238 -0.0041122 0.121113)
(0.0898239 -0.0310282 0.119567)
(0.096406 -0.0543723 0.101891)
(0.0991325 -0.0738113 0.0661588)
(0.0957204 -0.0896706 0.0192808)
(0.0826642 -0.100942 -0.0240781)
(0.0593018 -0.105034 -0.0505342)
(0.0296329 -0.0990467 -0.0555499)
(0.000267992 -0.0813679 -0.0427056)
(-0.02233 -0.0530257 -0.0189408)
(-0.0335012 -0.0182879 0.0091174)
(-0.0311745 0.0157478 0.0367921)
(-0.0164747 0.0407889 0.0618176)
(0.00652571 0.0503612 0.084599)
(0.0388391 0.0435632 0.108057)
(0.0262286 -0.0225334 0.119819)
(0.0382319 -0.0368985 0.127992)
(0.0439329 -0.0492966 0.123775)
(0.0478703 -0.0588286 0.103003)
(0.0505317 -0.0663788 0.0650925)
(0.0492775 -0.0734093 0.016894)
(0.0400492 -0.0800322 -0.028133)
(0.0216708 -0.0843896 -0.05753)
(-0.00237002 -0.0837096 -0.0665875)
(-0.0260709 -0.0759942 -0.0578026)
(-0.0437279 -0.0613251 -0.0367488)
(-0.0515184 -0.0422647 -0.00891842)
(-0.0481176 -0.023346 0.0214396)
(-0.034989 -0.00980412 0.0514248)
(-0.0158938 -0.00557299 0.0794931)
(0.00851648 -0.0108222 0.105516)
(-0.0180105 -0.0525089 0.11051)
(-0.0135338 -0.0543387 0.117644)
(-0.012537 -0.0555854 0.11234)
(-0.00989394 -0.0554308 0.0918758)
(-0.00526613 -0.0550667 0.0566902)
(-0.00138232 -0.0565423 0.0127103)
(-0.00258754 -0.0607503 -0.0292231)
(-0.0111503 -0.0664415 -0.0586352)
(-0.0252528 -0.070923 -0.0707377)
(-0.0405067 -0.0716934 -0.0666329)
(-0.0524547 -0.0677959 -0.050269)
(-0.0581238 -0.0602606 -0.0258784)
(-0.0566128 -0.0516659 0.00293994)
(-0.0492525 -0.0451271 0.0331645)
(-0.0389765 -0.0430458 0.0621101)
(-0.025695 -0.0456849 0.0868831)
(-0.0620305 -0.0599525 0.0882343)
(-0.0630795 -0.0533533 0.0944132)
(-0.0663346 -0.0486973 0.0901015)
(-0.0641626 -0.0441548 0.0733545)
(-0.0566688 -0.04073 0.0449962)
(-0.0463903 -0.0404714 0.00955065)
(-0.0376971 -0.0444198 -0.0252523)
(-0.0342144 -0.0515544 -0.0515659)
(-0.0364778 -0.0593089 -0.0650259)
(-0.0423294 -0.0650176 -0.0654815)
(-0.0488444 -0.0671832 -0.0552138)
(-0.0538155 -0.0658797 -0.0370399)
(-0.0563713 -0.0624342 -0.0135638)
(-0.0572004 -0.0587145 0.0126635)
(-0.0580586 -0.056488 0.0387843)
(-0.0551668 -0.056518 0.0605358)
(-0.112915 -0.0117792 0.0439358)
(-0.110756 -0.00580841 0.0452541)
(-0.112376 -0.0032111 0.0399863)
(-0.107102 -0.00262203 0.0258165)
(-0.0961232 -0.00464483 0.00437772)
(-0.081282 -0.0106995 -0.0199746)
(-0.0652497 -0.0213784 -0.0419213)
(-0.0509985 -0.035265 -0.0571936)
(-0.0410578 -0.0487942 -0.0639492)
(-0.0373805 -0.0576486 -0.0628391)
(-0.0408769 -0.0591196 -0.0557863)
(-0.0504515 -0.0535519 -0.0444937)
(-0.0632566 -0.0436559 -0.0298422)
(-0.0766631 -0.032778 -0.0125918)
(-0.0896356 -0.0237298 0.00598983)
(-0.0927371 -0.0180379 0.0232136)
(-0.122302 0.0174282 -0.00420733)
(-0.124613 0.0199913 0.000206999)
(-0.129241 0.0195137 0.00205204)
(-0.123851 0.0161234 -0.00155429)
(-0.109711 0.00929954 -0.0103218)
(-0.0883922 -0.0016626 -0.0217957)
(-0.0626778 -0.0164491 -0.0328182)
(-0.0367021 -0.0327302 -0.0407627)
(-0.0152193 -0.0462173 -0.044568)
(-0.00285101 -0.0524694 -0.0450515)
(-0.00269736 -0.0496494 -0.0441152)
(-0.0143468 -0.0395746 -0.0428587)
(-0.0338895 -0.0259344 -0.0405145)
(-0.0569496 -0.0122602 -0.0355641)
(-0.0806172 -0.00106167 -0.0269306)
(-0.0920252 0.00608692 -0.0143613)
(-0.119995 0.0540353 -0.0503765)
(-0.126514 0.0510493 -0.0440956)
(-0.132688 0.0449773 -0.0362285)
(-0.126341 0.034787 -0.0301149)
(-0.108884 0.0202558 -0.026747)
(-0.0819343 0.00172964 -0.025348)
(-0.0484897 -0.0191686 -0.0245491)
(-0.0133489 -0.0388265 -0.0232418)
(0.0174593 -0.0519163 -0.0212349)
(0.037334 -0.053514 -0.0199995)
(0.0406826 -0.0427523 -0.0224404)
(0.0265379 -0.0239043 -0.0300703)
(-3.6286e-05 -0.00281594 -0.0405938)
(-0.0322945 0.0161555 -0.0496429)
(-0.0652208 0.0305783 -0.053172)
(-0.084034 0.0388902 -0.0478039)
(-0.109173 0.0937913 -0.0908708)
(-0.118897 0.084139 -0.0845381)
(-0.124704 0.0707465 -0.0724051)
(-0.116158 0.0518384 -0.05831)
(-0.0950095 0.0277188 -0.0444454)
(-0.0632792 8.68808e-06 -0.0315131)
(-0.024352 -0.0281097 -0.0196628)
(0.0165964 -0.0515372 -0.00884419)
(0.0531769 -0.0636719 0.000650872)
(0.0780848 -0.0588356 0.00682417)
(0.0837996 -0.037062 0.00486863)
(0.0672473 -0.00599058 -0.00885682)
(0.0341377 0.0251123 -0.0312814)
(-0.00626352 0.0506903 -0.0547671)
(-0.0465968 0.0685038 -0.0717591)
(-0.0714754 0.0773539 -0.0759052)
(-0.0928141 0.131516 -0.122145)
(-0.103941 0.11449 -0.117281)
(-0.107334 0.0923451 -0.102512)
(-0.0952931 0.063346 -0.0823851)
(-0.0701531 0.0286614 -0.0603305)
(-0.034686 -0.00864554 -0.0384498)
(0.00713438 -0.0438425 -0.0180326)
(0.0499946 -0.0705214 0.000498166)
(0.0878757 -0.0810583 0.0170929)
(0.114193 -0.0689343 0.0299151)
(0.121078 -0.034392 0.0322697)
(0.102972 0.0114938 0.016644)
(0.0647887 0.0546573 -0.0149158)
(0.0181136 0.0876126 -0.0516231)
(-0.0273246 0.108642 -0.0820317)
(-0.0566302 0.117324 -0.0971157)
(-0.0729887 0.162638 -0.139769)
(-0.0829933 0.137616 -0.137021)
(-0.0820375 0.105534 -0.120766)
(-0.0655649 0.0656763 -0.0966398)
(-0.0366891 0.0204779 -0.069435)
(0.000855899 -0.0255257 -0.0424999)
(0.0424968 -0.0662959 -0.0176176)
(0.0830175 -0.0945865 0.0051679)
(0.117277 -0.102459 0.0266539)
(0.140516 -0.0829704 0.0457098)
(0.146664 -0.0357945 0.0547345)
(0.128647 0.0259383 0.0419477)
(0.0883717 0.0826194 0.00584276)
(0.0383019 0.123449 -0.0409668)
(-0.00946154 0.147169 -0.0830563)
(-0.0411634 0.154755 -0.108862)
(-0.0508438 0.183623 -0.13862)
(-0.0568138 0.150268 -0.137579)
(-0.0500583 0.107767 -0.120786)
(-0.0290229 0.0573534 -0.095247)
(0.00235048 0.00303586 -0.0671304)
(0.0394336 -0.0494055 -0.0404987)
(0.0772905 -0.0930895 -0.016488)
(0.111124 -0.120615 0.00623687)
(0.137073 -0.124505 0.0295876)
(0.152705 -0.0982204 0.0529545)
(0.1553 -0.0407375 0.0687708)
(0.138891 0.0351906 0.0627091)