/*--------------------------------*- C++ -*----------------------------------*\
| =========                 |                                                 |
| \\      /  F ield         | OpenFOAM: The Open Source CFD Toolbox           |
|  \\    /   O peration     | Version:  3.0.0                                 |
|   \\  /    A nd           | Web:      www.OpenFOAM.org                      |
|    \\/     M anipulation  |                                                 |
\*---------------------------------------------------------------------------*/
FoamFile
{
    version     2.0;
    format      ascii;
    class       volScalarField;
    location    "7.5";
    object      p;
}
// * * * * * * * * * * * * * * * * * * * * * * * * * * * * * * * * * * * * * //

dimensions      [0 2 -2 0 0 0 0];

internalField   nonuniform List<scalar> 
4096
(
-0.020949
-0.0423433
-0.0452558
-0.0413057
-0.0322045
-0.0216788
-0.0147517
-0.012577
-0.0120536
-0.0100706
-0.00614652
-0.00173336
0.00100826
-0.000980913
-0.00872353
-0.0112394
-0.0233691
-0.0487802
-0.0548576
-0.0533282
-0.0441966
-0.0300731
-0.016978
-0.00856441
-0.00408496
-0.000555085
0.00357481
0.00755978
0.00930803
0.00583673
-0.0038186
-0.00738436
-0.00380254
-0.030405
-0.0385501
-0.0400803
-0.0341577
-0.022275
-0.00929305
0.00057697
0.00661382
0.0109671
0.0155789
0.020121
0.0225843
0.0201382
0.0118857
0.0106354
0.0151601
-0.0100977
-0.0189418
-0.022898
-0.0205189
-0.0121734
-0.0011759
0.00875487
0.0158186
0.0209003
0.0258208
0.0307818
0.033989
0.0327882
0.0263677
0.0273126
0.0287269
0.00813821
0.000256365
-0.00457772
-0.00483585
-3.73879e-05
0.00795417
0.0164286
0.0232492
0.028056
0.0322089
0.0365875
0.039626
0.0393412
0.0349456
0.0376247
0.0340297
0.0207807
0.0161347
0.0127502
0.0119624
0.0145438
0.0197433
0.0257684
0.0307803
0.0336601
0.0352215
0.0369086
0.0384265
0.0380727
0.0353558
0.0390745
0.0303737
0.0257524
0.0262216
0.0266637
0.0277895
0.0302534
0.0339887
0.0373268
0.0395563
0.0391895
0.0366085
0.0338456
0.0318957
0.0299612
0.0279275
0.0318173
0.0204423
0.0236599
0.0297854
0.0352979
0.0399711
0.0438428
0.0468006
0.0483752
0.0477172
0.0438588
0.036976
0.029335
0.0230407
0.0183879
0.0158987
0.0193164
0.00899119
0.0170842
0.027616
0.0375713
0.0457359
0.0513742
0.0541736
0.0540836
0.0509381
0.0443849
0.0347336
0.0239987
0.0145664
0.00747341
0.00392309
0.00667614
-0.000160207
0.00889906
0.0211165
0.0332823
0.0433736
0.0499141
0.0522964
0.0507196
0.0457318
0.0378926
0.0278616
0.0172628
0.00769047
5.20573e-05
-0.00422927
-0.00231836
-0.00643727
0.000365222
0.0112787
0.0230584
0.033108
0.0393528
0.0409045
0.0381852
0.0324026
0.0249767
0.0167929
0.00922485
0.00244255
-0.00348553
-0.00776785
-0.0073596
-0.012009
-0.00913789
-0.00144036
0.0082483
0.0170058
0.0223309
0.0231212
0.0200247
0.0147285
0.00914084
0.00454201
0.00134655
-0.00141834
-0.00497457
-0.00906575
-0.0111564
-0.0189394
-0.0205262
-0.0164254
-0.00920153
-0.00187118
0.00282922
0.00359087
0.001213
-0.00228234
-0.00497339
-0.00583217
-0.00521543
-0.00490478
-0.00685127
-0.0113043
-0.0162328
-0.0277988
-0.0339653
-0.032821
-0.0274966
-0.0208329
-0.015654
-0.0136679
-0.0142328
-0.0152567
-0.0150485
-0.0130903
-0.0102319
-0.00855451
-0.0103367
-0.0160158
-0.0230261
-0.0359341
-0.0463759
-0.0473827
-0.0433035
-0.0364377
-0.0297137
-0.0254547
-0.0235746
-0.0222632
-0.0200351
-0.0166917
-0.0132329
-0.0116498
-0.0141662
-0.0212697
-0.0288944
-0.0250856
-0.0384983
-0.0405325
-0.0375067
-0.0315404
-0.0255585
-0.0222949
-0.0215141
-0.0207393
-0.0182872
-0.0148429
-0.0114709
-0.009766
-0.0115302
-0.0174228
-0.0213086
-0.0049932
-0.0318654
-0.0345979
-0.0333963
-0.0291133
-0.0229278
-0.0170035
-0.0121015
-0.00762809
-0.00294477
0.00192095
0.00651915
0.00892303
0.00647794
-0.00125213
0.00400127
-0.0027061
-0.0328008
-0.0384867
-0.0402547
-0.0373938
-0.0299023
-0.0200033
-0.00988201
-0.000960296
0.00619762
0.0117204
0.0157253
0.0172004
0.0137773
0.00523148
0.0113397
0.0146294
-0.0159881
-0.0237644
-0.0283259
-0.028169
-0.0225217
-0.0130834
-0.002172
0.00807206
0.0163492
0.0225136
0.0269258
0.0290004
0.0267708
0.0197859
0.0275491
0.0283099
0.000813166
-0.00717246
-0.0129775
-0.0146882
-0.0111284
-0.00342418
0.00644976
0.0163055
0.0244178
0.030369
0.0346501
0.037161
0.0359116
0.0307216
0.0391084
0.0344772
0.0135862
0.00731175
0.00219591
0.000108756
0.00227099
0.00799301
0.0156863
0.0234923
0.029719
0.0338345
0.0365371
0.0383522
0.0376918
0.034303
0.0421769
0.031863
0.0198261
0.0170214
0.0145821
0.0139065
0.0159683
0.02039
0.0257109
0.0304525
0.0332497
0.0337518
0.0332106
0.0326991
0.0315231
0.0294421
0.035937
0.0215399
0.0186513
0.0204023
0.0220325
0.0242759
0.0275936
0.0313184
0.0350841
0.036824
0.0356818
0.0316293
0.0264726
0.0223193
0.0193719
0.0175401
0.0223122
0.00772019
0.0117888
0.0181531
0.0241821
0.0297876
0.0348677
0.0388712
0.0410045
0.040154
0.035639
0.0277103
0.0184288
0.0106305
0.00522844
0.00280274
0.00606986
-0.00458705
0.00275799
0.0125852
0.0221531
0.0304232
0.0366793
0.0403003
0.040743
0.037502
0.0304802
0.0205302
0.00971501
0.000480859
-0.00632605
-0.00981696
-0.00734599
-0.0123601
-0.00536001
0.0059363
0.017375
0.0269584
0.033311
0.0356678
0.0338885
0.0282271
0.0194644
0.00952934
0.000444208
-0.00681627
-0.0127623
-0.0168012
-0.0148585
-0.016374
-0.0117089
-0.00112379
0.0104332
0.0200607
0.0256739
0.0263201
0.0222947
0.0147203
0.00533806
-0.00271831
-0.00789338
-0.0109401
-0.0142947
-0.0181521
-0.0176341
-0.0194496
-0.0175863
-0.00920762
0.00121695
0.0101172
0.0147881
0.0140987
0.00878295
0.000807174
-0.00718849
-0.0122394
-0.013187
-0.012324
-0.0133595
-0.0170661
-0.0191916
-0.0232658
-0.0245017
-0.0188048
-0.0100932
-0.00220211
0.00188914
0.000918062
-0.00404632
-0.01051
-0.0156397
-0.0171998
-0.015093
-0.0123357
-0.0126638
-0.016975
-0.0216465
-0.0276091
-0.0327422
-0.0296257
-0.0228115
-0.0158714
-0.0115784
-0.0114549
-0.0143244
-0.0177783
-0.0194952
-0.0182751
-0.0148037
-0.0121367
-0.0131736
-0.0186474
-0.024418
-0.0298705
-0.0401592
-0.0392425
-0.0344465
-0.0284173
-0.0234759
-0.0210719
-0.0206316
-0.0204434
-0.019101
-0.016255
-0.0128316
-0.0110818
-0.0134197
-0.0201111
-0.0246805
-0.0154883
-0.0322693
-0.0341954
-0.0323886
-0.0286239
-0.0244462
-0.0212955
-0.0190479
-0.0166225
-0.013398
-0.00967389
-0.00609787
-0.00422003
-0.00606415
-0.0120395
-0.0118487
0.0079505
-0.0204526
-0.0205246
-0.0176303
-0.0129016
-0.00740249
-0.00286311
0.000412289
0.00338391
0.00721105
0.0120811
0.0169856
0.0197043
0.0171571
0.00925526
0.0187355
0.018064
-0.0139186
-0.0176128
-0.0188574
-0.0169534
-0.0116213
-0.00457401
0.00251353
0.00885143
0.0143364
0.0196177
0.024379
0.0272558
0.0253733
0.0186563
0.0314198
0.0329112
0.000686915
-0.005769
-0.0103264
-0.0112661
-0.00746843
-0.000347953
0.00796721
0.0156035
0.0219437
0.0273188
0.0324425
0.0363356
0.0361612
0.0315001
0.0455144
0.0411372
0.0129797
0.00593993
7.64717e-05
-0.00247177
-0.000174599
0.00593189
0.0137616
0.0210882
0.0266747
0.0310208
0.0353122
0.0392936
0.0403882
0.0378565
0.0514169
0.0404933
0.0200467
0.0145086
0.00937679
0.00677986
0.00821373
0.0129498
0.0191827
0.0247975
0.0283143
0.0300476
0.0318364
0.0344499
0.0359452
0.0353339
0.0470723
0.0310565
0.0204095
0.0181317
0.0156412
0.0146075
0.0161855
0.0198499
0.0240516
0.0270699
0.0275743
0.0255958
0.0233799
0.0229908
0.0236162
0.0242271
0.0333631
0.0155367
0.0142102
0.016205
0.017602
0.0193164
0.0219521
0.024997
0.0273528
0.0275826
0.0247929
0.0190166
0.0123156
0.00793832
0.00644282
0.00713037
0.0137689
-0.00141367
0.00369496
0.010051
0.0155889
0.0203248
0.0242827
0.0269432
0.0274634
0.0249484
0.0190701
0.0103482
0.000547336
-0.00700043
-0.0108735
-0.0111247
-0.00620278
-0.0148085
-0.00754945
0.00229979
0.0112823
0.0184267
0.0232
0.0250249
0.0234125
0.0180746
0.00935562
-0.00119759
-0.0114378
-0.0192336
-0.0239113
-0.0254461
-0.0209029
-0.0224666
-0.0165108
-0.00476951
0.00641384
0.0149905
0.0198191
0.0202143
0.0160959
0.00789577
-0.00321732
-0.0144314
-0.0226689
-0.0274288
-0.0305132
-0.0326792
-0.0280812
-0.0260837
-0.0223759
-0.0106173
0.00147909
0.0107266
0.0151988
0.0140657
0.00768126
-0.00271852
-0.0149546
-0.0252625
-0.0301386
-0.0305603
-0.0309705
-0.0331493
-0.0298926
-0.0284267
-0.0264014
-0.0160208
-0.00404205
0.00542915
0.00966652
0.00762269
0.00014169
-0.0107123
-0.0219661
-0.0297073
-0.03118
-0.0285924
-0.0274692
-0.0299155
-0.0299715
-0.0300644
-0.0298638
-0.021527
-0.0103591
-0.00110252
0.00318799
0.00129454
-0.0055805
-0.0147852
-0.0230952
-0.0273974
-0.0264748
-0.0232598
-0.0226225
-0.0261614
-0.0295767
-0.0295985
-0.0329195
-0.0267484
-0.0171878
-0.00850779
-0.00388869
-0.00459598
-0.00930546
-0.0153085
-0.0198332
-0.0210846
-0.0189349
-0.0167003
-0.0176938
-0.0228104
-0.0271661
-0.0245657
-0.0336527
-0.0298021
-0.0225722
-0.0152516
-0.0103801
-0.00922114
-0.010832
-0.0130589
-0.0140011
-0.0129158
-0.0105646
-0.00931103
-0.0117119
-0.0180318
-0.0199707
-0.00687857
-0.0244564
-0.0240195
-0.0205233
-0.0159166
-0.011756
-0.00927557
-0.00812779
-0.00703184
-0.00492019
-0.0016456
0.00195305
0.00397408
0.00192917
-0.00436126
-0.00119131
0.017908
-0.00700366
-0.00592451
-0.00255737
0.00171097
0.00590223
0.00889424
0.0111102
0.0133298
0.0170505
0.0221031
0.027229
0.0301385
0.0279115
0.0206682
0.0297352
0.0337405
0.00437526
0.000784778
-0.00137275
-0.00126193
0.00152718
0.00570617
0.0101219
0.0149281
0.0198575
0.025381
0.0311674
0.0356872
0.0360475
0.0320416
0.046301
0.0457585
0.0167175
0.0103567
0.00483946
0.00194169
0.00289762
0.00669592
0.0118173
0.0171963
0.0225267
0.0283384
0.0348701
0.0408987
0.0434255
0.0418673
0.0576135
0.0484389
0.0236712
0.0170452
0.0105436
0.00641286
0.00621251
0.00915997
0.0136421
0.0181611
0.0221854
0.0264558
0.0319436
0.0380493
0.0419648
0.0426498
0.0578161
0.04151
0.0243142
0.01927
0.0138038
0.0100843
0.00956397
0.0116027
0.0146682
0.0172448
0.018696
0.0198164
0.0223744
0.0268767
0.0311366
0.0336774
0.0468006
0.0265837
0.0184687
0.0164624
0.0136664
0.0117526
0.0117687
0.0131398
0.0145184
0.0145991
0.0129266
0.0100962
0.00840543
0.00973589
0.0130345
0.0166407
0.0271068
0.00724708
0.00734877
0.00915013
0.00994682
0.0106594
0.0117996
0.0128039
0.0125423
0.0100371
0.00519082
-0.00124817
-0.00718507
-0.0097368
-0.00851428
-0.0050344
0.00331738
-0.0114849
-0.00627925
-0.000563557
0.00396254
0.00736493
0.00965974
0.0102433
0.00829041
0.00322322
-0.00466045
-0.0139457
-0.0225367
-0.0277772
-0.028518
-0.025874
-0.0191821
-0.0250323
-0.0188526
-0.0097105
-0.0019149
0.00366805
0.00663617
0.00636484
0.00237319
-0.00540706
-0.0162228
-0.0277551
-0.0369639
-0.0420666
-0.0431253
-0.0416441
-0.0345676
-0.0321824
-0.0278208
-0.0161486
-0.00576678
0.00142592
0.00457583
0.00304946
-0.00323803
-0.0137408
-0.0270837
-0.0400722
-0.0484236
-0.0509314
-0.050422
-0.0496318
-0.0414562
-0.0354765
-0.0327744
-0.0198354
-0.00752458
0.00106673
0.00435841
0.00177455
-0.00638805
-0.0188493
-0.033474
-0.0464143
-0.0528481
-0.052344
-0.0501208
-0.0499228
-0.0425725
-0.0373839
-0.0347793
-0.0220703
-0.00858282
0.00140205
0.00539437
0.00247815
-0.00630441
-0.0189812
-0.0327328
-0.043611
-0.047758
-0.0458119
-0.0435821
-0.0445869
-0.0411914
-0.0371089
-0.0348158
-0.0235259
-0.0100105
0.000942407
0.00583614
0.0037501
-0.00397495
-0.0147697
-0.0255598
-0.0331021
-0.0352853
-0.0337603
-0.0333662
-0.0363373
-0.037686
-0.0320872
-0.0327736
-0.0237995
-0.011578
-0.000914421
0.00469784
0.00415142
-0.00116486
-0.00857208
-0.0153431
-0.0194405
-0.0202394
-0.0198482
-0.0216036
-0.0265905
-0.029881
-0.0200468
-0.0270081
-0.0214289
-0.0121764
-0.0034319
0.00213259
0.00328953
0.00103478
-0.00248315
-0.00526451
-0.00627088
-0.00583749
-0.00581239
-0.00857454
-0.0144601
-0.0153303
0.00193687
-0.0134388
-0.0109825
-0.00649683
-0.00153076
0.00213255
0.00361591
0.00372452
0.00388299
0.00530364
0.00815798
0.0114891
0.0133097
0.0111729
0.00509427
0.00909507
0.0280113
0.0104639
0.0109188
0.0132544
0.015743
0.0174555
0.0180794
0.0187989
0.0207115
0.0246786
0.030288
0.0360004
0.0396229
0.0387076
0.0333581
0.0387478
0.044128
0.0213019
0.0156392
0.0110721
0.00862198
0.00870161
0.0104535
0.0132906
0.0171311
0.0222364
0.0285777
0.0356584
0.0420093
0.0450962
0.0443477
0.0553822
0.0521918
0.030022
0.0227361
0.0153912
0.0099358
0.00762496
0.00801478
0.0103843
0.0142353
0.0195367
0.0264151
0.0346049
0.0427174
0.0480397
0.0497421
0.0627433
0.0494125
0.031159
0.0243429
0.0167494
0.0105905
0.00734694
0.00672706
0.00792206
0.0102924
0.0138031
0.0189564
0.0260623
0.0341903
0.040712
0.0444091
0.0576061
0.0372791
0.0252702
0.020419
0.0144158
0.00927323
0.00626018
0.0050398
0.00474153
0.00472933
0.0051195
0.00684503
0.0109672
0.0174752
0.0241507
0.0293669
0.0411826
0.0186539
0.0138062
0.0119047
0.00871518
0.00570997
0.0036932
0.00220637
0.000382195
-0.002297
-0.0054848
-0.00781408
-0.00778611
-0.00431781
0.00152008
0.0075928
0.0177303
-0.00241275
-0.00104367
0.00036801
0.000476596
4.8046e-05
-0.000634586
-0.00217619
-0.00539034
-0.010604
-0.0171371
-0.0232715
-0.0271415
-0.026983
-0.0228371
-0.0166767
-0.00815486
-0.0209855
-0.0161783
-0.011421
-0.00805995
-0.0060776
-0.00558945
-0.00734151
-0.0119897
-0.019603
-0.0291598
-0.0385766
-0.0450974
-0.047095
-0.0443459
-0.0388592
-0.0307998
-0.0332091
-0.0283739
-0.0203591
-0.0139921
-0.0100343
-0.00887963
-0.0112667
-0.0176254
-0.0276868
-0.040187
-0.05229
-0.0602624
-0.0623874
-0.0596983
-0.0550421
-0.0455595
-0.0388025
-0.0357913
-0.0246781
-0.0154746
-0.00980169
-0.00828446
-0.0115845
-0.019762
-0.0320921
-0.0469317
-0.0610309
-0.0696793
-0.070698
-0.0671671
-0.0632936
-0.0515502
-0.0409169
-0.0386843
-0.0250678
-0.0130952
-0.00548897
-0.00335839
-0.00723449
-0.0166876
-0.0304299
-0.0463375
-0.0608613
-0.0691943
-0.0693552
-0.065767
-0.0632839
-0.0515023
-0.0417368
-0.0382878
-0.023577
-0.00928253
0.000585344
0.00402781
0.000513917
-0.00893674
-0.0224233
-0.0373843
-0.0503482
-0.0574798
-0.0578576
-0.0559752
-0.0557986
-0.0481657
-0.0393883
-0.0350534
-0.0212151
-0.00596749
0.00569702
0.0107705
0.00863376
0.000706636
-0.0106239
-0.0226661
-0.0325745
-0.0380712
-0.0394604
-0.0403168
-0.0429161
-0.0413944
-0.0306724
-0.0287261
-0.0178021
-0.00391674
0.00788436
0.0141314
0.0139657
0.00870613
0.000910791
-0.00709132
-0.0133752
-0.0170431
-0.0190681
-0.0218883
-0.0268032
-0.0289195
-0.0136566
-0.0179909
-0.0119602
-0.00242504
0.00693557
0.0131103
0.0147988
0.0128556
0.00910726
0.00536178
0.00277874
0.00145878
0.000269895
-0.00264217
-0.0077609
-0.00902281
0.0129588
0.00180153
0.00454715
0.0093236
0.0137477
0.0161238
0.0160831
0.0148177
0.0143666
0.0155251
0.0182971
0.0215569
0.0234092
0.0217771
0.0167581
0.0193024
0.0401312
0.0295065
0.0285549
0.0289111
0.028726
0.0270174
0.0244505
0.0229766
0.0243064
0.0284003
0.0348282
0.0416748
0.0467747
0.0481141
0.0455629
0.0473886
0.0507561
0.034824
0.0263781
0.018945
0.0138792
0.0114939
0.0112133
0.0127377
0.0160412
0.0217145
0.029117
0.037584
0.0456929
0.0513349
0.0535635
0.059992
0.0532198
0.0387252
0.0302357
0.0212607
0.0137113
0.00870393
0.00630078
0.00647508
0.0092649
0.0147775
0.022737
0.0323598
0.0420564
0.0494793
0.0536116
0.0619821
0.0450596
0.0338833
0.0269896
0.0188361
0.0113364
0.0057273
0.00221543
0.000816743
0.00165592
0.00501048
0.011073
0.019491
0.0289348
0.0370442
0.0425538
0.0517297
0.0291306
0.0224085
0.0179873
0.0120535
0.00618963
0.00132372
-0.00253331
-0.00548726
-0.00732257
-0.00739645
-0.00488696
0.000586128
0.00834854
0.0163342
0.0229162
0.0321614
0.00892976
0.00712147
0.00557993
0.00254459
-0.000955287
-0.0044897
-0.00834142
-0.0127521
-0.0174055
-0.021263
-0.0228847
-0.0211502
-0.0159455
-0.00871287
-0.00144349
0.00708758
-0.0114388
-0.0092124
-0.00796798
-0.00810597
-0.00919047
-0.0112879
-0.0149853
-0.0206502
-0.0278722
-0.0352862
-0.0407728
-0.0425451
-0.0399067
-0.0337154
-0.0261348
-0.0179299
-0.0277265
-0.0235226
-0.0195544
-0.0170463
-0.0160696
-0.0170454
-0.0207817
-0.0276875
-0.0372418
-0.0478771
-0.056707
-0.0611945
-0.0602015
-0.0546911
-0.0472631
-0.0384266
-0.036983
-0.0331416
-0.0263206
-0.0212393
-0.0185929
-0.0189237
-0.0230864
-0.0313675
-0.0430617
-0.0563718
-0.0682216
-0.0748764
-0.0745156
-0.0689645
-0.0619032
-0.0507943
-0.0396891
-0.0372283
-0.027113
-0.0192743
-0.0150202
-0.0149083
-0.0196391
-0.0292263
-0.0426805
-0.058015
-0.0719918
-0.0803266
-0.0804639
-0.0750328
-0.0688091
-0.054634
-0.0392259
-0.0368694
-0.0234814
-0.0125501
-0.00624902
-0.00531976
-0.0101823
-0.0204108
-0.0346418
-0.0507205
-0.0653443
-0.0744599
-0.0756017
-0.0716992
-0.0674892
-0.0524061
-0.0376325
-0.0336093
-0.0182151
-0.00442889
0.00442246
0.00697146
0.0028989
-0.00674273
-0.0202087
-0.0351641
-0.0486454
-0.0574374
-0.060005
-0.0590364
-0.0579013
-0.0464674
-0.032726
-0.0275633
-0.0127105
0.00245567
0.013417
0.0178348
0.0154255
0.00768788
-0.00335941
-0.0154418
-0.0262448
-0.0337207
-0.0374394
-0.0394747
-0.0415134
-0.0366753
-0.0213156
-0.0183752
-0.00719853
0.00644079
0.0176621
0.023367
0.0231102
0.018267
0.0108489
0.00277311
-0.0043912
-0.00967714
-0.013299
-0.0167359
-0.0207764
-0.0212572
-0.00235076
-0.00545864
-0.00103906
0.00706694
0.0155279
0.0214408
0.0235033
0.0222549
0.0190758
0.0154428
0.0124119
0.0103412
0.0087217
0.00631296
0.00252434
0.000904646
0.0252939
0.0188988
0.0209128
0.0246818
0.0276074
0.028032
0.0260162
0.0234825
0.0224589
0.0237435
0.0269379
0.0306478
0.0330877
0.0326129
0.0292504
0.0295025
0.0518193
0.0450573
0.042817
0.0410333
0.0377094
0.0322901
0.0264031
0.0227474
0.02313
0.0275627
0.0348325
0.042888
0.0496751
0.0534457
0.0536499
0.0551328
0.0546999
0.0425027
0.0319553
0.0221253
0.0147722
0.0103338
0.00846554
0.00911581
0.0124867
0.0187091
0.0272067
0.0368926
0.0462709
0.0534889
0.0573342
0.0614775
0.0504356
0.0406352
0.0318403
0.0223826
0.0138642
0.00721967
0.00292241
0.00158771
0.00375018
0.00953008
0.0183459
0.0289023
0.039351
0.0475203
0.052293
0.0574295
0.0373338
0.0307538
0.0246495
0.0172904
0.00987156
0.00321294
-0.00208448
-0.00521796
-0.00536571
-0.00202646
0.00468126
0.0138107
0.0235897
0.0317722
0.037154
0.0427911
0.0190453
0.0158467
0.0125781
0.00796425
0.00273808
-0.00271034
-0.00809737
-0.0127579
-0.0156764
-0.0158723
-0.0126992
-0.00643126
0.00162677
0.00936449
0.0153607
0.0213866
-0.000607573
-0.000544526
-0.00114671
-0.00300577
-0.00587417
-0.00985926
-0.0150931
-0.0211442
-0.0269214
-0.0308518
-0.0316304
-0.0286758
-0.0226709
-0.0154485
-0.00875339
-0.00238661
-0.018139
-0.0156191
-0.0140668
-0.0136452
-0.0144976
-0.0171605
-0.0221862
-0.0294216
-0.0377104
-0.0451631
-0.0496634
-0.0497567
-0.045514
-0.038588
-0.0311795
-0.0241318
-0.0302846
-0.0266563
-0.0231778
-0.0208819
-0.020203
-0.0219518
-0.0269918
-0.0353429
-0.0458682
-0.0564418
-0.0642396
-0.0669139
-0.0638074
-0.0567526
-0.0487302
-0.040183
-0.0351441
-0.0318074
-0.026103
-0.0219347
-0.0200586
-0.0213178
-0.0266635
-0.0361602
-0.0486234
-0.0617693
-0.0724837
-0.0775117
-0.0753031
-0.0679711
-0.0595951
-0.0482428
-0.0337944
-0.0312156
-0.0225568
-0.0161308
-0.0130129
-0.0138996
-0.0195651
-0.0299536
-0.0438004
-0.0587731
-0.0716117
-0.0787521
-0.0779354
-0.0712367
-0.063339
-0.0485327
-0.0295985
-0.0268471
-0.01488
-0.0057058
-0.000874607
-0.001096
-0.00648039
-0.0169817
-0.0310552
-0.046726
-0.060378
-0.0689383
-0.0701444
-0.0657677
-0.0598782
-0.0433653
-0.0246047
-0.0206833
-0.00649755
0.00531125
0.0123571
0.0138762
0.00929355
-0.000200677
-0.0131598
-0.0275067
-0.0404943
-0.0494219
-0.0526855
-0.0516962
-0.0490547
-0.0349338
-0.0170498
-0.0127629
0.000979352
0.0139644
0.0227285
0.0257515
0.0229678
0.0156199
0.00529725
-0.00618262
-0.0168143
-0.0247745
-0.0291891
-0.0310678
-0.0316488
-0.0231975
-0.00433428
-0.00265751
0.00695959
0.0180474
0.0266724
0.0306688
0.0299348
0.0256129
0.0191053
0.0117439
0.00478611
-0.000763937
-0.00457168
-0.00733532
-0.00974714
-0.0068474
0.013687
0.00935312
0.0108936
0.0156325
0.0213063
0.0257514
0.0277479
0.0273619
0.0253901
0.0227879
0.0203847
0.0186352
0.0174958
0.0162562
0.0141575
0.0143724
0.0382409
0.0334005
0.0342323
0.0363003
0.0371385
0.035284
0.0313449
0.0277204
0.026543
0.0283891
0.0323864
0.0369075
0.0402938
0.0412036
0.0394051
0.0394609
0.0593823
0.0519528
0.0496319
0.0463429
0.0402569
0.031652
0.0231792
0.0181303
0.0181902
0.0230252
0.0309542
0.0398216
0.0477954
0.0532027
0.0548857
0.0600625
0.0550449
0.041922
0.031081
0.0200914
0.0112146
0.00539158
0.00252213
0.00278212
0.00649965
0.0135911
0.0232038
0.0338318
0.0438469
0.0513
0.0546462
0.0601064
0.0446116
0.0345041
0.0267704
0.018393
0.0103568
0.0034075
-0.00176129
-0.00391366
-0.00201142
0.00413683
0.013646
0.0247327
0.0352216
0.0427589
0.0460379
0.0507001
0.0279439
0.0216813
0.0172382
0.0121477
0.00640293
0.000172006
-0.00575847
-0.00982858
-0.0105032
-0.00702799
0.000221244
0.00968883
0.0191321
0.0260835
0.0293993
0.0330199
0.00902294
0.00636567
0.00477042
0.00264327
-0.000594453
-0.00534186
-0.0111949
-0.0167285
-0.0201462
-0.020076
-0.0161679
-0.00935293
-0.00159955
0.00471291
0.00839116
0.0115313
-0.00839291
-0.00811042
-0.00740766
-0.00723515
-0.00846855
-0.0119225
-0.0176384
-0.0244833
-0.0305596
-0.033995
-0.0336492
-0.0296498
-0.0234796
-0.0173867
-0.0128714
-0.00924671
-0.0216255
-0.0194386
-0.0172059
-0.015557
-0.0154361
-0.017936
-0.0235572
-0.0315229
-0.0399854
-0.0466904
-0.0497142
-0.0482782
-0.0431956
-0.0366799
-0.0308384
-0.0258682
-0.0286078
-0.0254608
-0.022091
-0.0194313
-0.018442
-0.0203797
-0.0260724
-0.0351013
-0.0457122
-0.0553658
-0.0615774
-0.0624712
-0.0580704
-0.0506232
-0.043154
-0.0359826
-0.0284578
-0.0251588
-0.0203628
-0.0166514
-0.0150058
-0.0166529
-0.0226057
-0.0326358
-0.0451069
-0.0573877
-0.0664719
-0.0697365
-0.0662099
-0.0579988
-0.049042
-0.0386243
-0.0227028
-0.0195378
-0.012581
-0.00740221
-0.00499125
-0.00635633
-0.0124483
-0.0230975
-0.0367915
-0.0509531
-0.0623514
-0.0680759
-0.0661905
-0.0584567
-0.0489897
-0.034779
-0.0145952
-0.0112786
-0.00171519
0.00536504
0.00894825
0.008181
0.00250251
-0.00790526
-0.0216643
-0.0364567
-0.0491606
-0.0567697
-0.0573011
-0.0518098
-0.0436301
-0.026876
-0.00634535
-0.00282159
0.00852009
0.0173544
0.022291
0.0227152
0.0181876
0.00916415
-0.00315846
-0.0168216
-0.0292208
-0.0377173
-0.0405483
-0.038285
-0.0330064
-0.0169374
0.00306229
0.00562259
0.0164156
0.0256509
0.031399
0.0328607
0.0299247
0.0232428
0.0138151
0.00306724
-0.00714942
-0.0149012
-0.0188516
-0.0192583
-0.0172209
-0.0048987
0.0155057
0.0145499
0.021293
0.0280402
0.0327894
0.0346083
0.0334775
0.0299927
0.0246469
0.018328
0.0120379
0.0069309
0.00385879
0.00264852
0.00251703
0.0103865
0.0303635
0.0229451
0.0215688
0.0216615
0.0232016
0.0254865
0.0272365
0.0278184
0.0274358
0.0263741
0.0251965
0.0243854
0.0242407
0.0243433
0.0237211
0.0285574
0.0482135
0.0411374
0.0411047
0.0415091
0.0404196
0.0367367
0.0313556
0.0271326
0.0262709
0.0289403
0.0338352
0.0391848
0.0435132
0.0455239
0.0444556
0.0480804
0.0590493
0.0475318
0.0460616
0.0420976
0.0343424
0.0240134
0.0145238
0.00945036
0.0101515
0.0157348
0.0242295
0.0334281
0.0418434
0.0476889
0.049075
0.0597583
0.0496373
0.0321188
0.0226555
0.0119072
0.00262692
-0.00361097
-0.00673968
-0.00635017
-0.00197726
0.00612914
0.0168137
0.0280677
0.0381922
0.0448734
0.0459351
0.0549726
0.0354197
0.0208444
0.0147747
0.00853935
0.00233551
-0.00365536
-0.00872127
-0.0110674
-0.00907818
-0.00242131
0.00777419
0.0192343
0.029468
0.0356548
0.035965
0.0421891
0.0177361
0.00796968
0.00504707
0.00282381
-0.000181214
-0.0048456
-0.0105097
-0.0148988
-0.0156986
-0.011818
-0.00385497
0.00608156
0.0151907
0.0205191
0.0206719
0.0236519
0.000369168
-0.00452337
-0.00489788
-0.00434523
-0.00499488
-0.00831856
-0.0139982
-0.0198527
-0.0232789
-0.0225289
-0.0174867
-0.0097979
-0.00218275
0.00251234
0.00311279
0.00397577
-0.0134158
-0.0144625
-0.0128419
-0.0106507
-0.0100255
-0.0125968
-0.0183686
-0.0254953
-0.0313173
-0.0336536
-0.0316772
-0.0263412
-0.019931
-0.0151973
-0.0134352
-0.012607
-0.0218227
-0.0204779
-0.0176357
-0.0147219
-0.0135258
-0.0156847
-0.0215533
-0.0297392
-0.0377476
-0.043061
-0.0441694
-0.0410688
-0.0354153
-0.0298277
-0.0261342
-0.0236016
-0.0238852
-0.0210577
-0.0174952
-0.014204
-0.0126985
-0.0145837
-0.0205694
-0.0297332
-0.0398176
-0.0480972
-0.052354
-0.0515579
-0.0464736
-0.0394989
-0.0332922
-0.0279533
-0.019512
-0.0158222
-0.0114319
-0.00766456
-0.0058245
-0.00745978
-0.0135338
-0.0235257
-0.0354626
-0.0465482
-0.0539767
-0.0557751
-0.0516476
-0.0435384
-0.0347808
-0.0258281
-0.0104589
-0.00622963
-0.00053004
0.00394327
0.00624561
0.00498552
-0.000915943
-0.0112493
-0.0243782
-0.0376259
-0.0478474
-0.0524261
-0.050077
-0.042062
-0.0316844
-0.018805
0.000261895
0.00465378
0.011833
0.017252
0.0201715
0.0195317
0.0143376
0.00457736
-0.00850792
-0.0225697
-0.0345572
-0.0415203
-0.0416022
-0.0352946
-0.0251867
-0.00930945
0.0104125
0.0141236
0.0221059
0.0280763
0.0314985
0.0316772
0.0277948
0.0197307
0.00829718
-0.00471004
-0.0166822
-0.0248351
-0.0271407
-0.023526
-0.0156416
0.000886077
0.0202586
0.0216595
0.0286874
0.0339495
0.0370645
0.0376914
0.0352923
0.029778
0.0215256
0.01159
0.00181471
-0.00559947
-0.00883218
-0.00757454
-0.00284993
0.0119093
0.0309793
0.0277284
0.0311167
0.0330876
0.0341381
0.0344313
0.0336041
0.0313916
0.0275714
0.0224288
0.0169333
0.0124612
0.0103381
0.0107392
0.0126958
0.0248307
0.0414859
0.0308312
0.0274546
0.0229564
0.0203885
0.0208041
0.0226358
0.0244395
0.0256541
0.0262517
0.0263968
0.0266236
0.0275185
0.0287245
0.0289432
0.039133
0.0517519
0.039385
0.0391223
0.0383629
0.0362855
0.0319392
0.0260982
0.0220083
0.0219026
0.0255261
0.0311682
0.037083
0.0420696
0.0446836
0.0433367
0.0526359
0.0486149
0.0321222
0.0309331
0.0266414
0.0187889
0.00894201
0.000540225
-0.00294537
-0.00062705
0.00610996
0.0149724
0.0240489
0.0321847
0.0374068
0.0373795
0.0520299
0.0368937
0.0143579
0.00649157
-0.00317206
-0.0116148
-0.0170378
-0.0195376
-0.0184846
-0.0132164
-0.00410721
0.0072834
0.0187615
0.0285421
0.033961
0.0321655
0.0443327
0.0223688
0.00202803
-0.00327221
-0.00758523
-0.011326
-0.0152922
-0.0193721
-0.0213064
-0.0188105
-0.0114731
-0.000547338
0.0112793
0.0212357
0.0260554
0.023288
0.0311483
0.00707548
-0.00778665
-0.0106964
-0.0109939
-0.011284
-0.0138882
-0.018716
-0.0229184
-0.023386
-0.0186658
-0.00956315
0.00129332
0.010538
0.0147181
0.0120201
0.0147134
-0.0060458
-0.0146253
-0.0153628
-0.0133855
-0.012043
-0.0140459
-0.0193786
-0.0252429
-0.0282308
-0.0262764
-0.0195523
-0.0102001
-0.00199418
0.00187701
4.23546e-05
-0.000868037
-0.0148104
-0.0181971
-0.0169487
-0.013893
-0.0122385
-0.0143754
-0.0202695
-0.0274603
-0.0326341
-0.0333823
-0.0292604
-0.0219469
-0.0146425
-0.0105102
-0.0108037
-0.0122593
-0.018433
-0.0183862
-0.015688
-0.0123388
-0.0107427
-0.0129198
-0.0190848
-0.0272619
-0.0344487
-0.0380405
-0.0369076
-0.0318803
-0.0254395
-0.020509
-0.0185837
-0.0179964
-0.0166247
-0.0144386
-0.010687
-0.00700812
-0.00525559
-0.00719506
-0.0133093
-0.0222489
-0.031423
-0.0380933
-0.0404105
-0.0381194
-0.032689
-0.0266502
-0.0219865
-0.0180952
-0.00993065
-0.00616135
-0.00153117
0.00258886
0.00484304
0.00352416
-0.00221658
-0.011638
-0.0226056
-0.032343
-0.0383482
-0.0392386
-0.0352801
-0.0283679
-0.0208901
-0.0133126
5.79913e-05
0.00495439
0.0103143
0.0149616
0.0178606
0.0173928
0.0123963
0.00305709
-0.00900183
-0.0211363
-0.0304658
-0.0346294
-0.0327434
-0.0258497
-0.0163245
-0.00531988
0.0108825
0.016126
0.021884
0.026773
0.0301192
0.0305682
0.0267506
0.018393
0.00653743
-0.00657047
-0.0179619
-0.0247754
-0.025249
-0.0195567
-0.00962168
0.00386153
0.0206112
0.0246959
0.0300187
0.0343751
0.0376551
0.0387784
0.0364877
0.0301338
0.0201393
0.00811363
-0.00333922
-0.0113376
-0.0136945
-0.00996694
-0.0014419
0.01285
0.0290609
0.0299311
0.0334907
0.0359667
0.0380212
0.039196
0.0383721
0.0347469
0.0281706
0.0193536
0.0102126
0.00315236
0.000276251
0.00223657
0.0081171
0.0217839
0.0367676
0.0321353
0.0323409
0.0307311
0.0297576
0.0300639
0.0306062
0.030278
0.0284318
0.024435
0.0197666
0.0158832
0.0143984
0.0157191
0.0185969
0.0314976
0.0424253
0.029696
0.0251048
0.0175742
0.0125384
0.0123497
0.0149166
0.0180918
0.0206747
0.0228202
0.0240219
0.0249727
0.0264766
0.0281037
0.0285801
0.0413858
0.0458791
0.0283587
0.0273403
0.0258186
0.0241534
0.0208451
0.0159274
0.0128509
0.0138259
0.0183733
0.0245467
0.0305692
0.0356432
0.0383508
0.0359471
0.0494345
0.0286954
0.00833812
0.00559525
0.000656749
-0.00580681
-0.0127267
-0.0177877
-0.0182026
-0.0135685
-0.00555075
0.00358347
0.0121227
0.0192622
0.0230787
0.0209848
0.0359515
0.0174234
-0.00830283
-0.015926
-0.0245015
-0.0310871
-0.0344149
-0.0352385
-0.0329122
-0.026567
-0.0166174
-0.00492793
0.0062598
0.0152311
0.0192351
0.0152687
0.0278304
0.00605225
-0.0183182
-0.0248671
-0.028707
-0.0302323
-0.0316115
-0.0338635
-0.0346577
-0.0312771
-0.0226559
-0.0109699
0.00117186
0.0108059
0.0145133
0.00965789
0.0172139
-0.00340903
-0.0223632
-0.027421
-0.0279815
-0.0267382
-0.0274734
-0.0310773
-0.0344736
-0.0339501
-0.027729
-0.0168984
-0.0047068
0.00511643
0.00886138
0.00454085
0.00614848
-0.00952278
-0.0216048
-0.0246657
-0.0235464
-0.0218173
-0.0232217
-0.0282649
-0.0337737
-0.035765
-0.0319463
-0.0227862
-0.011257
-0.00160955
0.0024986
-0.000390272
-0.0028527
-0.0117434
-0.0179682
-0.0186649
-0.0167275
-0.0155647
-0.0180564
-0.0242911
-0.0313763
-0.0355509
-0.0342975
-0.0275205
-0.0176695
-0.00868069
-0.00408136
-0.00513137
-0.00802774
-0.010556
-0.012712
-0.0111905
-0.00863638
-0.00774563
-0.0105997
-0.0171965
-0.0252165
-0.0313839
-0.0330973
-0.0296075
-0.0224491
-0.0147911
-0.009817
-0.00879253
-0.00913738
-0.00627764
-0.00581617
-0.00232034
0.00118558
0.0026833
0.000512602
-0.00558219
-0.0140162
-0.0220921
-0.0271712
-0.0277658
-0.0242236
-0.0185614
-0.0134009
-0.0102071
-0.00678343
0.000516776
0.00301944
0.00803635
0.0126852
0.0154385
0.0146986
0.00973995
0.00137176
-0.00832108
-0.0167428
-0.0216706
-0.0222258
-0.0190618
-0.0140131
-0.00873698
-0.00187103
0.00871031
0.0128254
0.0186329
0.0241537
0.0282044
0.0291184
0.0256889
0.0179938
0.00747529
-0.00344929
-0.0121188
-0.0165303
-0.0160431
-0.0115617
-0.00473569
0.00444911
0.0167497
0.0214931
0.0270496
0.0326219
0.0373983
0.0397254
0.0380441
0.0318062
0.0217738
0.00995175
-0.000885005
-0.00805772
-0.00992539