/*--------------------------------*- C++ -*----------------------------------*\
| =========                 |                                                 |
| \\      /  F ield         | OpenFOAM: The Open Source CFD Toolbox           |
|  \\    /   O peration     | Version:  3.0.0                                 |
|   \\  /    A nd           | Web:      www.OpenFOAM.org                      |
|    \\/     M anipulation  |                                                 |
\*---------------------------------------------------------------------------*/
FoamFile
{
    version     2.0;
    format      ascii;
    class       surfaceScalarField;
    location    "7.5";
    object      phi;
}
// * * * * * * * * * * * * * * * * * * * * * * * * * * * * * * * * * * * * * //

dimensions      [0 3 -1 0 0 0 0];

internalField   nonuniform List<scalar> 
11520
(
-0.000429344
-0.000661954
-6.43642e-05
-0.000348748
-0.000658875
0.000101319
-0.000237725
-0.000659408
0.000268161
-0.000102768
-0.000638709
0.000431786
4.12231e-05
-0.000587016
0.000571521
0.000165143
-0.000501618
0.000653619
0.000230324
-0.000384515
0.000642921
0.000212053
-0.000247777
0.000531583
0.000118948
-0.000117364
0.000354668
-1.5229e-05
-2.75394e-05
0.000165242
-0.000154828
-2.79246e-06
-5.17791e-07
-0.000276985
-4.59776e-05
-0.000127126
-0.000371317
-0.000140391
-0.000210924
-0.000435402
-0.000258986
-0.000247232
-0.000468427
-0.000376423
-0.000235022
-0.000460022
-0.000185926
-0.000463409
-0.000647294
-0.000135229
-0.00039054
-0.000656636
3.07294e-05
-0.000284756
-0.000660921
0.000199178
-0.000153613
-0.000636135
0.000370711
-7.0519e-06
-0.000573682
0.000527285
0.000132443
-0.000471578
0.000638388
0.000231678
-0.000335486
0.000666352
0.000256855
-0.000178654
0.000589949
0.000197475
-2.91971e-05
0.000425705
7.35705e-05
7.28174e-05
0.000222119
-7.8423e-05
9.63941e-05
2.76875e-05
-0.000226115
3.91139e-05
-0.000128012
-0.000348698
-7.52051e-05
-0.00023328
-0.000436512
-0.000212551
-0.000283243
-0.000486283
-0.000343885
-0.000280155
-0.000436458
-0.000236709
-0.000503091
-0.000571602
-0.000213298
-0.000435753
-0.000602091
-5.32096e-05
-0.000331984
-0.000617748
0.000112471
-0.000200031
-0.000597089
0.000286491
-4.88298e-05
-0.000533264
0.000453233
0.00010499
-0.000425223
0.000585465
0.000232188
-0.0002783
0.000648416
0.0002974
-0.000105073
0.000613608
0.000276818
6.74238e-05
0.000479873
0.000174161
0.000194698
0.000282326
1.96473e-05
0.000234983
7.3573e-05
-0.000149241
0.00017911
-0.000104904
-0.000302109
5.38112e-05
-0.000232089
-0.00042045
-0.000100158
-0.000301161
-0.000495088
-0.000248576
-0.000314622
-0.000356704
-0.000282086
-0.000519024
-0.000446268
-0.000287045
-0.000459704
-0.000505843
-0.00014901
-0.000360632
-0.000538318
-1.22189e-06
-0.000231417
-0.000529004
0.000161096
-8.08222e-05
-0.000472763
0.000325122
7.73024e-05
-0.000368705
0.000468426
0.000219986
-0.000220696
0.000561704
0.000316125
-3.83725e-05
0.0005754
0.000335504
0.000155344
0.000493609
0.000265329
0.000315652
0.000330322
0.000122177
0.000389257
0.000129965
-5.66054e-05
0.000352364
-5.77494e-05
-0.000232778
0.000228099
-0.000201706
-0.000378237
6.22112e-05
-0.000290374
-0.000477348
-0.000103987
-0.000325378
-0.000233067
-0.00031135
-0.000500211
-0.000289465
-0.000345404
-0.000451258
-0.000380961
-0.000246713
-0.000360924
-0.000434393
-0.000133378
-0.000238964
-0.000441867
1.31733e-06
-9.50392e-05
-0.000400415
0.000148487
5.8523e-05
-0.000308822
0.00029065
0.000203981
-0.000169132
0.000405358
0.000317232
1.27882e-05
0.000466568
0.000369448
0.000220082
0.000450343
0.000336769
0.000412832
0.00034853
0.000218642
0.000530623
0.000184874
4.46937e-05
0.000530302
6.79364e-06
-0.000143259
0.00042134
-0.000143754
-0.000307997
0.000251505
-0.000249598
-0.000427048
6.98885e-05
-0.000308637
-8.24322e-05
-0.000320295
-0.000441554
-0.000126055
-0.000377945
-0.000405117
-0.000247689
-0.000332789
-0.00032617
-0.000323298
-0.000266749
-0.000214929
-0.000350574
-0.000172399
-8.15609e-05
-0.000327982
-5.52573e-05
6.19839e-05
-0.000254175
7.38638e-05
0.000201569
-0.000129322
0.000198396
0.000318953
4.43637e-05
0.000298048
0.000390918
0.000255474
0.000347707
0.000390924
0.000472497
0.00032364
0.000304915
0.000635301
0.000223194
0.000148835
0.000683167
7.84126e-05
-3.73342e-05
0.000604608
-6.61039e-05
-0.000211158
0.000441462
-0.00018318
-0.000343388
0.000249467
-0.000265484
7.47245e-05
-0.000307878
-0.000343407
1.68739e-05
-0.000376613
-0.000320237
-0.000128643
-0.000390989
-0.000254126
-0.000224768
-0.00037812
-0.00015551
-0.000271764
-0.000331209
-3.49226e-05
-0.000268829
-0.000251639
9.60452e-05
-0.000214116
-0.000145945
0.000225735
-0.000106043
-2.54355e-05
0.000338622
5.45626e-05
9.90108e-05
0.000417545
0.000261867
0.000201674
0.000438791
0.000492334
0.000254228
0.000382458
0.000691737
0.000232146
0.000252183
0.000789482
0.000141651
7.98686e-05
0.000751397
1.97063e-05
-9.18818e-05
0.000605583
-9.93378e-05
-0.000229102
0.000409948
-0.000200368
0.000216116
-0.000274867
-0.000214593
0.000116676
-0.000340044
-0.000203802
-4.49591e-05
-0.000407172
-0.000151085
-0.000156987
-0.00044377
-6.62427e-05
-0.000220281
-0.000443033
4.03272e-05
-0.000234544
-0.000403131
0.000157782
-0.000197505
-0.000326403
0.00027485
-0.000106243
-0.00021846
0.000379187
4.07699e-05
-8.92521e-05
0.000456373
0.000240175
4.51767e-05
0.000487265
0.000475295
0.00015657
0.000452425
0.000699016
0.000209292
0.000348859
0.000838256
0.000184096
0.000198988
0.00084177
9.93054e-05
4.0047e-05
0.000720359
-1.01658e-05
-9.3194e-05
0.00052804
-0.000121794
0.000320305
-0.000224209
-7.60608e-05
0.000159246
-0.00027727
-7.59872e-05
-1.07422e-05
-0.000377541
-3.67899e-05
-0.000131778
-0.000449074
3.32539e-05
-0.000205184
-0.000484419
0.000124652
-0.000231662
-0.000478806
0.000227218
-0.000208903
-0.00043141
0.000330215
-0.000132691
-0.00034464
0.000422637
5.48719e-07
-0.000224123
0.000492661
0.000190157
-8.1132e-05
0.000524672
0.000423388
6.22643e-05
0.000503045
0.000659444
0.000168441
0.000423504
0.000826576
0.000201475
0.000301064
0.000864509
0.000158637
0.000164238
0.000768764
6.80597e-05
4.41094e-05
0.000585115
-4.36259e-05
0.00037021
-0.000163106
4.03764e-05
0.000142314
-0.000205744
3.19616e-05
-2.90307e-05
-0.000311885
5.77961e-05
-0.000150834
-0.000396146
0.000112467
-0.000226864
-0.000450426
0.000187915
-0.000259394
-0.000467638
0.000274302
-0.000246458
-0.000444444
0.00036099
-0.000182842
-0.00038076
0.00043774
-6.31784e-05
-0.000279057
0.000494539
0.000114241
-0.000145815
0.000520578
0.000339535
2.3901e-06
0.000505604
0.00057581
0.000131377
0.000447575
0.000755341
0.000198643
0.000355741
0.000816007
0.000187769
0.000248821
0.000742487
0.000117971
0.000150508
0.000570657
1.61535e-05
0.000355871
-0.000103564
0.000104469
7.13201e-05
-0.000140161
9.12241e-05
-9.18066e-05
-0.000227572
0.000105629
-0.000205584
-0.000301533
0.000146238
-0.000277062
-0.000355008
0.000206649
-0.000309716
-0.00038027
0.000276679
-0.000301803
-0.000372567
0.000344706
-0.000247483
-0.00033002
0.000400463
-0.000140214
-0.000252435
0.000436446
2.28396e-05
-0.000142397
0.000448066
0.000233352
-1.28064e-05
0.000432844
0.000456282
0.000108522
0.000393086
0.000631262
0.000179579
0.000333155
0.000700125
0.000181718
0.000261975
0.000642386
0.000128407
0.00019289
0.000484026
4.40366e-05
0.000277268
-5.71427e-05
0.000103724
-4.34916e-05
-8.57482e-05
9.18252e-05
-0.000184823
-0.000138941
0.000100335
-0.000281945
-0.000185588
0.000131769
-0.0003429
-0.000221456
0.000180946
-0.000370673
-0.000240519
0.00023649
-0.000363044
-0.000238824
0.000284663
-0.000313742
-0.000214221
0.000314695
-0.000216213
-0.000164603
0.000322347
-6.83138e-05
-8.91908e-05
0.000310809
0.000120146
4.11051e-06
0.00028746
0.000317024
9.1635e-05
0.000259282
0.000470395
0.000142408
0.000228225
0.000531062
0.000142021
0.00019354
0.000479199
0.000101013
0.000157467
0.00033529
3.96258e-05
0.000145636
-2.93453e-05
4.71966e-05
-0.000186126
-4.27929e-05
4.47575e-05
-0.0002931
-5.50591e-05
5.65985e-05
-0.000366639
-6.53228e-05
8.75806e-05
-0.000412377
-7.25876e-05
0.000132598
-0.000430954
-7.44759e-05
0.00017836
-0.000418831
-7.07066e-05
0.000208409
-0.000369486
-6.13645e-05
0.000211394
-0.000277657
-4.36993e-05
0.000187375
-0.000144369
-1.30767e-05
0.000147866
1.7473e-05
2.90408e-05
0.000109299
0.000177984
6.87592e-05
8.35627e-05
0.000295007
8.74906e-05
7.17812e-05
0.000331731
7.77699e-05
6.63848e-05
0.000275883
4.78609e-05
5.98556e-05
0.000146809
1.16493e-05
-1.6922e-05
-2.07098e-05
-4.31752e-05
-0.000336218
-1.36819e-05
-2.98097e-05
-0.000403117
1.66765e-05
-4.59322e-06
-0.000450621
4.55257e-05
3.65469e-05
-0.000478175
7.26142e-05
8.70313e-05
-0.000483414
9.51191e-05
0.000131288
-0.000461538
0.000107283
0.000149852
-0.000406375
0.000104221
0.000130661
-0.000315273
8.77385e-05
7.79148e-05
-0.000194148
6.74254e-05
1.05929e-05
-6.03057e-05
5.14564e-05
-4.77107e-05
5.82156e-05
3.87972e-05
-8.09616e-05
0.000129902
2.28932e-05
-8.77075e-05
0.000132808
1.77159e-06
-7.91273e-05
6.6258e-05
-1.85353e-05
-6.78192e-05
-4.94768e-05
-3.06452e-05
-0.000181994
-3.1189e-05
-0.000148115
-0.000473973
-2.19728e-06
-0.000115001
-0.000505261
6.80701e-05
-6.89363e-05
-0.000529492
0.000136503
-8.22615e-06
-0.000538794
0.000200201
5.855e-05
-0.000527225
0.00025157
0.000112806
-0.000489717
0.000277739
0.000131483
-0.00042173
0.000266791
0.000100929
-0.000324454
0.000218489
2.76868e-05
-0.000210062
0.000147845
-6.40075e-05
-0.000101175
7.44489e-05
-0.000145261
-2.39561e-05
1.03804e-05
-0.000196704
8.50442e-07
-3.99404e-05
-0.000215201
-3.29072e-05
-7.44558e-05
-0.000211393
-0.000113234
-8.96965e-05
-0.000198152
-0.000218786
-8.3581e-05
-0.000323768
-5.95344e-05
-0.000239715
-6.25083e-06
-0.000189633
9.71313e-05
-0.000122943
0.000197637
-4.07343e-05
0.000292242
4.74942e-05
0.000370211
0.000121412
0.000413537
0.000153803
0.000403766
0.000126326
0.000336088
4.37375e-05
0.000227184
-6.73735e-05
0.000105258
-0.000174791
-5.97683e-06
-0.000254499
-9.10379e-05
-0.000298845
-0.000142655
-0.000313617
-0.000157542
-0.000308708
-0.000138284
-9.63977e-05
-0.00065299
-0.000562252
-4.50951e-05
-0.000604585
-0.000516547
7.33056e-05
-0.00051942
-0.000490216
0.000193159
-0.000401644
-0.000459742
0.000309373
-0.000262577
-0.000418419
0.000409054
-0.000126829
-0.000362562
0.00047324
-3.04242e-05
-0.000290341
0.000481112
-3.89516e-06
-0.000206789
0.000422988
-5.13979e-05
-0.000129399
0.000312525
-0.000149311
-8.32465e-05
0.000179663
-0.000265583
-8.52268e-05
5.14752e-05
-0.000376023
-0.000133969
-5.56703e-05
-0.000469886
-0.000212839
-0.000132424
-0.000544137
-0.000298313
-0.000171524
-0.00059947
-0.000372333
-0.000169972
-0.000407529
-0.000134393
-0.00067929
-0.00051312
-0.000174433
-0.000635704
-0.000483628
-4.57755e-05
-0.000551682
-0.000461243
8.61834e-05
-0.000434255
-0.000427125
0.000220668
-0.00029345
-0.000376147
0.000344207
-0.000148768
-0.000305415
0.000436559
-3.15361e-05
-0.000215196
0.000473975
2.51877e-05
-0.000112837
0.000439273
4.95769e-06
-1.92736e-05
0.00033581
-8.11901e-05
3.43852e-05
0.000190635
-0.000204002
2.69503e-05
3.8322e-05
-0.000333828
-3.74751e-05
-9.46791e-05
-0.000451466
-0.000135201
-0.000193279
-0.000546839
-0.000236884
-0.000249298
-0.000617427
-0.000321207
-0.000260694
-0.000361859
-0.000230444
-0.000690762
-0.00041452
-0.000295589
-0.000650343
-0.000409524
-0.000167732
-0.000567008
-0.000397497
-3.46106e-05
-0.000448361
-0.000366503
0.000107222
-0.00030336
-0.000313361
0.000245445
-0.000148182
-0.00023559
0.000360463
-9.61219e-06
-0.000133763
0.000428412
7.8825e-05
-1.49723e-05
0.000427307
9.06202e-05
9.96363e-05
0.000349167
2.24676e-05
0.000173854
0.00021101
-0.000102954
0.000177006
4.89383e-05
-0.000252152
0.000109271
-0.000102452
-0.000397223
-7.64287e-07
-0.000221454
-0.000519194
-0.000118862
-0.000297213
-0.000610063
-0.000217886
-0.000327073
-0.000271712
-0.000307843
-0.000663204
-0.00028303
-0.000394636
-0.000628152
-0.000307357
-0.00028623
-0.000548323
-0.000309526
-0.000169022
-0.00043189
-0.000286801
-3.50386e-05
-0.00028669
-0.000237881
0.000104442
-0.000126226
-0.000160889
0.000233261
2.75113e-05
-5.56454e-05
0.000329849
0.00014379
7.32306e-05
0.000370918
0.000190001
0.000208568
0.000338466
0.000147761
0.000313121
0.000233295
2.80007e-05
0.000343858
8.28744e-05
-0.0001351
0.000288055
-7.34332e-05
-0.000304068
0.000173021
-0.000206523
-0.000451626
4.04582e-05
-0.000302136
-0.000563075
-7.65922e-05
-0.000355223
-0.000150338
-0.000356493
-0.0005904
-0.000138346
-0.000457961
-0.000563455
-0.000192408
-0.000388606
-0.000490971
-0.000211466
-0.000303922
-0.000381008
-0.000200873
-0.000194574
-0.000241116
-0.000161625
-6.76611e-05
-8.22733e-05
-9.22736e-05
6.31923e-05
7.81394e-05
8.18586e-06
0.000181115
0.000214506
0.000138296
0.000265136
0.000293487
0.000287964
0.000291966
0.000284346
0.000425697
0.000245095
0.000181459
0.000499071
0.000132547
1.40209e-05
0.000473219
-1.09324e-05
-0.000172905
0.000365327
-0.000149135
-0.000342174
0.000222038
-0.000261908
-0.000472295
8.56564e-05
-0.000340766
-1.27042e-05
-0.00037195
-0.000472694
-1.85908e-06
-0.000473646
-0.000456543
-8.21241e-05
-0.000459224
-0.000394768
-0.000119605
-0.000420385
-0.000295262
-0.0001242
-0.000348578
-0.000165456
-9.87154e-05
-0.000247973
-1.4221e-05
-4.20757e-05
-0.000127569
0.000144497
4.75979e-05
2.66383e-07
0.000291425
0.000170807
0.000118609
0.00039693
0.000324983
0.000205184
0.000424009
0.000489934
0.000232324
0.000349223
0.000613658
0.000183394
0.000189645
0.000636524
7.46857e-05
-6.5412e-06
0.000551514
-5.61035e-05
-0.000192289
0.000405064
-0.000180458
-0.000338291
0.00025047
-0.000284297
0.000124988
-0.000351952
-0.000316161
0.000107405
-0.000435574
-0.000312761
6.45199e-06
-0.000482965
-0.000264343
-4.93538e-05
-0.000496789
-0.00017854
-7.08163e-05
-0.000470395
-6.25073e-05
-6.14034e-05
-0.000404984
7.60749e-05
-2.05594e-05
-0.000306043
0.000226273
5.39799e-05
-0.000182015
0.000374569
0.000165725
-4.42037e-05
0.000497077
0.000315711
8.84377e-05
0.000557702
0.00049608
0.000187457
0.000519446
0.00066613
0.000217931
0.000381061
0.000749792
0.000166768
0.000186955
0.000705254
6.00725e-05
-8.23753e-06
0.000567183
-6.62635e-05
-0.000166146
0.000398323
-0.000190312
0.000245817
-0.000295984
-0.000135596
0.000175066
-0.000347228
-0.000146133
6.00705e-05
-0.000450254
-0.000112514
-1.21408e-05
-0.000514602
-4.24874e-05
-4.95629e-05
-0.000534313
5.70414e-05
-5.65189e-05
-0.000507544
0.000179306
-3.2535e-05
-0.000436692
0.000316217
2.56645e-05
-0.000327056
0.000457112
0.000122504
-0.000186926
0.000585226
0.000262481
-2.97083e-05
0.00067027
0.000446355
0.000121252
0.000670217
0.000648835
0.000226639
0.000565402
0.000791876
0.000246828
0.000387851
0.000800293
0.000181817
0.000194339
0.000683912
6.66174e-05
3.01567e-05
0.000508979
-6.82684e-05
0.00033311
-0.000206227
4.02573e-05
0.000194348
-0.000226184
1.69048e-05
6.98275e-05
-0.000363945
3.54676e-05
-1.30219e-05
-0.000466756
8.91205e-05
-6.21366e-05
-0.000525498
0.000171157
-8.28278e-05
-0.000534534
0.00027531
-7.48537e-05
-0.000493244
0.000394758
-3.38234e-05
-0.000404601
0.000521357
4.64015e-05
-0.00027462
0.000643115
0.000172634
-0.000113043
0.000737395
0.0003511
6.32393e-05
0.000766571
0.000568441
0.000219658
0.000701115
0.00075475
0.000304057
0.000555538
0.0008157
0.000288807
0.000378937
0.00073155
0.000197022
0.000219255
0.00056115
6.3886e-05
0.000370817
-9.21822e-05
0.000171599
0.000163303
-9.96007e-05
0.000138508
3.43553e-05
-0.000243322
0.000144065
-5.08617e-05
-0.000363864
0.000183051
-0.000104186
-0.000447362
0.000249189
-0.000133054
-0.00048355
0.000335861
-0.000137707
-0.000468264
0.000436144
-0.00011272
-0.000402146
0.000542771
-4.99153e-05
-0.000289366
0.000646476
6.02784e-05
-0.000137165
0.000730973
0.000227212
4.17817e-05
0.000769726
0.000442807
0.000218258
0.000736766
0.000647161
0.000339192
0.000632965
0.00074461
0.000362661
0.000490716
0.000693873
0.000297896
0.000351311
0.000537684
0.000179025
0.000345594
2.62715e-05
0.000222148
8.27162e-05
8.64265e-06
0.000185216
-4.02896e-05
-0.000115995
0.000182008
-0.000118195
-0.000230991
0.000210742
-0.00016751
-0.000320418
0.000265569
-0.00019757
-0.000370581
0.000338336
-0.000209255
-0.000373785
0.00042014
-0.000196465
-0.000328079
0.000502547
-0.000149093
-0.000235664
0.00057733
-5.50467e-05
-0.000101855
0.000633684
9.58899e-05
6.21618e-05
0.000659405
0.000295787
0.00022982
0.000641894
0.000491561
0.000352691
0.000578289
0.000599256
0.000390677
0.000482114
0.000571601
0.000346854
0.000378298
0.00043483
0.000250705
0.000253711
0.000122674
0.000179377
-4.03059e-05
8.64722e-05
0.000146131
-0.000141319
-4.66512e-06
0.000140704
-0.000202816
-9.554e-05
0.000165711
-0.000241602
-0.00017237
0.000215678
-0.000266595
-0.000221462
0.000279884
-0.000278871
-0.000233413
0.000345496
-0.000271996
-0.000204302
0.000401086
-0.000234774
-0.000134513
0.000438907
-0.00015419
-2.78681e-05
0.000455783
-2.20226e-05
0.000105147
0.000453693
0.000149835
0.000239676
0.000436019
0.000314551
0.000337092
0.000402539
0.000405955
0.000368802
0.000352138
0.000384845
0.00033817
0.000290172
0.000268292
0.00026813
0.000108975
0.000176988
6.06361e-05
-0.000187651
0.000130363
3.82741e-05
-0.000252323
7.83069e-05
3.85945e-05
-0.000291182
2.27223e-05
6.7251e-05
-0.000315338
-2.75085e-05
0.000119069
-0.000330883
-6.20062e-05
0.000180292
-0.000337839
-7.29621e-05
0.000233135
-0.000329568
-5.66354e-05
0.000262582
-0.000295423
-1.24977e-05
0.000262639
-0.000224504
5.71804e-05
0.000239292
-0.000113757
0.000144123
0.000207881
2.06409e-05
0.000229364
0.000183012
0.00013926
0.00028765
0.000166866
0.000196318
0.000303554
0.000149772
0.000168283
0.000281516
0.000122459
7.03552e-05
0.000236899
-5.88329e-05
0.00018311
-9.93624e-05
-0.000333547
0.000138843
-0.000106382
-0.000356158
0.000127531
-9.30228e-05
-0.000371511
0.000112495
-5.31419e-05
-0.000380019
9.7414e-05
7.17038e-06
-0.000383266
8.71896e-05
7.10526e-05
-0.000379645
8.52074e-05
0.000116679
-0.000363077
9.21044e-05
0.00012615
-0.000325112
0.000107956
9.63432e-05
-0.000260278
0.000133007
4.19245e-05
-0.00017263
0.000164748
-1.24979e-05
-8.06771e-05
0.000194538
-4.7446e-05
-1.36736e-05
0.000210775
-6.04073e-05
2.81674e-06
0.000208234
-6.39409e-05
-3.79257e-05
0.000191207
-7.28664e-05
-0.000119641
0.000168276
-0.000215689
0.000145535
-0.000266571
-0.000453661
0.000112975
-0.000256266
-0.000440405
0.000142012
-0.000224523
-0.000435595
0.000168845
-0.000167583
-0.000429497
0.000192739
-9.29597e-05
-0.000418925
0.000212606
-1.939e-05
-0.000400824
0.000225348
2.76266e-05
-0.000369898
0.000226595
2.82993e-05
-0.000321966
0.00021467
-1.83467e-05
-0.000259176
0.000193388
-9.22821e-05
-0.000193051
0.000168805
-0.000164715
-0.000141991
0.000144126
-0.000214594
-0.000123542
0.000119807
-0.000238717
-0.000144847
9.73308e-05
-0.000248478
-0.000198597
8.07348e-05
-0.000256664
-0.000269046
7.40106e-05
-0.000335837
7.54624e-05
-0.000396854
6.5011e-05
-0.000373338
0.000129365
-0.000324156
0.000192913
-0.000249773
0.00025274
-0.000159064
0.000302396
-7.16551e-05
0.000332496
-1.50351e-05
0.000332994
-1.15663e-05
0.000299507
-6.31344e-05
0.000238621
-0.000148644
0.000164454
-0.000238171
9.10667e-05
-0.000309033
2.92348e-05
-0.000354746
-1.35867e-05
-0.000381372
-3.26559e-05
-0.000398538
-2.75487e-05
-6.34276e-06
-0.000761137
-0.000376159
-3.09634e-05
-0.000735038
-0.000290746
3.61731e-05
-0.000674253
-0.000229454
0.000109967
-0.000582137
-0.000181653
0.000179383
-0.000466803
-0.000147179
0.000238071
-0.000347
-0.000125232
0.000278988
-0.000250402
-0.000112539
0.000292762
-0.00020351
-0.000105881
0.000271731
-0.000216834
-0.00010704
0.000217479
-0.000278359
-0.000123217
0.00014025
-0.000364239
-0.000160948
5.51823e-05
-0.000453503
-0.000216867
-2.37606e-05
-0.000534677
-0.000277182
-8.50261e-05
-0.000604052
-0.000323894
-0.000119209
-0.000663232
-0.000345884
-0.000120568
-0.000329634
-8.82245e-05
-0.00079633
-0.000311165
-0.000198544
-0.000776831
-0.000245226
-0.000110794
-0.000717412
-0.000188278
-1.44111e-05
-0.000624043
-0.000137047
8.26932e-05
-0.000504244
-9.28907e-05
0.00017012
-0.000373972
-5.54752e-05
0.00023653
-0.000258176
-2.36797e-05
0.000269319
-0.000185017
1.94126e-06
0.000258291
-0.000172653
1.49576e-05
0.000201449
-0.000219598
3.70002e-06
0.000110662
-0.000306628
-4.09009e-05
5.30478e-06
-0.000410807
-0.00011165
-9.57171e-05
-0.000514176
-0.000189372
-0.000177721
-0.000605854
-0.000251263
-0.000230251
-0.000683278
-0.000282781
-0.000246373
-0.00027051
-0.000217399
-0.000790629
-0.000214122
-0.000346799
-0.000774349
-0.000173863
-0.000255376
-0.000716079
-0.00012664
-0.000154518
-0.000622067
-7.76163e-05
-4.62219e-05
-0.000498743
-2.9404e-05
5.86346e-05
-0.000359173
1.80715e-05
0.000147346
-0.000224935
6.50233e-05
0.000205472
-0.00012425
0.000109292
0.000219271
-8.32592e-05
0.000141879
0.000181255
-0.000112307
0.000146315
9.74427e-05
-0.000200045
0.000108793
-1.30184e-05
-0.000321039
3.37208e-05
-0.000126829
-0.000449637
-5.64458e-05
-0.000225782
-0.000566575
-0.000134066
-0.000297471
-0.000663157
-0.000180019
-0.000333254
-0.000180048
-0.000316667
-0.000734636
-0.000102302
-0.000456724
-0.000722731
-8.96477e-05
-0.000382351
-0.000667387
-5.51692e-05
-0.000295837
-0.000574585
-1.20944e-05
-0.000193362
-0.000450203
3.5018e-05
-8.43624e-05
-0.000304583
8.6453e-05
1.92601e-05
-0.000155737
0.000142705
0.000103321
-2.99981e-05
0.000202154
0.000152316
4.14359e-05
0.000256457
0.000152453
3.51446e-05
0.000286673
9.92282e-05
-4.81803e-05
0.000270586
4.40696e-06
-0.000183351
0.000203385
-0.000107926
-0.000336238
0.000106733
-0.000216814
-0.000478528
1.31354e-05
-0.000307049
-0.000594673
-5.16605e-05
-0.000367436
-7.09761e-05
-0.000375333
-0.000627964
7.7656e-06
-0.000514264
-0.00062288
-5.48089e-06
-0.000477857
-0.000573167
1.37784e-05
-0.000422582
-0.000484871
4.68863e-05
-0.000341852
-0.000363072
8.80054e-05
-0.000242447
-0.000216244
0.00013706
-0.000134242
-5.85611e-05
0.000195454
-2.93177e-05
8.73785e-05
0.000263688
5.76627e-05
0.000189576
0.000337182
0.000109044
0.000213474
0.000399272
0.000108598
0.000143781
0.00041981
5.3015e-05
9.20058e-07
0.000376794
-4.14806e-05
-0.000173274
0.000283066
-0.000151273
-0.000339964
0.000175526
-0.000257609
-0.000475765
8.88437e-05
-0.000345469
4.46543e-05
-0.000389146
-0.000473796
0.000102748
-0.000509118
-0.000478757
6.75802e-05
-0.000527325
-0.000438357
6.94303e-05
-0.000516437
-0.000358374
8.85845e-05
-0.000470259
-0.000243752
0.000118361
-0.000392951
-0.000101245
0.000158712
-0.000291729
5.83272e-05
0.000211982
-0.000175834
0.000217278
0.000280854
-5.75076e-05
0.000347419
0.000365982
4.62423e-05
0.000408513
0.000458563
0.00011194
0.000366248
0.000527676
0.000117793
0.000227003
0.000529361
6.13627e-05
3.74886e-05
0.000453766
-3.72888e-05
-0.000151464
0.00033817
-0.000154149
-0.000306994
0.000228974
-0.000268897
0.000155942
-0.000355949
-0.000279679
0.000172571
-0.000437419
-0.000297975
0.000121175
-0.000518263
-0.000270732
0.000104515
-0.000559118
-0.000203426
0.000106407
-0.000555523
-0.000100915
0.000120243
-0.000509377
3.12733e-05
0.000146072
-0.000425591
0.000184872
0.000187305
-0.000310937
0.000347336
0.000248788
-0.000174601
0.000497508
0.000335226
-3.09789e-05
0.000597622
0.000447777
9.81292e-05
0.00059817
0.000566469
0.00017859
0.000480601
0.000631824
0.000181875
0.000287031
0.000596116
0.000111292
8.0825e-05
0.000484336
-6.22388e-06
-9.36385e-05
0.000355832
-0.000142706
0.000252604
-0.000274584
-6.32842e-05
0.000211939
-0.000306793
-9.67351e-05
0.000149251
-0.000444878
-8.52944e-05
0.000115774
-0.000537302
-3.4355e-05
9.98331e-05
-0.000578678
5.13747e-05
9.52244e-05
-0.000568255
0.000167338
0.000102367
-0.00050895
0.000307394
0.000126006
-0.000405813
0.000462732
0.000172728
-0.000266204
0.000619396
0.000250053
-0.0001012
0.000749232
0.000367374
7.18189e-05
0.000799739
0.000521852
0.000220749
0.00072558
0.000655772
0.000297039
0.000548088
0.000681546
0.000273879
0.000336189
0.000592095
0.000170758
0.000147612
0.000453852
2.22881e-05
0.000323624
-0.000146155
0.000142204
0.000218446
-0.000139499
9.47392e-05
0.000147562
-0.000314792
9.03086e-05
0.000102875
-0.000449426
0.000123558
7.30917e-05
-0.000532006
0.000190012
5.13657e-05
-0.000557129
0.000285785
3.85175e-05
-0.000525167
0.00040617
4.08797e-05
-0.00043986
0.000544865
6.70982e-05
-0.000307685
0.000692733
0.000127221
-0.000138079
0.000831392
0.00023601
5.59446e-05
0.000918721
0.000404563
0.000249618
0.000898465
0.000589643
0.000390442
0.000762078
0.000682374
0.000424365
0.000566714
0.000633696
0.000350786
0.000377609
0.000500976
0.000205866
0.000355466
1.81903e-05
0.000289729
0.000188111
3.08677e-05
0.000233213
0.000112845
-0.000152089
0.000216525
6.63603e-05
-0.000310661
0.000234876
3.12966e-05
-0.000423918
0.000283855
-1.68558e-06
-0.000479478
0.000359537
-3.17606e-05
-0.000473668
0.000457706
-5.09795e-05
-0.000408455
0.000573157
-4.81004e-05
-0.000289619
0.000698784
-9.71696e-06
-0.000125853
0.000821631
8.32467e-05
7.16978e-05
0.000914287
0.000247419
0.000282747
0.000931999
0.000452038
0.000459085
0.000849248
0.000590837
0.000536949
0.000696537
0.00058662
0.000497683
0.000530469
0.000473801
0.000372269
0.00033026
0.000192084
0.000334824
0.000114783
0.000172973
0.000277717
4.56712e-05
8.28547e-06
0.000255628
8.29238e-06
-0.000150834
0.00026613
-2.18209e-05
-0.000277803
0.000304412
-5.72005e-05
-0.000353347
0.000365147
-9.77766e-05
-0.000368504
0.000442949
-0.000134381
-0.000322479
0.00053192
-0.000152889
-0.000219846
0.000624719
-0.000135513
-6.88581e-05
0.000711373
-6.05355e-05
0.00011929
0.000777381
8.73718e-05
0.000323859
0.000800806
0.000280512
0.000500792
0.000761168
0.000428294
0.000592857
0.000664594
0.000451867
0.000578183
0.000543248
0.000364469
0.000481382
0.000237831
0.000332524
0.000262157
8.54862e-07
0.000266883
0.000212881
-4.53042e-05
0.000135586
0.000193278
-6.43684e-05
-3.27585e-06
0.000204666
-8.17854e-05
-0.000123794
0.000241508
-0.000111018
-0.000204487
0.000295603
-0.000153369
-0.000231916
0.000358038
-0.000199266
-0.000201852
0.000420135
-0.000232075
-0.000117425
0.00047384
-0.000230573
1.34866e-05
0.00051309
-0.000172915
0.000178276
0.000536231
-5.04534e-05
0.00035436
0.000543035
0.000107517
0.000503283
0.000526787
0.000230373
0.000582971
0.000480238
0.000257423
0.000579163
0.000408949
0.000193078
0.00051081
9.1865e-05
0.000403264
9.50866e-05
-0.000134397
0.000305451
5.92118e-05
-0.000143351
0.000212229
4.85967e-05
-0.000139426
0.000108395
6.81409e-05
-0.000140556
1.17179e-05
0.000111409
-0.000158461
-5.78309e-05
0.000166657
-0.000194704
-8.68751e-05
0.000219774
-0.000240168
-6.88508e-05
0.000258056
-0.000277462
-5.39278e-06
0.000273684
-0.000284989
9.59681e-05
0.000267656
-0.000244796
0.000222032
0.000251258
-0.000156263
0.000351572
0.00023855
-4.80045e-05
0.00045588
0.000231194
3.13474e-05
0.000509935
0.000216221
4.57119e-05
0.000508201
0.000182543
-1.24509e-07
0.000463779
-7.17496e-05
0.000394346
-0.000120032
-0.000261219
0.000288384
-0.000141019
-0.000229524
0.00023469
-0.000138121
-0.000203771
0.000173942
-0.000105893
-0.000189508
0.000114138
-5.11392e-05
-0.000193914
6.78879e-05
1.09245e-05
-0.000218332
4.67721e-05
6.12352e-05
-0.000254737
5.63629e-05
8.33615e-05
-0.000287426
9.57929e-05
7.12838e-05
-0.000298461
0.000158557
3.3925e-05
-0.000276797
0.000234108
-7.87549e-06
-0.000227405
0.00030748
-3.54666e-05
-0.000172109
0.00036247
-4.47725e-05
-0.000138765
0.000387652
-4.98071e-05
-0.000141334
0.000383288
-6.63334e-05
-0.000172945
0.000357623
-0.000214505
0.00031927
-0.000336592
-0.000352153
0.000221386
-0.000343304
-0.000288449
0.000207649
-0.000324959
-0.000246128
0.000192858
-0.000277551
-0.00021939
0.000175213
-0.00020853
-0.000210811
0.000160482
-0.000135244
-0.000220529
0.000154259
-8.04132e-05
-0.000242001
0.000159029
-6.29224e-05
-0.000263656
0.00017341
-8.72948e-05
-0.000274343
0.000193642
-0.000139764
-0.000270399
0.000214877
-0.000196118
-0.000258467
0.000231542
-0.000236657
-0.000250829
0.000239067
-0.000257985
-0.000256319
0.000236213
-0.000271122
-0.000273728
0.000226267
-0.000289086
-0.00029541
0.00021444
-0.000310827
0.000201814
-0.00050543
0.000121532
-0.000505426
0.000142691
-0.000474591
0.000167809
-0.00041306
0.000191348
-0.000329145
0.000210498
-0.000241547
0.000224051
-0.000175274
0.000229011
-0.00015136
0.000222184
-0.000174892
0.000203218
-0.00023139
0.000174709
-0.000296768
0.0001411
-0.000351936
0.000107795
-0.000391406
8.0522e-05
-0.000421243
6.44055e-05
-0.000451105
6.2564e-05
7.18793e-05
-0.000729556
-0.000159865
-2.31989e-05
-0.00071955
-4.33114e-05
3.78183e-06
-0.000680869
5.02342e-05
4.07926e-05
-0.000617443
0.000112851
7.1515e-05
-0.00053637
0.000137457
9.48858e-05
-0.000451614
0.000122849
0.000112377
-0.000381357
7.53006e-05
0.00012162
-0.000340828
5.01789e-06
0.000117188
-0.000338749
-7.15953e-05
9.49777e-05
-0.00036945
-0.000150745
5.67685e-05
-0.000420234
-0.00022567
8.87262e-06
-0.000477904
-0.000289451
-3.93439e-05
-0.00053409
-0.000330876
-7.81592e-05
-0.000585694
-0.000338026
-9.8812e-05
-0.000634082
-0.000306508
-9.43325e-05
-0.00024055
-5.85782e-05
-0.000782866
-9.74638e-05
-0.000206276
-0.000783221
1.27427e-07
-0.000153878
-0.000748865
8.8634e-05
-8.71662e-05
-0.000684223
0.00015428
-2.33783e-05
-0.000594791
0.0001886
2.95461e-05
-0.000492925
0.000190019
6.74939e-05
-0.000396626
0.000162315
8.60057e-05
-0.000326508
0.000112561
8.06308e-05
-0.000295697
4.85483e-05
5.04942e-05
-0.000308668
-2.56755e-05
-1.43628e-06
-0.00035736
-0.000105678
-6.59953e-05
-0.000428129
-0.000182215
-0.000132184
-0.000507336
-0.000239723
-0.000189667
-0.000584639
-0.00026206
-0.000228914
-0.000656285
-0.000241147
-0.000240088
-0.000179507
-0.000206531
-0.000774866
-2.1256e-05
-0.00036059
-0.000779869
5.29034e-05
-0.000303149
-0.000747808
0.000132947
-0.000230891
-0.000682152
0.000197003
-0.000154601
-0.000587228
0.000236418
-8.41076e-05
-0.000473185
0.000249736
-2.64127e-05
-0.000356691
0.000239487
1.18057e-05
-0.000259273
0.000210047
2.43663e-05
-0.000201916
0.000164937
7.50979e-06
-0.000197864
0.000104888
-3.71721e-05
-0.000245826
3.09008e-05
-0.000101636
-0.000331433
-4.9146e-05
-0.000174291
-0.000434761
-0.000117946
-0.000244231
-0.000537567
-0.000155671
-0.000301055
-0.000629754
-0.000149644