/*--------------------------------*- C++ -*----------------------------------*\
| =========                 |                                                 |
| \\      /  F ield         | OpenFOAM: The Open Source CFD Toolbox           |
|  \\    /   O peration     | Version:  3.0.0                                 |
|   \\  /    A nd           | Web:      www.OpenFOAM.org                      |
|    \\/     M anipulation  |                                                 |
\*---------------------------------------------------------------------------*/
FoamFile
{
    version     2.0;
    format      ascii;
    class       volVectorField;
    location    "7.5";
    object      U;
}
// * * * * * * * * * * * * * * * * * * * * * * * * * * * * * * * * * * * * * //

dimensions      [0 1 -1 0 0 0 0];

internalField   nonuniform List<vector> 
4096
(
(-0.126396 -0.176951 -0.0176013)
(-0.0994673 -0.175075 0.0296922)
(-0.0766972 -0.176012 0.0760167)
(-0.0445933 -0.172211 0.119797)
(-0.00720004 -0.160498 0.155852)
(0.0292929 -0.139597 0.175481)
(0.0554098 -0.109872 0.16978)
(0.0618092 -0.0748281 0.137207)
(0.0461023 -0.0416044 0.0874707)
(0.0146894 -0.0184816 0.0347955)
(-0.0222065 -0.0109605 -0.0109323)
(-0.0566041 -0.0199058 -0.0456941)
(-0.0845808 -0.0420277 -0.0679483)
(-0.105297 -0.0711204 -0.0763939)
(-0.119866 -0.100943 -0.0706218)
(-0.117409 -0.123463 -0.0537915)
(-0.1337 -0.167835 -0.0274563)
(-0.109286 -0.167934 0.0187828)
(-0.0882804 -0.167981 0.0644627)
(-0.0574351 -0.161761 0.109063)
(-0.0206221 -0.146999 0.148336)
(0.0178687 -0.123118 0.174655)
(0.0505901 -0.0910825 0.178891)
(0.0678031 -0.054125 0.155965)
(0.0630675 -0.019203 0.110366)
(0.0376997 0.00422664 0.0545753)
(0.000109852 0.00929044 0.00143515)
(-0.0398513 -0.00435948 -0.0409191)
(-0.0752818 -0.0313456 -0.0685983)
(-0.103028 -0.0637568 -0.0800154)
(-0.122942 -0.094764 -0.0759361)
(-0.122298 -0.11624 -0.0605013)
(-0.143275 -0.159006 -0.041732)
(-0.120362 -0.163592 0.00290717)
(-0.100362 -0.165761 0.0478584)
(-0.0697119 -0.159517 0.0930753)
(-0.0323036 -0.142858 0.134682)
(0.00830412 -0.115424 0.16598)
(0.0462598 -0.0786822 0.178658)
(0.0726864 -0.0360743 0.166142)
(0.0790896 0.00508251 0.128531)
(0.0622233 0.0337639 0.074595)
(0.026998 0.0408557 0.0178042)
(-0.0165882 0.0253845 -0.0305228)
(-0.0592279 -0.00587127 -0.0639937)
(-0.0952432 -0.0432953 -0.0803199)
(-0.122587 -0.0789366 -0.0803965)
(-0.126877 -0.104137 -0.0680842)
(-0.14576 -0.132696 -0.05729)
(-0.125791 -0.143874 -0.0180456)
(-0.10729 -0.149785 0.0226966)
(-0.0775903 -0.145638 0.065417)
(-0.0407236 -0.129868 0.106671)
(7.32166e-05 -0.10222 0.140795)
(0.0402516 -0.0638964 0.160816)
(0.0726845 -0.0177802 0.160071)
(0.0889257 0.0295255 0.135256)
(0.0824461 0.0661787 0.0900128)
(0.0533373 0.0798864 0.0354358)
(0.0095656 0.066928 -0.015352)
(-0.0379948 0.0341999 -0.0533187)
(-0.080994 -0.00709323 -0.0748249)
(-0.115158 -0.0473868 -0.0804988)
(-0.125209 -0.0774857 -0.0732233)
(-0.138143 -0.0952068 -0.0717866)
(-0.122764 -0.11441 -0.0423481)
(-0.106381 -0.125259 -0.0098903)
(-0.0786855 -0.124807 0.0265495)
(-0.0436816 -0.112033 0.0642466)
(-0.00453276 -0.0866614 0.0986577)
(0.0350693 -0.0494316 0.12426)
(0.0697777 -0.00227725 0.135142)
(0.092658 0.049667 0.126159)
(0.0961742 0.0952216 0.0959156)
(0.0760479 0.119346 0.0505608)
(0.0361685 0.113608 0.00239981)
(-0.0128364 0.0828297 -0.0374197)
(-0.0603269 0.0393163 -0.0634277)
(-0.0995678 -0.00537489 -0.07539)
(-0.115429 -0.0413234 -0.0748217)
(-0.119478 -0.0528293 -0.0827649)
(-0.109911 -0.0802089 -0.0668191)
(-0.0960846 -0.0966552 -0.0462179)
(-0.0711696 -0.10096 -0.0195366)
(-0.0389668 -0.0925914 0.0114737)
(-0.00258894 -0.0712383 0.0435375)
(0.0347247 -0.0371513 0.0724945)
(0.0688707 0.00869583 0.0934434)
(0.0946237 0.0627883 0.100667)
(0.105307 0.115873 0.0891656)
(0.0945117 0.152016 0.0592645)
(0.0616459 0.157552 0.0194954)
(0.0149302 0.132635 -0.0185166)
(-0.0339132 0.0892976 -0.047404)
(-0.0759126 0.0411294 -0.065466)
(-0.0969424 -0.000874808 -0.0726979)
(-0.0904631 -0.012198 -0.0878368)
(-0.0870082 -0.0467051 -0.087151)
(-0.0759725 -0.0687244 -0.0802581)
(-0.054286 -0.0781819 -0.0655063)
(-0.0254252 -0.074842 -0.0435387)
(0.007608 -0.0583116 -0.0163258)
(0.0418834 -0.0284167 0.0132882)
(0.0739399 0.0144943 0.0413664)
(0.0997123 0.0683565 0.062529)
(0.113945 0.126198 0.0699048)
(0.110256 0.173151 0.0588798)
(0.0853446 0.19186 0.0325123)
(0.0439656 0.176357 0.000404318)
(-0.00300585 0.13609 -0.028903)
(-0.0451836 0.085988 -0.0518805)
(-0.0699345 0.0384903 -0.0671135)
(-0.0541242 0.0200406 -0.085662)
(-0.0559149 -0.0196735 -0.0987798)
(-0.0477624 -0.046513 -0.104826)
(-0.0295566 -0.0607464 -0.101972)
(-0.00435613 -0.0622605 -0.0898834)
(0.0250539 -0.0505417 -0.0693821)
(0.0558679 -0.025033 -0.0421865)
(0.0850648 0.0143624 -0.0110504)
(0.109291 0.0665554 0.0194878)
(0.124302 0.126524 0.0422741)
(0.124667 0.18134 0.0495252)
(0.106534 0.212242 0.0388727)
(0.0720569 0.207834 0.016024)
(0.0297765 0.17317 -0.0108253)
(-0.00998733 0.122999 -0.0366253)
(-0.0361534 0.0711699 -0.0588071)
(-0.0165224 0.0389588 -0.0773393)
(-0.0217674 -0.00389836 -0.0992949)
(-0.0165635 -0.034125 -0.114371)
(-0.00204141 -0.0519687 -0.120724)
(0.0192163 -0.0574481 -0.117291)
(0.0446828 -0.0499669 -0.104012)
(0.0716901 -0.028612 -0.0816713)
(0.0974428 0.00724712 -0.0519049)
(0.119063 0.0571423 -0.0179439)
(0.133076 0.117415 0.0140128)
(0.1351 0.176965 0.0349257)
(0.121959 0.217061 0.0383078)
(0.0947103 0.222916 0.025572)
(0.059256 0.195094 0.00330386)
(0.0243019 0.146609 -0.0227562)
(-0.000438362 0.0920799 -0.0493901)
(0.0140674 0.0424551 -0.0660598)
(0.0073227 -0.00182797 -0.0897246)
(0.00962823 -0.0335102 -0.107683)
(0.0203566 -0.053167 -0.118378)
(0.037522 -0.0611555 -0.120421)
(0.0588174 -0.0569172 -0.113204)
(0.0815964 -0.0392271 -0.096817)
(0.103142 -0.00692558 -0.0718887)
(0.120892 0.0401626 -0.0401909)
(0.132161 0.0992624 -0.00641276)
(0.134001 0.160585 0.020726)
(0.124524 0.206111 0.0326749)
(0.1045 0.219681 0.0276038)
(0.0774229 0.198415 0.0101641)
(0.0494361 0.152799 -0.0138931)
(0.0287826 0.0973979 -0.041111)
(0.0301878 0.0308481 -0.0545968)
(0.0236722 -0.0128851 -0.0732562)
(0.0236502 -0.0437759 -0.0878113)
(0.0309456 -0.0632212 -0.0974007)
(0.044344 -0.072032 -0.100828)
(0.061637 -0.0697667 -0.0973883)
(0.0799351 -0.054991 -0.0867798)
(0.0963156 -0.0261152 -0.0687785)
(0.108455 0.017571 -0.0437932)
(0.114778 0.0738194 -0.0149327)
(0.114353 0.133591 0.0103387)
(0.107202 0.180296 0.0236294)
(0.0940959 0.198132 0.021775)
(0.07638 0.182074 0.0080029)
(0.0571892 0.139841 -0.012244)
(0.0423706 0.0853412 -0.0354669)
(0.0286933 0.00609833 -0.0435193)
(0.0241931 -0.0339081 -0.0527803)
(0.0233683 -0.0615806 -0.0595368)
(0.0285851 -0.0790035 -0.0637937)
(0.0393832 -0.0871422 -0.0650161)
(0.0534782 -0.0855496 -0.0629816)
(0.0674595 -0.072658 -0.0574904)
(0.0779312 -0.0466879 -0.0477319)
(0.0827987 -0.00680901 -0.0328421)
(0.0819637 0.0447114 -0.0142499)
(0.077072 0.0993659 0.00266955)
(0.070304 0.14264 0.0112954)
(0.0627439 0.160507 0.00886066)
(0.0541174 0.147308 -0.00211403)
(0.0445036 0.108621 -0.0168669)
(0.0362455 0.0571347 -0.0322134)
(0.0119485 -0.0282056 -0.0324626)
(0.011391 -0.0606835 -0.0305355)
(0.0120156 -0.0829254 -0.0275284)
(0.0175468 -0.0969018 -0.0241554)
(0.0278438 -0.103174 -0.0208392)
(0.0403049 -0.101031 -0.0184274)
(0.0508297 -0.0887962 -0.0174472)
(0.0554334 -0.0648427 -0.0168907)
(0.0523836 -0.0288666 -0.0145625)
(0.0433289 0.0163007 -0.00969154)
(0.0324476 0.0626827 -0.00481787)
(0.0238921 0.0981602 -0.00390727)
(0.0193306 0.111527 -0.00854531)
(0.0175246 0.0983092 -0.0166976)
(0.0160646 0.0633581 -0.0247768)
(0.0140647 0.0175445 -0.0304848)
(-0.0143788 -0.0676143 -0.0221404)
(-0.00944528 -0.0899654 -0.00910621)
(-0.00518744 -0.105449 0.00388106)
(0.00339755 -0.114916 0.015684)
(0.0158621 -0.118169 0.0247698)
(0.0290332 -0.114099 0.0288684)
(0.0380268 -0.101025 0.0261506)
(0.0382306 -0.077864 0.0173719)
(0.0282877 -0.0454274 0.00614043)
(0.0114852 -0.00754139 -0.00402452)
(-0.00588751 0.0283703 -0.0122966)
(-0.0180956 0.0528341 -0.0198195)
(-0.0228604 0.0582173 -0.0269535)
(-0.0219142 0.0427348 -0.0322564)
(-0.0191123 0.0114939 -0.0336508)
(-0.0162997 -0.0266489 -0.0303209)
(-0.04481 -0.108215 -0.0143718)
(-0.0336202 -0.120379 0.00879944)
(-0.0243491 -0.129298 0.0311153)
(-0.0104579 -0.133863 0.0512944)
(0.00682429 -0.132908 0.0668957)
(0.0236166 -0.125081 0.0739675)
(0.0340872 -0.109005 0.0689761)
(0.032818 -0.0846353 0.0520992)
(0.0185219 -0.0544666 0.0281996)
(-0.00440503 -0.0236183 0.00361016)
(-0.0281529 0.00111976 -0.0174637)
(-0.0457982 0.0131608 -0.0334417)
(-0.0544243 0.00893946 -0.043541)
(-0.0556206 -0.0101245 -0.046817)
(-0.0534729 -0.0384973 -0.0427856)
(-0.0481256 -0.0690175 -0.0324958)
(-0.0721033 -0.129288 -0.0103814)
(-0.0548456 -0.131835 0.0205744)
(-0.0409137 -0.135071 0.0498213)
(-0.0215635 -0.135598 0.0763666)
(0.00132436 -0.131648 0.0975033)
(0.0235347 -0.121802 0.108468)
(0.0385275 -0.104679 0.104309)
(0.0396608 -0.0804834 0.0837542)
(0.0246495 -0.0527463 0.0513895)
(-0.00215091 -0.0281078 0.015171)
(-0.0320996 -0.0136298 -0.0175898)
(-0.0570601 -0.0133866 -0.042292)
(-0.0728639 -0.0265647 -0.0564557)
(-0.0799937 -0.0482762 -0.0592307)
(-0.0818403 -0.072773 -0.0515012)
(-0.0757654 -0.0946093 -0.0365084)
(-0.183347 -0.154645 -0.0133763)
(-0.159458 -0.140517 0.0235266)
(-0.145931 -0.134239 0.0612223)
(-0.119797 -0.12771 0.0983583)
(-0.085562 -0.118649 0.130475)
(-0.0484243 -0.105716 0.150515)
(-0.0163995 -0.0881367 0.150916)
(0.000644568 -0.0672289 0.128959)
(-0.00280771 -0.0475688 0.0909395)
(-0.0235294 -0.0352411 0.0482635)
(-0.0528213 -0.0342603 0.00970588)
(-0.0827734 -0.0446855 -0.0208262)
(-0.109186 -0.0630183 -0.0417001)
(-0.131289 -0.0837567 -0.0517262)
(-0.151046 -0.102434 -0.0505455)
(-0.15028 -0.112651 -0.0402583)
(-0.188879 -0.138081 -0.0395081)
(-0.167021 -0.127972 -0.00163568)
(-0.154279 -0.12139 0.0375433)
(-0.128287 -0.112831 0.0778605)
(-0.094005 -0.100851 0.115225)
(-0.055754 -0.0846496 0.142816)
(-0.0199959 -0.064072 0.152334)
(0.00409378 -0.0407443 0.138309)
(0.00888189 -0.0196267 0.103109)
(-0.00639485 -0.00782308 0.0570593)
(-0.0352365 -0.00993207 0.0116117)
(-0.0690059 -0.0249773 -0.0259914)
(-0.101415 -0.0476381 -0.0524348)
(-0.129673 -0.071198 -0.0664009)
(-0.154319 -0.090743 -0.0681041)
(-0.154753 -0.0996109 -0.0593167)
(-0.19106 -0.120854 -0.0658114)
(-0.170687 -0.116031 -0.0289844)
(-0.158317 -0.111341 0.00966685)
(-0.132257 -0.102688 0.0510605)
(-0.0974096 -0.0889891 0.0915777)
(-0.0575245 -0.0695725 0.124974)
(-0.0178782 -0.0446104 0.143292)
(0.0133422 -0.0160833 0.139438)
(0.0272463 0.0103808 0.111795)
(0.0191466 0.026018 0.0674289)
(-0.00774894 0.0244791 0.0186318)
(-0.0448629 0.0067852 -0.024399)
(-0.0838292 -0.0202107 -0.056342)
(-0.119442 -0.0482347 -0.0752941)
(-0.150306 -0.0714161 -0.0814664)
(-0.154936 -0.082977 -0.0754903)
(-0.181851 -0.0906271 -0.0887601)
(-0.164898 -0.0928602 -0.0573459)
(-0.153231 -0.0914022 -0.02327)
(-0.127882 -0.0842836 0.0152911)
(-0.0934251 -0.0708924 0.0554613)
(-0.0530885 -0.0506736 0.0920462)
(-0.0111259 -0.0236965 0.118194)
(0.0256331 0.00847026 0.126509)
(0.0483089 0.0406822 0.111965)
(0.0490239 0.0631389 0.0764141)
(0.0264918 0.0664433 0.0299493)
(-0.0121621 0.0496266 -0.0151918)
(-0.0566112 0.0202012 -0.0512457)
(-0.0990085 -0.0119268 -0.0752603)
(-0.135721 -0.0393983 -0.0870829)
(-0.146045 -0.0553821 -0.086003)
(-0.159665 -0.0540401 -0.105037)
(-0.148129 -0.0640209 -0.0836852)
(-0.137679 -0.0665672 -0.0583781)
(-0.114056 -0.0620583 -0.026751)
(-0.0812372 -0.0504861 0.00923532)
(-0.0420187 -0.0314083 0.0456898)
(0.00023416 -0.00468038 0.077321)
(0.0401549 0.0289631 0.0976157)
(0.0699955 0.0659294 0.0997788)
(0.0803477 0.0969815 0.0801144)
(0.0650535 0.109456 0.0431597)
(0.0277365 0.0977708 0.000614326)
(-0.0202619 0.068386 -0.0372587)
(-0.0681843 0.0327692 -0.0657233)
(-0.10978 0.000410775 -0.0838184)
(-0.12672 -0.0214274 -0.0897003)
(-0.125106 -0.0169991 -0.111592)
(-0.120317 -0.0343133 -0.104051)
(-0.111688 -0.0414013 -0.0907472)
(-0.0907054 -0.0403867 -0.0693605)
(-0.0606507 -0.0318172 -0.0409105)
(-0.0239219 -0.0153941 -0.00795959)
(0.0168133 0.00925096 0.025831)
(0.0574877 0.042091 0.0554677)
(0.091991 0.0815522 0.0742664)
(0.111281 0.120828 0.0748364)
(0.105527 0.14577 0.0544619)
(0.073036 0.144154 0.0203192)
(0.0242083 0.118258 -0.0160862)
(-0.0274869 0.0805462 -0.0475889)
(-0.0728193 0.043185 -0.0717671)
(-0.0966198 0.0145635 -0.086068)
(-0.0805371 0.0153359 -0.10654)
(-0.082682 -0.00805249 -0.114374)
(-0.0765379 -0.0199749 -0.11454)
(-0.05895 -0.0231389 -0.105152)
(-0.032537 -0.0184496 -0.0863944)
(0.000679856 -0.00573149 -0.0596588)
(0.0384498 0.0155359 -0.0272103)
(0.07777 0.0458986 0.00746018)
(0.114204 0.0853029 0.0390437)
(0.140279 0.130273 0.0593298)
(0.14487 0.16837 0.0598306)
(0.120653 0.181344 0.0400327)
(0.0744335 0.163458 0.00931091)
(0.021321 0.126068 -0.0228742)
(-0.0264137 0.0842555 -0.0519789)
(-0.0563159 0.0485173 -0.0750827)
(-0.0307578 0.0386696 -0.0902575)
(-0.0386608 0.0107996 -0.11176)
(-0.0356482 -0.00575449 -0.124518)
(-0.021947 -0.0133443 -0.126895)
(0.000226132 -0.0129898 -0.118329)
(0.0291142 -0.00458094 -0.0993051)
(0.0628928 0.0125776 -0.0710935)
(0.0992429 0.0394825 -0.0358879)
(0.134953 0.0769266 0.00253492)
(0.164603 0.124244 0.0372702)
(0.178119 0.172976 0.057641)
(0.164463 0.202429 0.0556398)
(0.124881 0.197084 0.0348384)
(0.073622 0.163453 0.00512802)
(0.0253492 0.118711 -0.0267207)
(-0.00854545 0.0762765 -0.0574051)
(0.0162361 0.0503693 -0.0663712)
(0.00479662 0.0193655 -0.0963804)
(0.00435198 -0.000867055 -0.118285)
(0.0140097 -0.0123033 -0.130126)
(0.031772 -0.0160867 -0.130537)
(0.0560032 -0.0121147 -0.11923)
(0.0850893 0.000588595 -0.0967779)
(0.11715 0.0233554 -0.0645242)
(0.149813 0.0576172 -0.0249418)
(0.17927 0.10446 0.0169402)
(0.197809 0.15935 0.0510785)
(0.194184 0.202988 0.0651486)
(0.164679 0.212403 0.056053)
(0.119631 0.186205 0.0315997)
(0.0738693 0.14119 -8.01001e-05)
(0.0394813 0.0936715 -0.0352377)
(0.0503105 0.0492851 -0.0407605)
(0.0376392 0.0162291 -0.0722069)
(0.0340679 -0.00591025 -0.0978353)
(0.040092 -0.0195986 -0.115109)
(0.0539118 -0.0264235 -0.121823)
(0.0738346 -0.0263637 -0.116932)
(0.0981663 -0.0181465 -0.100404)
(0.1251 5.43712e-05 -0.0729809)
(0.152645 0.0303161 -0.0362222)
(0.177953 0.074767 0.00629967)
(0.195841 0.131185 0.0458751)
(0.198061 0.183136 0.0692498)
(0.179335 0.205149 0.0692669)
(0.144685 0.18837 0.050843)
(0.105779 0.146106 0.0221653)
(0.0751224 0.096407 -0.0126678)
(0.062689 0.0348982 -0.0183592)
(0.0506252 0.00165406 -0.0450174)
(0.0451484 -0.0199662 -0.0685845)
(0.0486212 -0.0336794 -0.0864127)
(0.059702 -0.0417386 -0.0958237)
(0.0764614 -0.0443168 -0.0951565)
(0.096705 -0.039918 -0.0838328)
(0.118175 -0.0261644 -0.0620484)
(0.138761 -0.000213496 -0.0307094)
(0.156218 0.040636 0.00733336)
(0.167843 0.0947145 0.0443917)
(0.169943 0.147761 0.0684945)
(0.159264 0.17615 0.0721795)
(0.136917 0.167359 0.0585941)
(0.108999 0.129822 0.0350179)
(0.0853537 0.0812397 0.00562246)
(0.0504269 0.00783329 -0.00125404)
(0.0405928 -0.0219304 -0.0193549)
(0.035085 -0.0403982 -0.0364151)
(0.0376718 -0.0520772 -0.0503497)
(0.0477176 -0.0595149 -0.0587112)
(0.0629331 -0.0630446 -0.0597568)
(0.0802056 -0.0610477 -0.05265)
(0.0962703 -0.0507024 -0.0371699)
(0.108527 -0.0285928 -0.013709)
(0.115577 0.00789207 0.0153744)
(0.117529 0.0563178 0.0436027)
(0.115255 0.103829 0.0617522)
(0.108797 0.130942 0.0645387)
(0.0975074 0.125856 0.0544211)
(0.0819786 0.0935182 0.0371851)
(0.0664837 0.0491175 0.0165874)
(0.0178492 -0.0284353 0.0101724)
(0.0119627 -0.0503219 0.0022487)
(0.00835884 -0.0634602 -0.00572162)
(0.0120701 -0.0717105 -0.0125903)
(0.0229469 -0.0771535 -0.0167808)
(0.0382643 -0.0800001 -0.017259)
(0.0538079 -0.078557 -0.0135558)
(0.065015 -0.0698803 -0.00532525)
(0.068816 -0.0506555 0.007645)
(0.0651752 -0.0192675 0.0240383)
(0.0573281 0.020541 0.0395759)
(0.049758 0.0574892 0.0486192)
(0.0447557 0.0771848 0.0484859)
(0.0408943 0.0714316 0.0411523)
(0.0350908 0.0440693 0.0305214)
(0.0269163 0.00662654 0.0193205)
(-0.0263134 -0.0681305 0.0154676)
(-0.0266443 -0.0792842 0.0181545)
(-0.0268481 -0.0860844 0.0204255)
(-0.0200627 -0.0902302 0.0225109)
(-0.00657483 -0.0927299 0.0246575)
(0.0104231 -0.0933938 0.0265336)
(0.025701 -0.0905573 0.0275301)
(0.0335027 -0.0816433 0.0277502)
(0.0305721 -0.0643771 0.0283376)
(0.0184912 -0.0388642 0.030029)
(0.00312678 -0.00976544 0.0316654)
(-0.00895329 0.0139718 0.0310345)
(-0.014707 0.0232683 0.0273958)
(-0.0160473 0.0144998 0.0220999)
(-0.0175391 -0.00840562 0.0172799)
(-0.0202801 -0.0372556 0.0141111)
(-0.0730491 -0.105606 0.0142554)
(-0.0667718 -0.106018 0.02737)
(-0.0628921 -0.106906 0.0401133)
(-0.0515131 -0.106948 0.0519762)
(-0.0338065 -0.105838 0.061795)
(-0.0135022 -0.102918 0.0674259)
(0.00342785 -0.0967074 0.0666545)
(0.0103361 -0.0856038 0.0590655)
(0.0038362 -0.0692321 0.0470272)
(-0.0133173 -0.0496842 0.0339881)
(-0.0337327 -0.0317796 0.0221059)
(-0.0501052 -0.0214657 0.0120379)
(-0.0592352 -0.0227383 0.00429962)
(-0.0629201 -0.0351688 -0.000177236)
(-0.0656499 -0.0546548 -0.00065648)
(-0.0650875 -0.075293 0.00230813)
(-0.11077 -0.122512 0.00820947)
(-0.0980876 -0.114825 0.0301751)
(-0.0907438 -0.111972 0.0518675)
(-0.0748377 -0.109459 0.0724721)
(-0.0527089 -0.105977 0.0896587)
(-0.0284395 -0.100483 0.0997389)
(-0.0083125 -0.091591 0.0988923)
(0.000347236 -0.0786454 0.085807)
(-0.00643134 -0.0631313 0.0635368)
(-0.0258499 -0.0489997 0.0377961)
(-0.05011 -0.0410071 0.0136877)
(-0.0715133 -0.0420779 -0.00551468)
(-0.0862807 -0.0516252 -0.0179306)
(-0.0952472 -0.066151 -0.0226623)
(-0.102141 -0.0818185 -0.0200332)
(-0.0997699 -0.0946867 -0.0123739)
(-0.210208 -0.10602 -0.009624)
(-0.188856 -0.081176 0.0138211)
(-0.182234 -0.0659408 0.0383179)
(-0.162721 -0.0551996 0.0618524)
(-0.135086 -0.0483158 0.0820253)
(-0.103554 -0.044754 0.0956886)
(-0.0740829 -0.0433228 0.0992333)
(-0.0543755 -0.0429285 0.0904106)
(-0.0501048 -0.0438108 0.0706134)
(-0.0609756 -0.0476455 0.0444074)
(-0.0813478 -0.0560287 0.0171109)
(-0.104686 -0.0684621 -0.00712559)
(-0.126853 -0.0819494 -0.0253558)
(-0.146865 -0.0922542 -0.0353405)
(-0.167081 -0.096795 -0.0359307)
(-0.164746 -0.0929384 -0.0277696)
(-0.218265 -0.0886615 -0.048653)
(-0.19894 -0.0689485 -0.021065)
(-0.193486 -0.0536051 0.00803619)
(-0.173941 -0.0407139 0.0376785)
(-0.14559 -0.030473 0.0648187)
(-0.112212 -0.0227764 0.0854827)
(-0.07894 -0.0171178 0.0951426)
(-0.0531257 -0.0132387 0.0903293)
(-0.0416364 -0.0122243 0.0709126)
(-0.0468972 -0.0164713 0.041374)
(-0.0655141 -0.0275974 0.00842649)
(-0.091201 -0.0441961 -0.0219343)
(-0.118529 -0.0618998 -0.0456507)
(-0.144699 -0.0755284 -0.0601887)
(-0.17046 -0.0819034 -0.0643564)
(-0.170119 -0.0777157 -0.0572159)
(-0.215583 -0.0683741 -0.0843657)
(-0.198356 -0.0545206 -0.0562502)
(-0.193225 -0.0409648 -0.0263855)
(-0.173737 -0.0278728 0.00573586)
(-0.144949 -0.0157578 0.0371409)
(-0.110088 -0.00458534 0.063713)
(-0.0733738 0.00575748 0.0805932)
(-0.0414457 0.014763 0.0832155)
(-0.0220659 0.0203154 0.0693844)
(-0.0206846 0.0187083 0.0416309)
(-0.0369718 0.00742653 0.00677531)
(-0.0652761 -0.0118574 -0.0276319)
(-0.0985106 -0.0335887 -0.0561965)
(-0.131601 -0.051341 -0.0757644)
(-0.163179 -0.0609272 -0.0848275)
(-0.167234 -0.0588925 -0.0806)
(-0.198513 -0.0408414 -0.112162)
(-0.185444 -0.0339492 -0.0886129)
(-0.180549 -0.0233218 -0.0625431)
(-0.161557 -0.0113093 -0.0321682)
(-0.132918 0.00117961 5.42115e-05)
(-0.0973315 0.0141823 0.0304121)
(-0.0581758 0.0277668 0.0543521)
(-0.0211218 0.0413195 0.066877)
(0.00598695 0.0524092 0.0637464)
(0.0150929 0.0562639 0.0441206)
(0.00264134 0.0484138 0.0127614)
(-0.0272942 0.0293387 -0.022201)
(-0.0660536 0.00500901 -0.0539303)
(-0.105928 -0.0168947 -0.0784581)
(-0.143046 -0.0307811 -0.0936397)
(-0.153428 -0.0329093 -0.0951086)
(-0.167104 -0.0115959 -0.128326)
(-0.160172 -0.0116911 -0.114621)
(-0.155826 -0.00461211 -0.0966996)
(-0.138057 0.00542954 -0.0721982)
(-0.110464 0.017069 -0.0428559)
(-0.0752475 0.0303218 -0.0116128)
(-0.0350716 0.0454177 0.0177685)
(0.00551753 0.0621769 0.0406714)
(0.039502 0.0788004 0.0517305)
(0.0574682 0.0903487 0.0464018)
(0.0514268 0.0898711 0.0248968)
(0.0220086 0.0745199 -0.00620876)
(-0.0211644 0.0493966 -0.0388332)
(-0.0673251 0.0234625 -0.0676846)
(-0.109624 0.00426228 -0.0896761)
(-0.127854 -0.00362816 -0.0995347)
(-0.122726 0.0151468 -0.129854)
(-0.123225 0.00884482 -0.130265)
(-0.120188 0.011755 -0.123915)
(-0.104587 0.0187933 -0.10868)
(-0.079111 0.028273 -0.0855659)
(-0.0455418 0.0401591 -0.056643)
(-0.00595363 0.0549208 -0.0246924)
(0.0361856 0.0729843 0.00658928)
(0.0753214 0.0938579 0.0320467)
(0.102521 0.113982 0.0448633)
(0.106156 0.124793 0.0395493)
(0.0809299 0.117923 0.0177107)
(0.0354725 0.0949345 -0.0127)
(-0.0160433 0.0658053 -0.044478)
(-0.0631848 0.0407124 -0.0731036)
(-0.0900542 0.0258232 -0.093209)
(-0.0682918 0.0365453 -0.115431)
(-0.0762167 0.0253094 -0.131918)
(-0.0755853 0.0235188 -0.138976)
(-0.0632185 0.0264788 -0.135079)
(-0.0410419 0.032422 -0.120573)
(-0.0104928 0.0413162 -0.0967765)
(0.0267679 0.0538819 -0.0656331)
(0.0681916 0.0711062 -0.0297689)
(0.109838 0.0937814 0.00664505)
(0.14484 0.120956 0.036927)
(0.160695 0.145354 0.0517364)
(0.144914 0.152733 0.0450443)
(0.101074 0.136669 0.0211495)
(0.046058 0.106418 -0.011076)
(-0.00540667 0.0755827 -0.0450856)
(-0.040487 0.0529405 -0.0758315)
(-0.009447 0.0508373 -0.0866042)
(-0.0231646 0.036015 -0.117641)
(-0.0259756 0.0294671 -0.137804)
(-0.0177056 0.0276639 -0.14565)
(0.000120801 0.0289797 -0.140797)
(0.026312 0.0334617 -0.1239)
(0.0595687 0.0421337 -0.0962887)
(0.0980194 0.056455 -0.0599568)
(0.138974 0.0780558 -0.0179653)
(0.178025 0.10851 0.0245737)
(0.205182 0.144828 0.0581516)
(0.203619 0.170662 0.0703579)
(0.167649 0.168038 0.0578226)
(0.113029 0.140706 0.0287095)
(0.0588019 0.105606 -0.00820883)
(0.017779 0.0752887 -0.047814)
(0.0446343 0.05724 -0.0487398)
(0.0279093 0.0398061 -0.0889554)
(0.0212491 0.0293634 -0.119433)
(0.0251776 0.0231171 -0.137622)
(0.0381972 0.0195155 -0.142027)
(0.0592215 0.0187411 -0.132563)
(0.0872227 0.0222022 -0.110088)
(0.120813 0.0318176 -0.0762164)
(0.158093 0.0498009 -0.0333555)
(0.196254 0.0793755 0.0148726)
(0.228942 0.122134 0.0608379)
(0.241016 0.164898 0.0900094)
(0.218936 0.180644 0.0912932)
(0.1713 0.162014 0.0688364)
(0.11829 0.126138 0.0325376)
(0.0758918 0.0899729 -0.0118071)
(0.0821629 0.0549353 -0.00986194)
(0.0651697 0.0355994 -0.0517031)
(0.0554457 0.0232246 -0.0874364)
(0.0558222 0.0142366 -0.11274)
(0.0646685 0.0066728 -0.124607)
(0.0808104 0.000795613 -0.12193)
(0.1033 -0.0015592 -0.105007)
(0.130966 0.00212253 -0.0751387)
(0.162254 0.0147815 -0.034363)
(0.194933 0.0407326 0.0144497)
(0.225089 0.0841898 0.0650749)
(0.242932 0.136391 0.103673)
(0.234687 0.168506 0.115751)
(0.200338 0.162472 0.101107)
(0.155167 0.13041 0.0690469)
(0.117492 0.0924278 0.0260293)
(0.0927118 0.041935 0.0227939)
(0.0772204 0.0224664 -0.014123)
(0.0664426 0.0109552 -0.0491408)
(0.0650743 0.00193973 -0.0769016)
(0.0715761 -0.00745269 -0.093132)
(0.084452 -0.0170832 -0.0955534)
(0.10243 -0.024724 -0.0837227)
(0.124106 -0.0271284 -0.0585164)
(0.147778 -0.020288 -0.0217018)
(0.171297 0.00110682 0.023935)
(0.192193 0.0416699 0.072378)
(0.206052 0.0944966 0.111144)
(0.204924 0.133972 0.127018)
(0.185203 0.138299 0.118301)
(0.153697 0.112791 0.092774)
(0.125328 0.0774002 0.0568888)
(0.0728506 0.0170131 0.0452497)
(0.0599147 0.00124335 0.0168359)
(0.0503712 -0.00654118 -0.0124418)
(0.049408 -0.0130121 -0.0376854)
(0.0559341 -0.0217425 -0.0543703)
(0.0679256 -0.0329323 -0.0594429)
(0.0832439 -0.0441334 -0.0517223)
(0.0996332 -0.0513286 -0.0316324)
(0.114842 -0.0493604 -0.000735914)
(0.126937 -0.0323551 0.0379521)
(0.135199 0.0029645 0.0782578)
(0.139848 0.0492564 0.109863)
(0.139368 0.0856772 0.123399)
(0.130812 0.0936112 0.117975)
(0.113936 0.0744984 0.0995009)
(0.0955352 0.0446757 0.0735942)
(0.0282372 -0.0167577 0.0561715)
(0.0190411 -0.0243501 0.0375203)
(0.0122737 -0.0264325 0.0171791)
(0.0134807 -0.0288752 -0.0015009)
(0.0220263 -0.0351215 -0.014854)
(0.0352532 -0.0456171 -0.0198992)
(0.0498138 -0.0579215 -0.0152277)
(0.0621373 -0.0675067 -0.000943712)
(0.0692899 -0.0686041 0.0215799)
(0.0701682 -0.0558606 0.0494071)
(0.0666331 -0.0282348 0.0772023)
(0.0626583 0.00642183 0.0978473)
(0.0605307 0.0327656 0.10616)
(0.058196 0.0385165 0.102328)
(0.0516673 0.0246167 0.0902735)
(0.0412319 0.00213514 0.0740039)
(-0.0298233 -0.0524911 0.0553403)
(-0.0337489 -0.0493835 0.0468618)
(-0.0371831 -0.0452898 0.0371315)
(-0.0326749 -0.0434304 0.0275911)
(-0.0208957 -0.0462797 0.020453)
(-0.00503817 -0.0542724 0.0176887)
(0.0103639 -0.0651737 0.0202207)
(0.0203966 -0.0745593 0.0279673)
(0.0216788 -0.0771105 0.0399419)
(0.0144216 -0.0690508 0.0542048)
(0.00295778 -0.0512613 0.0675579)
(-0.00658534 -0.0305581 0.0764132)
(-0.01086 -0.0165637 0.0787627)
(-0.0118613 -0.0152385 0.0753783)
(-0.0146301 -0.0249883 0.068549)
(-0.0194763 -0.0393596 0.0601913)
(-0.0892407 -0.0829106 0.0436651)
(-0.086699 -0.069692 0.0454196)
(-0.0870571 -0.060402 0.046859)
(-0.078646 -0.0548183 0.0476674)
(-0.0629357 -0.0541015 0.0484263)
(-0.0435787 -0.0584262 0.049512)
(-0.0258888 -0.0659102 0.0507872)
(-0.0157692 -0.0729859 0.051857)
(-0.0168747 -0.07586 0.0525015)
(-0.027994 -0.0727471 0.0525769)
(-0.0433935 -0.0653687 0.0516424)
(-0.0565011 -0.0581514 0.0492211)
(-0.0640993 -0.0554438 0.0454832)
(-0.0679176 -0.0584028 0.0414966)
(-0.0726302 -0.0650382 0.0385104)
(-0.0738074 -0.0718364 0.0365249)
(-0.136457 -0.0942712 0.0249064)
(-0.128454 -0.0749303 0.0357619)
(-0.127202 -0.0633478 0.0471411)
(-0.115372 -0.0561423 0.0579053)
(-0.095781 -0.0533064 0.066857)
(-0.072489 -0.0545677 0.0726369)
(-0.0512878 -0.0583326 0.0736789)
(-0.0387679 -0.0622776 0.0690813)
(-0.038989 -0.0646685 0.0594951)
(-0.0506037 -0.0656112 0.0467956)
(-0.0676928 -0.0668253 0.0331913)
(-0.0838494 -0.0699953 0.0207746)
(-0.0958082 -0.0751855 0.0113513)
(-0.104536 -0.0806165 0.0062942)
(-0.113975 -0.0844858 0.0061274)
(-0.113136 -0.0852717 0.00952488)
(-0.198764 -0.0478347 -0.00683764)
(-0.182816 -0.0157019 0.00430942)
(-0.180662 0.00738907 0.017631)
(-0.167636 0.0214048 0.0296975)
(-0.148273 0.0253574 0.0396593)
(-0.126107 0.0192455 0.0470627)
(-0.105231 0.00493535 0.0507087)
(-0.0902352 -0.0143778 0.0489744)
(-0.0846126 -0.0355238 0.0410656)
(-0.0888217 -0.0560466 0.0278083)
(-0.100093 -0.0744853 0.0115089)
(-0.114597 -0.0891585 -0.00478193)
(-0.129469 -0.097501 -0.0180398)
(-0.143991 -0.0968377 -0.0256743)
(-0.160288 -0.0865492 -0.0258647)
(-0.156681 -0.0686367 -0.0177359)
(-0.211596 -0.033396 -0.0529248)
(-0.197912 -0.00573267 -0.0354692)
(-0.19807 0.0180147 -0.0151973)
(-0.185495 0.0347522 0.00490292)
(-0.164884 0.0425049 0.0225078)
(-0.139368 0.04088 0.0358002)
(-0.11279 0.0311708 0.0428337)
(-0.0903453 0.0158186 0.0418603)
(-0.0768172 -0.00278815 0.0322789)
(-0.0746995 -0.022851 0.0153931)
(-0.0832913 -0.0430787 -0.00561543)
(-0.0993701 -0.0613149 -0.0269659)
(-0.119227 -0.0740886 -0.0452242)
(-0.140474 -0.0778316 -0.0575378)
(-0.16351 -0.0709733 -0.0615568)
(-0.16332 -0.0543969 -0.053934)
(-0.207897 -0.0154382 -0.0929606)
(-0.196963 0.00658842 -0.0740818)
(-0.197809 0.0284634 -0.0523376)
(-0.185418 0.0453122 -0.029036)
(-0.164067 0.0550124 -0.00680219)
(-0.13636 0.0571476 0.011929)
(-0.105602 0.0524528 0.0246139)
(-0.076829 0.0422953 0.0288482)
(-0.0558866 0.0280124 0.0231353)
(-0.0476313 0.010236 0.0079928)
(-0.05375 -0.0101662 -0.0135994)
(-0.0718793 -0.0307488 -0.0373679)
(-0.0971956 -0.0471497 -0.0593873)
(-0.125268 -0.0547611 -0.0764119)
(-0.15433 -0.0510181 -0.0855431)
(-0.159024 -0.0363729 -0.0812682)
(-0.188673 0.00455887 -0.121479)
(-0.182119 0.0206574 -0.106782)
(-0.183031 0.0398674 -0.0885436)
(-0.170748 0.0558829 -0.0664944)
(-0.148941 0.0663912 -0.0429631)
(-0.119733 0.0710486 -0.0204134)
(-0.0858584 0.0704231 -0.00155618)
(-0.0518848 0.0654023 0.0107245)
(-0.0240401 0.0565246 0.0137369)
(-0.00915066 0.0434725 0.00610031)
(-0.0118476 0.0259397 -0.0108513)
(-0.031408 0.00556462 -0.0333594)
(-0.0620474 -0.0132099 -0.0572175)
(-0.0969732 -0.0248633 -0.0787433)
(-0.131793 -0.0254872 -0.0943219)
(-0.143244 -0.0146507 -0.0968741)
(-0.155219 0.0225988 -0.134887)
(-0.154631 0.0330629 -0.129794)
(-0.155756 0.0491028 -0.119404)
(-0.144093 0.0635318 -0.102601)
(-0.122491 0.0738403 -0.0811264)
(-0.0926656 0.0797585 -0.0571087)
(-0.0568564 0.0819508 -0.0329956)
(-0.0189514 0.0813617 -0.0116914)
(0.0152012 0.0784347 0.00329319)
(0.0377434 0.0722712 0.00832441)
(0.0407757 0.0609111 0.00149647)
(0.0217781 0.043745 -0.0155884)
(-0.0133199 0.0241556 -0.0389808)
(-0.0549443 0.00844502 -0.0643719)
(-0.0955154 0.00230605 -0.0871876)
(-0.115474 0.00770974 -0.099647)
(-0.108705 0.0368318 -0.130842)
(-0.115263 0.0423024 -0.139672)
(-0.117576 0.0543672 -0.140466)
(-0.107641 0.0659995 -0.132094)
(-0.0874201 0.0746567 -0.115698)
(-0.0582954 0.0801705 -0.092922)
(-0.0221054 0.083456 -0.065743)
(0.0180206 0.0858542 -0.0366946)
(0.0572462 0.08836 -0.00932301)
(0.0881855 0.0904689 0.0113783)
(0.100421 0.0889638 0.0197479)
(0.0859952 0.0793513 0.0129159)
(0.0487185 0.0617492 -0.00693709)
(0.00111886 0.0427582 -0.0347862)
(-0.0452898 0.0304603 -0.0647385)
(-0.0748572 0.0290472 -0.0891368)
(-0.0516501 0.0469446 -0.1087)
(-0.0653189 0.0483021 -0.133605)
(-0.070274 0.0555768 -0.147518)
(-0.0635457 0.0629692 -0.149634)
(-0.046338 0.0681788 -0.140584)
(-0.0197439 0.0712244 -0.121588)
(0.0147486 0.0733708 -0.094193)
(0.0547376 0.076433 -0.0604548)
(0.0966479 0.0822134 -0.0234286)
(0.134919 0.0917528 0.0120883)
(0.159244 0.102694 0.0384842)
(0.155547 0.106455 0.0470684)
(0.120934 0.095912 0.0350786)
(0.0694782 0.0759037 0.00742362)
(0.017514 0.0576808 -0.0283877)
(-0.0214055 0.0486099 -0.0649623)
(0.0102061 0.0533935 -0.0707633)
(-0.00870017 0.0516177 -0.110549)
(-0.0175987 0.0538343 -0.137763)
(-0.0153593 0.0559417 -0.151177)
(-0.00279358 0.0561162 -0.150774)
(0.019276 0.054668 -0.13739)
(0.049731 0.0532763 -0.112296)
(0.0868194 0.0541929 -0.077286)