/*--------------------------------*- C++ -*----------------------------------*\
| =========                 |                                                 |
| \\      /  F ield         | OpenFOAM: The Open Source CFD Toolbox           |
|  \\    /   O peration     | Version:  3.0.0                                 |
|   \\  /    A nd           | Web:      www.OpenFOAM.org                      |
|    \\/     M anipulation  |                                                 |
\*---------------------------------------------------------------------------*/
FoamFile
{
    version     2.0;
    format      ascii;
    class       surfaceScalarField;
    location    "6.5";
    object      phi;
}
// * * * * * * * * * * * * * * * * * * * * * * * * * * * * * * * * * * * * * //

dimensions      [0 3 -1 0 0 0 0];

internalField   nonuniform List<scalar> 
11520
(
-0.000374387
-0.000661462
0.000348478
-0.000383173
-0.000762716
0.000451921
-0.000340848
-0.000824603
0.000528955
-0.000243452
-0.000839047
0.000557531
-9.81256e-05
-0.000801224
0.000525537
7.43104e-05
-0.000708288
0.000432828
0.000239134
-0.000559921
0.000295284
0.000352835
-0.000357939
0.000142527
0.000378975
-0.000109672
8.20722e-06
0.000312717
0.000151011
-8.57003e-05
0.000189228
0.000345929
-0.000127271
5.51053e-05
0.000402638
-0.000123437
-6.39374e-05
0.00030784
-8.66745e-05
-0.000164735
0.00010421
-2.41782e-05
-0.000251976
-0.000140277
6.09498e-05
-0.000360335
0.000153103
-0.000324547
-0.000753916
0.000290979
-0.000353989
-0.000838682
0.000393112
-0.000328841
-0.000888537
0.000470972
-0.000247911
-0.000897254
0.000509897
-0.000117863
-0.000859781
0.000501017
4.48534e-05
-0.000772633
0.000443205
0.000214183
-0.000633999
0.000345684
0.000357288
-0.000443027
0.000226422
0.000439352
-0.000201267
0.000105058
0.000434539
6.53564e-05
-3.08209e-06
0.000346794
0.000272657
-8.15014e-05
0.000215107
0.000324904
-0.000116562
7.93646e-05
0.000206579
-0.000106858
-4.49962e-05
-1.79116e-05
-5.73236e-05
-0.000156919
-0.000265141
2.38716e-05
-0.000475518
0.000118725
-0.000325327
-0.000772075
0.000219549
-0.000371473
-0.00084423
0.000326354
-0.000352156
-0.000887579
0.000413253
-0.00027012
-0.000895803
0.000467346
-0.000135281
-0.000864042
0.000480105
3.48071e-05
-0.000788825
0.000449095
0.000216355
-0.000667853
0.000380007
0.000382466
-0.000499296
0.000285304
0.000505502
-0.000280678
0.000178079
0.000555868
-2.41898e-05
6.66558e-05
0.000515016
0.000198451
-3.65544e-05
0.000397603
0.000270397
-0.000108238
0.00024183
0.000154697
-0.000130883
7.59344e-05
-7.42119e-05
-0.000102083
-8.37483e-05
-0.000317475
-3.06509e-05
-0.00051652
6.35655e-05
-0.00034944
-0.000718779
0.000135579
-0.000407415
-0.00078451
0.000241159
-0.000388206
-0.00082696
0.00033205
-0.000299062
-0.000838855
0.000396675
-0.000153631
-0.000815724
0.000426642
2.85792e-05
-0.000754572
0.000418133
0.00022429
-0.000653313
0.000373668
0.000409565
-0.000510333
0.000301583
0.000562219
-0.000321976
0.000211468
0.000656681
-8.87813e-05
0.000107824
0.000660868
0.000140602
-4.54675e-06
0.000563328
0.00024482
-0.000103167
0.000389559
0.000155629
-0.000155548
0.000178726
-6.02379e-05
-0.000148104
-3.36442e-05
-0.000293184
-8.92798e-05
-0.00048203
-8.74587e-07
-0.000388445
-0.000602717
4.57564e-05
-0.00045296
-0.000667903
0.000142399
-0.000429794
-0.000713916
0.000229335
-0.000330695
-0.000732243
0.000297002
-0.000172824
-0.000719024
0.000337548
2.24186e-05
-0.000672025
0.00034599
0.000231739
-0.000589719
0.000321974
0.000432425
-0.000471136
0.000270326
0.000605007
-0.0003131
0.000198195
0.000728535
-0.000109598
0.000109025
0.000766336
0.000114037
2.14363e-06
0.000688772
0.000251675
-0.000107453
0.000501476
0.000204767
-0.00017987
0.000250036
1.71774e-05
-0.000189903
-9.96713e-06
-0.000200456
-0.000143981
-0.000381288
-6.54653e-05
-0.000438374
-0.000438443
-4.13763e-05
-0.000503729
-0.000508934
3.9904e-05
-0.00047305
-0.000562291
0.000115299
-0.000362333
-0.00058886
0.000177944
-0.000191714
-0.000585939
0.00022127
1.5818e-05
-0.00055211
0.000239682
0.000236744
-0.000486461
0.000230684
0.000448809
-0.000388817
0.000196291
0.000633195
-0.000256999
0.000141795
0.000771128
-8.22358e-05
7.07549e-05
0.000828756
0.000128721
-2.02575e-05
0.000764137
0.000291899
-0.000124168
0.00056631
0.000293518
-0.000202914
0.000282602
0.000144064
-0.000223267
-1.52815e-05
-5.42015e-05
-0.000188974
-0.000230146
-0.000123198
-0.00049564
-0.000245452
-0.000116695
-0.000556355
-0.000327498
-5.40939e-05
-0.000515028
-0.000391209
2.89374e-06
-0.000391974
-0.000428077
5.42977e-05
-0.00020922
-0.000435687
9.25888e-05
8.8445e-06
-0.000413651
0.000113349
0.000238655
-0.000361854
0.000112955
0.000457822
-0.000280762
9.18999e-05
0.000647236
-0.000169248
5.40217e-05
0.000788267
-1.76273e-05
2.899e-06
0.000849946
0.000179554
-6.6179e-05
0.00078774
0.000361354
-0.000151783
0.000580202
0.000410673
-0.000223381
0.000273555
0.00030411
-0.000246031
-4.89799e-05
0.00012589
-0.000220266
-4.92181e-05
-0.000167386
-0.000555817
-4.69388e-05
-0.00017067
-0.000606492
-0.000147763
-0.000126604
-0.000552934
-0.000225635
-8.85008e-05
-0.000417303
-0.00027398
-5.52855e-05
-0.000223691
-0.000291952
-2.90174e-05
2.66475e-06
-0.000280011
-1.37047e-05
0.000237916
-0.000239046
-1.24346e-05
0.000459387
-0.000169958
-2.50854e-05
0.000647188
-7.21948e-05
-4.86171e-05
0.000781647
6.45588e-05
-7.99967e-05
0.000833258
0.000252773
-0.000124266
0.000761741
0.0004506
-0.000184524
0.00054379
0.000543013
-0.000239059
0.000224828
0.000477969
-0.000256439
-0.000107328
0.000317718
-0.000235085
0.000138161
-0.000192843
-0.000612879
0.000131218
-0.000192901
-0.000648941
4.81319e-06
-0.000163444
-0.000581928
-8.99533e-05
-0.000144917
-0.000434788
-0.000150669
-0.000131606
-0.000232466
-0.000178159
-0.000122578
-7.69234e-07
-0.000174021
-0.000119736
0.000235655
-0.000139963
-0.000124715
0.000453999
-7.78611e-05
-0.000136091
0.000633076
1.29799e-05
-0.000149765
0.000751003
0.000144157
-0.000163254
0.00078133
0.000332954
-0.000182732
0.000690095
0.00054685
-0.000215657
0.000461851
0.000675459
-0.000247654
0.000142038
0.00064501
-0.00025378
-0.000184267
0.00049752
-0.000231561
0.0003083
-0.000195499
-0.000656684
0.000261419
-0.000173463
-0.000675367
0.000105577
-0.00015267
-0.000595521
-7.39895e-06
-0.000149986
-0.000439742
-7.88735e-05
-0.000156897
-0.000232394
-0.00011264
-0.000169387
4.19142e-07
-0.000111795
-0.000186244
0.000233328
-7.94618e-05
-0.000206009
0.000442327
-1.85388e-05
-0.000224218
0.000604294
7.2409e-05
-0.000234676
0.000696377
0.000207356
-0.000234897
0.00069504
0.000405175
-0.000233194
0.00057826
0.000635981
-0.000239814
0.000343018
0.000791316
-0.000247185
3.47122e-05
0.000784337
-0.000237584
-0.000269539
0.000640497
-0.000208027
0.000438152
-0.000172886
-0.000671957
0.000317518
-0.000107146
-0.000673149
0.000133853
-8.89343e-05
-0.000584697
6.22494e-06
-9.66646e-05
-0.000426108
-7.14803e-05
-0.000121433
-0.00021978
-0.000105541
-0.000157303
8.51611e-06
-0.000101076
-0.000199675
0.000232216
-6.32507e-05
-0.000242601
0.000424755
3.93697e-06
-0.000276728
0.000560865
0.00010275
-0.000292179
0.000617343
0.000249278
-0.000286272
0.000577576
0.000460927
-0.000269054
0.000435375
0.000704174
-0.000252886
0.000201882
0.000871648
-0.000235519
-7.97829e-05
0.000872588
-0.000205913
-0.000346677
0.000723793
-0.000165286
0.000506821
-0.000125331
-0.000642812
0.000281488
-2.5662e-06
-0.000630614
8.0878e-05
1.77026e-05
-0.000541391
-5.31312e-05
6.76516e-06
-0.000389216
-0.000129888
-3.01043e-05
-0.000192394
-0.00015678
-8.72243e-05
2.46126e-05
-0.000140734
-0.000157334
0.000233065
-8.88386e-05
-0.000229242
0.000402724
-6.59521e-06
-0.000287201
0.000504733
0.000108632
-0.000316212
0.000517847
0.00027269
-0.000312236
0.000437309
0.000496511
-0.000286305
0.000275851
0.000739088
-0.000252148
5.74186e-05
0.000897486
-0.000211929
-0.000181411
0.000888027
-0.000161367
-0.00039698
0.000726722
-0.000105109
0.000496897
-5.78692e-05
-0.000569233
0.000153802
0.000112649
-0.000549482
-4.46287e-05
0.000140008
-0.000468351
-0.000174537
0.000133927
-0.000332066
-0.000242696
9.42323e-05
-0.000153223
-0.000256216
2.38282e-05
4.6195e-05
-0.000222321
-6.96301e-05
0.0002355
-0.000149075
-0.000170488
0.000379007
-4.3006e-05
-0.000256229
0.00044321
9.74149e-05
-0.000305608
0.000410681
0.000282873
-0.000311464
0.000292402
0.000511226
-0.000283982
0.000120907
0.000733075
-0.000237592
-7.04244e-05
0.000857038
-0.000178923
-0.000255254
0.000818338
-0.000110077
-0.000410705
0.000638575
-3.87314e-05
0.000400828
1.67625e-05
-0.000475398
-4.2492e-05
0.000208676
-0.000453473
-0.000220019
0.000246874
-0.00038507
-0.000335347
0.000252701
-0.000269127
-0.000389364
0.000220312
-0.000112297
-0.000386707
0.000148461
6.7047e-05
-0.00033298
4.28888e-05
0.000237575
-0.000235371
-7.90586e-05
0.000358576
-0.000100349
-0.000190023
0.000391328
7.16096e-05
-0.000263096
0.00032139
0.000280731
-0.000286277
0.000174355
0.000505409
-0.000265944
6.41269e-08
0.000687495
-0.000215795
-0.000161472
0.000754337
-0.000146485
-0.000293751
0.000670154
-6.54213e-05
-0.000392942
0.000468745
1.75722e-05
0.000230067
8.18317e-05
-0.000395251
-0.000267948
0.000269154
-0.00037418
-0.000416809
0.000321579
-0.00031703
-0.000511762
0.000344184
-0.000218193
-0.000549574
0.000326933
-8.02499e-05
-0.000531212
0.00026478
8.19774e-05
-0.000459507
0.000160442
0.000238803
-0.000339582
3.02065e-05
0.000348096
-0.000176897
-9.74515e-05
0.000368069
2.59933e-05
-0.000193304
0.000283076
0.000257997
-0.000240927
0.000123675
0.000475562
-0.0002398
-5.05484e-05
0.000609558
-0.000198444
-0.000193399
0.00060819
-0.000128314
-0.000292717
0.00047132
-4.13952e-05
-0.000356406
0.000249457
4.97575e-05
1.5987e-05
0.000123721
-0.00034215
0.000284149
-0.000321621
0.00035039
-0.000269501
0.000391959
-0.000180468
0.00039617
-5.58157e-05
0.0003549
9.29525e-05
0.000266957
0.000240788
0.000144412
0.00034939
1.27174e-05
0.00037711
-0.000100581
0.000305674
-0.000175401
0.000159079
-0.000202389
-8.35623e-06
-0.000180689
-0.0001502
-0.000120147
-0.000249824
-3.63664e-05
-0.000311963
5.54939e-05
0.00013504
-0.000485239
-0.000735248
0.000569885
-0.000488453
-0.000772414
0.000592996
-0.000428448
-0.000767059
0.000588619
-0.000303022
-0.000713655
0.000535605
-0.000122196
-0.000616442
0.000433106
8.73491e-05
-0.000486301
0.000296965
0.000281965
-0.000337691
0.00015878
0.000409469
-0.000178875
5.57194e-05
0.000432419
-7.74954e-06
9.63466e-06
0.000348238
0.000165516
1.54756e-05
0.000201055
0.000282145
5.28913e-05
4.1895e-05
0.00028403
0.000105728
-0.000101767
0.000161903
0.000168163
-0.000225576
-4.32427e-05
0.000240168
-0.000332724
-0.000267922
0.000319186
-0.000447822
0.000382727
-0.000418157
-0.000792334
0.000438438
-0.000442843
-0.000817111
0.000462494
-0.000402505
-0.000802558
0.000466133
-0.000296855
-0.000746128
0.000436721
-0.000134011
-0.000651133
0.000372864
6.51055e-05
-0.000525879
0.000283666
0.000265567
-0.000381775
0.000189307
0.000424397
-0.00022562
0.000114337
0.000500831
-5.38217e-05
7.46951e-05
0.000473731
0.000124186
6.53486e-05
0.00035774
0.000244753
7.18822e-05
0.000200495
0.000232984
9.17293e-05
4.25686e-05
8.42825e-05
0.000128689
-0.000101251
-0.000139878
0.000183131
-0.000229081
-0.000364518
0.000248298
-0.00053511
0.000304716
-0.00039762
-0.000772128
0.000310094
-0.000435519
-0.000787548
0.00033469
-0.000400952
-0.000769057
0.000345184
-0.0002974
-0.000715076
0.000332741
-0.00013549
-0.000628593
0.000295656
6.46484e-05
-0.000516449
0.000239527
0.000273073
-0.000387891
0.000177697
0.000454533
-0.000248643
0.000126866
0.000574711
-9.33817e-05
9.74607e-05
0.00060397
7.80149e-05
8.35682e-05
0.000530982
0.000209307
7.18789e-05
0.000382803
0.000207556
6.53694e-05
0.000202779
5.58521e-05
7.75718e-05
1.9382e-05
-0.000171859
0.000113295
-0.00014969
-0.000390406
0.000164308
-0.000548674
0.000214309
-0.000397853
-0.000684224
0.000177205
-0.000444058
-0.000694536
0.000194352
-0.000409487
-0.000676079
0.0002045
-0.000301742
-0.000627886
0.00020174
-0.000134608
-0.000553201
0.000184116
7.11297e-05
-0.000458173
0.000154119
0.000288142
-0.000350422
0.000119187
0.000486501
-0.000234704
8.9286e-05
0.000638404
-0.000105419
7.16008e-05
0.000714915
4.72481e-05
6.20805e-05
0.000686345
0.000185764
4.7566e-05
0.000552247
0.000209808
2.86798e-05
0.000350476
7.74374e-05
2.46367e-05
0.000124562
-0.000138928
4.48795e-05
-9.13638e-05
-0.000345305
8.15451e-05
-0.000492421
0.000119832
-0.000412643
-0.000542624
4.86049e-05
-0.000463031
-0.000552336
5.05873e-05
-0.000424998
-0.000537463
5.26861e-05
-0.000310226
-0.000497571
5.19155e-05
-0.000135496
-0.000436444
4.60594e-05
7.74178e-05
-0.000359904
3.48078e-05
0.000302679
-0.000274175
2.04655e-05
0.000513342
-0.000183137
8.09562e-06
0.000685722
-8.16044e-05
2.00151e-06
0.00079445
4.58566e-05
1.68845e-06
0.000802405
0.000183485
-3.5327e-06
0.000684415
0.000238311
-1.79654e-05
0.000465387
0.000141841
-2.52456e-05
0.000200415
-4.9827e-05
-1.40329e-05
-5.7358e-05
-0.000240236
8.72334e-06
-0.000378216
3.1167e-05
-0.000440494
-0.000365721
-6.43552e-05
-0.000490671
-0.000379976
-8.2279e-05
-0.000446391
-0.000372174
-9.42699e-05
-0.000322958
-0.000342985
-0.000100075
-0.000139819
-0.000296519
-0.000101794
8.03783e-05
-0.00023845
-0.00010197
0.000312537
-0.000173832
-0.000101818
0.000531574
-0.00010532
-0.000100562
0.000715281
-2.83858e-05
-9.51308e-05
0.000841026
7.44108e-05
-8.35437e-05
0.000871303
0.000205299
-7.2349e-05
0.000766124
0.000289021
-6.97004e-05
0.000534931
0.00023778
-6.76591e-05
0.000239358
8.06559e-05
-5.81776e-05
-5.10927e-05
-9.14237e-05
-4.73355e-05
-0.000223684
-4.22536e-05
-0.000480114
-0.000174461
-0.000150815
-0.000525216
-0.000199385
-0.000189583
-0.000472168
-0.000203126
-0.000219202
-0.000338725
-0.000186611
-0.00023552
-0.000147003
-0.000155502
-0.00024015
7.96301e-05
-0.000115226
-0.000236508
0.000316626
-6.97382e-05
-0.000228135
0.000539871
-2.04246e-05
-0.00021624
0.000727279
3.72192e-05
-0.000198992
0.000856764
0.000121303
-0.000173478
0.000893145
0.000245684
-0.000142944
0.000792317
0.000355024
-0.000116958
0.000552612
0.000352028
-9.79245e-05
0.000237056
0.000234784
-8.46024e-05
-7.39209e-05
8.13486e-05
-8.20617e-05
-4.99508e-05
-9.20656e-05
-0.000529037
8.71229e-06
-0.00020051
-0.000564291
-3.35863e-05
-0.000257148
-0.000498898
-5.23515e-05
-0.000304668
-0.000354338
-5.09226e-05
-0.000335535
-0.000154134
-3.56106e-05
-0.000349112
7.74896e-05
-1.19296e-05
-0.000348625
0.000316294
1.71026e-05
-0.00033808
0.000538721
5.12665e-05
-0.000319204
0.000722143
9.57759e-05
-0.000290595
0.000843518
0.00016953
-0.000249599
0.000870594
0.000293193
-0.000198852
0.000763461
0.000426955
-0.000149322
0.000517299
0.000470502
-0.000111371
0.000193221
0.000393232
-9.08089e-05
-0.000124664
0.000256435
-9.22862e-05
0.000120511
-0.000112266
-0.000583208
0.000160768
-0.000202906
-0.000603422
9.48001e-05
-0.000271616
-0.000523177
5.79771e-05
-0.00033549
-0.000366269
4.40328e-05
-0.000383469
-0.000157833
4.52216e-05
-0.000411847
7.70553e-05
5.53085e-05
-0.000421863
0.000313975
7.17323e-05
-0.000416265
0.000529428
9.53311e-05
-0.000395608
0.000700233
0.000133001
-0.000357794
0.00080226
0.000205421
-0.000301173
0.000806847
0.000336605
-0.00023073
0.000683739
0.000494765
-0.000160359
0.00043276
0.000579128
-0.000105301
0.000111853
0.000536125
-7.57661e-05
-0.000199172
0.000411943
-7.60444e-05
0.000265651
-9.86541e-05
-0.000635585
0.000259067
-0.000148327
-0.000637068
0.000165861
-0.000222247
-0.000540826
0.000111112
-0.000299363
-0.000371749
8.46256e-05
-0.000366566
-0.000155992
7.61717e-05
-0.000416095
8.00459e-05
7.83136e-05
-0.000445287
0.000311088
8.80536e-05
-0.000453373
0.000513049
0.000106995
-0.000437844
0.000662021
0.000144311
-0.000394959
0.000733899
0.000223397
-0.00032475
0.000705584
0.000368589
-0.000236863
0.000560605
0.00054921
-0.00014928
0.000307745
0.000664429
-7.96243e-05
-1.42361e-06
0.000646765
-3.90551e-05
-0.000289142
0.000524302
-3.26676e-05
0.000365562
-4.97884e-05
-0.000673445
0.000284065
-3.29336e-05
-0.00065609
0.000165423
-0.000105851
-0.000546584
9.69229e-05
-0.000191981
-0.000368503
6.43643e-05
-0.000279254
-0.000148171
5.45017e-05
-0.000355964
8.64637e-05
5.75627e-05
-0.000413559
0.000308012
6.90564e-05
-0.000445153
0.000490442
9.0839e-05
-0.000443002
0.000608818
0.000134624
-0.000400867
0.000641014
0.000226211
-0.000321281
0.00057348
0.000386961
-0.000219892
0.000406485
0.000582169
-0.000118849
0.000159696
0.000712084
-3.63864e-05
-0.000120254
0.000703631
1.717e-05
-0.000377659
0.000578242
3.81805e-05
0.000405088
3.17182e-05
-0.000678644
0.000222438
0.000131348
-0.000647677
8.86064e-05
6.35515e-05
-0.000533209
1.51928e-05
-2.59728e-05
-0.000354156
-1.43076e-05
-0.000130485
-0.000134862
-1.54097e-05
-0.000236607
9.5116e-05
-5.82438e-07
-0.000329166
0.000304599
2.30291e-05
-0.000392698
0.000463403
5.67201e-05
-0.000411887
0.000544763
0.000114185
-0.000377133
0.000531181
0.000221537
-0.00029398
0.000423164
0.000392994
-0.000184321
0.000239398
0.000587355
-7.35681e-05
8.57577e-06
0.000710225
2.07528e-05
-0.000232431
0.000693579
8.96918e-05
-0.000445232
0.000556925
0.000129009
0.000372683
0.00013566
-0.000639821
7.54755e-05
0.000306297
-0.000604468
-5.58554e-05
0.000249117
-0.000497037
-0.000123215
0.000164904
-0.000328231
-0.000140558
5.16769e-05
-0.000117933
-0.000123688
-7.8191e-05
0.000103824
-8.71393e-05
-0.000204831
0.000300703
-4.10562e-05
-0.000303282
0.00043584
1.41963e-05
-0.000348842
0.000479324
9.26689e-05
-0.000327576
0.000420235
0.000216815
-0.000247655
0.000276221
0.000389127
-0.000136102
8.41409e-05
0.000562063
-2.0219e-05
-0.000121058
0.000653055
8.3445e-05
-0.000313853
0.000609702
0.000166595
-0.000474892
0.000455423
0.00022381
0.000265076
0.000242613
-0.000568551
-0.000132312
0.000444246
-0.000537119
-0.000244176
0.000403763
-0.000445859
-0.000296242
0.000334467
-0.000296424
-0.000295951
0.000226271
-0.00010197
-0.000256463
8.6781e-05
0.00010915
-0.000192468
-6.29027e-05
0.000296067
-0.000116728
-0.000190304
0.000414082
-3.23007e-05
-0.000261541
0.000428414
7.31455e-05
-0.000257905
0.000333691
0.000214026
-0.000188765
0.000163445
0.000377109
-8.36791e-05
-2.97299e-05
0.000509458
2.99844e-05
-0.000207022
0.000546823
0.000137039
-0.000352831
0.000461201
0.000228889
-0.000464742
0.000285785
0.000299121
9.47177e-05
0.000328216
-0.000494175
-0.000360241
0.000517137
-0.000469867
-0.000444922
0.000498018
-0.000395927
-0.000476959
0.00045096
-0.000267482
-0.000457783
0.00036032
-9.10211e-05
-0.000396209
0.000228066
0.000109344
-0.000305148
7.27567e-05
0.000291546
-0.000198766
-6.9957e-05
0.000405108
-8.32119e-05
-0.000160103
0.000409947
5.01761e-05
-0.000175174
0.000300786
0.000206464
-0.000124203
0.000118793
0.000355
-3.56988e-05
-7.33976e-05
0.000437399
6.58052e-05
-0.000232113
0.000410275
0.00016695
-0.000347331
0.000275794
0.00025923
-0.000427093
7.98224e-05
0.000335482
-0.000108533
0.000373998
-0.000429009
0.000515582
-0.000409197
0.000520208
-0.000347732
0.000500927
-0.000237758
0.000438567
-8.03622e-05
0.000329343
0.000107345
0.000186721
0.000287585
4.49859e-05
0.000409115
-5.3845e-05
0.000427172
-8.50896e-05
0.0003309
-5.51763e-05
0.000157389
1.09984e-05
-3.17942e-05
9.18576e-05
-0.000190304
0.000175559
-0.000303691
0.000255519
-0.000378194
0.000326654
0.000370202
-0.000538642
-0.000690887
0.000739183
-0.000520498
-0.000642128
0.000669248
-0.000436864
-0.000550267
0.000574739
-0.000290887
-0.000422692
0.000436761
-9.71219e-05
-0.000276723
0.000266311
0.000113336
-0.000135428
9.53094e-05
0.000296152
-2.1262e-05
-3.11714e-05
0.000404718
6.41044e-05
-7.54715e-05
0.00041158
0.000132998
-2.75029e-05
0.000320206
0.000194115
8.2743e-05
0.000167714
0.000215825
0.000207247
1.55993e-07
0.000155068
0.000316916
-0.000154173
7.01313e-06
0.000409004
-0.000286653
-0.000187699
0.000488629
-0.00039706
-0.000371693
0.000555327
-0.000486625
0.000584264
-0.000460573
-0.000714029
0.000540148
-0.000468206
-0.000657509
0.000485508
-0.000409345
-0.000558611
0.000415615
-0.000286648
-0.000427237
0.00031857
-0.000111299
-0.000278949
0.000199742
9.1385e-05
-0.000134272
7.98259e-05
0.000282129
-1.33652e-05
-9.33317e-06
0.000420604
7.64561e-05
-3.64898e-05
0.000474743
0.000147335
6.21879e-06
0.000431383
0.000205863
9.69608e-05
0.000308412
0.000217118
0.000193561
0.000147919
0.000132565
0.000274726
-1.37673e-05
-4.40526e-05
0.00034144
-0.000160384
-0.000256046
0.000398094
-0.000287088
-0.000438555
0.000441864
-0.000544556
0.000457565
-0.000414836
-0.000666633
0.000355849
-0.000435884
-0.000605567
0.000303794
-0.000387871
-0.000505659
0.000244219
-0.000275502
-0.000377872
0.000171007
-0.000110055
-0.000236671
8.79309e-05
8.68728e-05
-0.000100439
8.76592e-06
0.000283183
1.23914e-05
-4.43693e-05
0.000444165
9.40878e-05
-5.17483e-05
0.000540597
0.000155663
-7.29825e-06
0.000550125
0.000208397
7.15055e-05
0.000467034
0.000220946
0.000151141
0.000316665
0.000135002
0.000213302
0.000138054
-4.92881e-05
0.000261418
-3.98303e-05
-0.000264825
0.000299958
-0.000198928
-0.000440344
0.000325195
-0.000535975
0.000328486
-0.000387324
-0.00056221
0.000178884
-0.000416582
-0.000500164
0.000118207
-0.000373093
-0.000403559
5.89117e-05
-0.000264278
-0.000284303
-6.44312e-07
-0.000102788
-0.000156599
-5.74469e-05
9.15643e-05
-3.70275e-05
-0.000103644
0.000291538
5.84823e-05
-0.000126878
0.000468097
0.000123238
-0.000116424
0.000596308
0.000167915
-6.8862e-05
0.000652347
0.000210021
4.41727e-06
0.000611072
0.000228616
8.11718e-05
0.000474637
0.000160211
0.000139906
0.000278508
-1.04224e-05
0.0001819
6.5661e-05
-0.000216051
0.000208953
-0.000129571
-0.000380409
0.000216843
-0.000466824
0.000202332
-0.000376181
-0.000416857
2.02233e-05
-0.000410226
-0.000358027
-5.75044e-05
-0.000367436
-0.000269119
-0.000124544
-0.000258212
-0.000162862
-0.00017875
-9.67227e-05
-5.32866e-05
-0.000218741
9.78284e-05
4.46827e-05
-0.000241454
0.00030131
0.000117922
-0.000242455
0.000488496
0.000162206
-0.000218059
0.000637625
0.000187575
-0.000166787
0.000725879
0.000215739
-9.22839e-05
0.000720036
0.000241085
-1.01581e-05
0.000599463
0.000201899
6.0919e-05
0.000389967
6.30295e-05
0.000110799
0.000145657
-0.00012012
0.000134345
-8.25348e-05
-0.000269998
0.000126504
-0.000349573
9.05912e-05
-0.000381992
-0.000248952
-0.000107714
-0.000417261
-0.000198203
-0.000206834
-0.000372016
-0.000121456
-0.000287178
-0.000259425
-3.22149e-05
-0.000343313
-9.52892e-05
5.58636e-05
-0.00037508
0.000101733
0.000129192
-0.000383501
0.000309053
0.000178623
-0.00036984
0.000503449
0.00020201
-0.000334762
0.000664165
0.000209701
-0.000277972
0.0007698
0.000225469
-0.000198909
0.00078559
0.000257097
-0.000104152
0.000677832
0.000252813
-1.28556e-05
0.000459575
0.000158454
5.51733e-05
0.000191163
8.14107e-06
8.1974e-05
-6.25883e-05
-0.000125358
6.17754e-05
-0.00020142
4.45108e-06
-0.000404107
-7.78219e-05
-0.000194815
-0.000435967
-4.07074e-05
-0.000315218
-0.000384583
1.93807e-05
-0.000411423
-0.000265696
8.82357e-05
-0.000474858
-9.64915e-05
0.000152161
-0.000505652
0.000103923
0.00019994
-0.00050767
0.000314339
0.000225392
-0.000485321
0.000512312
0.000229412
-0.000441614
0.000676597
0.000223296
-0.000376873
0.000785643
0.000231857
-0.000288912
0.000806942
0.000272353
-0.000179499
0.000703522
0.000304857
-6.5582e-05
0.000479826
0.000261952
2.22721e-05
0.000196755
0.00015054
5.60698e-05
-7.25758e-05
3.42699e-05
2.76411e-05
-4.26671e-05
-4.64178e-05
-0.000440183
7.62344e-05
-0.000231671
-0.000462602
9.42509e-05
-0.000369687
-0.000400076
0.000134327
-0.000482141
-0.000271284
0.000180893
-0.000556984
-9.52501e-05
0.000220285
-0.00059327
0.000108605
0.000243139
-0.000595678
0.000319572
0.000246352
-0.000570007
0.000515689
0.000233887
-0.000519795
0.000674864
0.000218841
-0.000445315
0.00077454
0.000227189
-0.000344607
0.000785636
0.000281654
-0.000219249
0.000676179
0.000351287
-8.62958e-05
0.000448544
0.000360135
1.80819e-05
0.000160427
0.000288705
5.91435e-05
-0.000112974
0.000187954
2.74307e-05
0.000105084
-5.57039e-05
-0.000486986
0.00019301
-0.000208957
-0.000493277
0.000187811
-0.000358885
-0.000414267
0.000206703
-0.000486876
-0.000271812
0.00023235
-0.000577382
-8.72144e-05
0.000250248
-0.000626409
0.000119192
0.000252056
-0.000637187
0.000326809
0.000237201
-0.00061473
0.000513993
0.00021256
-0.000561465
0.000658226
0.000193785
-0.000476971
0.000736497
0.00020864
-0.000360895
0.000724164
0.000281997
-0.00021874
0.000599347
0.000386646
-7.09008e-05
0.000368373
0.000441035
4.47721e-05
8.46173e-05
0.000404439
9.22565e-05
-0.00018128
0.000314789
6.30179e-05
0.000221425
-2.00134e-05
-0.000540468
0.00025438
-0.000118597
-0.000525386
0.000224845
-0.000274363
-0.000426102
0.000224979
-0.000416923
-0.00026727
0.000235307
-0.000528354
-7.29006e-05
0.000239237
-0.000599453
0.000134957
0.000227879
-0.000628966
0.000335182
0.000202037
-0.000618434
0.000506186
0.000171097
-0.000567385
0.000625591
0.000153749
-0.000474328
0.000671578
0.000179949
-0.000342046
0.000626019
0.000273881
-0.000183189
0.000480106
0.000407104
-2.38239e-05
0.000247628
0.000494458
9.94303e-05
-2.32532e-05
0.000482039
0.000154226
-0.000270629
0.000395598
0.0001339
0.000289033
6.13418e-05
-0.00059267
0.000247348
4.13038e-05
-0.000555204
0.000197199
-0.000115672
-0.000436125
0.000185182
-0.000271262
-0.000261163
0.000189701
-0.000408609
-5.69506e-05
0.000191087
-0.000512027
0.000151648
0.000178019
-0.000572298
0.000341676
0.000150933
-0.000584076
0.000490773
0.000120974
-0.000541976
0.000577124
0.000109962
-0.000443432
0.000582432
0.000149603
-0.000296242
0.000498306
0.000260549
-0.000122434
0.00033057
0.000409693
4.6297e-05
0.000101522
0.000511421
0.0001757
-0.000147047
0.000507274
0.000240504
-0.000367415
0.000417517
0.000236629
0.000297762
0.000181038
-0.000628615
0.000166355
0.000255701
-0.000574079
0.000105685
0.000100529
-0.000442204
9.18234e-05
-6.44897e-05
-0.000256359
0.000102171
-0.0002288
-4.45331e-05
0.000114203
-0.000371549
0.000164459
0.000112727
-0.000472866
0.000343636
9.57795e-05
-0.000516722
0.000468206
7.50387e-05
-0.000490522
0.00051697
7.48969e-05
-0.000390832
0.000477644
0.000127188
-0.000232238
0.000354789
0.000245983
-4.69001e-05
0.000169648
0.000392641
0.000128625
-4.84337e-05
0.000486008
0.000264247
-0.000266254
0.000472688
0.000342098
-0.000451617
0.000372383
0.000359505
0.000243842
0.000323219
-0.000631958
1.64457e-05
0.000480688
-0.000571523
-3.87738e-05
0.000333142
-0.00043952
-4.24892e-05
0.000167213
-0.000252998
-1.52252e-05
-1.74484e-05
-3.877e-05
1.91353e-05
-0.000197352
0.000170243
4.17551e-05
-0.000342871
0.000340579
4.62721e-05
-0.00042411
0.000442654
4.30789e-05
-0.000418957
0.000455294
5.77613e-05
-0.00032308
0.000373897
0.00011969
-0.00015876
0.000217973
0.000233683
3.21214e-05
2.35165e-05
0.000356467
0.000210412
-0.000175822
0.000417973
0.000350819
-0.000356301
0.000378436
0.000441326
-0.000502153
0.000262002
0.000480044
0.000130604
0.000461175
-0.000599758
-0.000179855
0.000655357
-0.000545468
-0.000214526
0.000525226
-0.000426428
-0.000198555
0.000371492
-0.000250902
-0.000147411
0.000182931
-4.09203e-05
-8.32459e-05
-2.08197e-05
0.000167747
-2.7849e-05
-0.000201966
0.000334105
7.21233e-06
-0.000317602
0.000421739
2.84931e-05
-0.00033459
0.000407995
6.08208e-05
-0.00024722
0.000295228
0.000128506
-8.48147e-05
0.000116521
0.000225228
0.000103484
-7.96629e-05
0.000305423
0.000277211
-0.000256783
0.000315488
0.000416644
-0.000400418
0.000236829
0.000514131
-0.000509012
0.000101423
0.000568294
-2.82808e-05
0.000563037
-0.00054725
-0.000385384
0.000737448
-0.000505835
-0.000392287
0.000634363
-0.000406648
-0.000352029
0.000505248
-0.000249687
-0.000274971
0.000330919
-4.98674e-05
-0.000179729
0.00012473
0.000158055
-8.87611e-05
-7.4254e-05
0.000327199
-1.95499e-05
-0.000212338
0.000413874
2.87041e-05
-0.000246989
0.000391823
7.86257e-05
-0.000170928
0.000266024
0.000148391
-1.82896e-05
7.7625e-05
0.000220296
0.000157632
-0.000116408
0.000247863
0.000317398
-0.000277142
0.00019699
0.000446182
-0.000395394
7.38213e-05
0.000540488
-0.000478575
-8.03899e-05
0.000600476
-0.000206189
0.0006058
-0.000481501
0.000716427
-0.000453293
0.000647446
-0.000375938
0.000552055
-0.000243223
0.00040644
-6.0709e-05
0.000216852
0.000143569
2.03067e-05
0.000321072
-0.000123669
0.000420979
-0.000166528
0.000411819
-0.000100026
0.000295503
3.95218e-05
0.000112208
0.000196901
-7.98871e-05
0.000333117
-0.000238519
0.000437656
-0.000351655
0.000514196
-0.00042695
0.000567517
0.000580594
-0.000513678
-0.000557346
0.000824855
-0.000464315
-0.000435923
0.000666699
-0.000359344
-0.00027525
0.000488837
-0.000207489
-9.79934e-05
0.000278996
-2.72344e-05
6.83944e-05
5.89616e-05
0.000146953
0.000193381
-0.000125711
0.000276154
0.000255923
-0.000225629
0.000331861
0.000261183
-0.00020947
0.000306762
0.000234868
-8.18063e-05
0.000212206
0.000194961
0.000114014
7.32071e-05
0.00012994
0.00031704
-7.92724e-05
1.54335e-05
0.000485564
-0.00022077
-0.000145392
0.0006105
-0.000339101
-0.000313713
0.00069571
-0.000429985
-0.000439689
0.000742639
-0.000479011
0.00073356
-0.000434664
-0.00055696
0.000582946
-0.000415726
-0.000428736
0.000459384
-0.000339446
-0.000258976
0.00032306
-0.000212397
-7.17428e-05
0.00016527
-4.99511e-05
0.000106
-3.08977e-07
0.000118314
0.000244058
-0.000139116
0.000257021
0.000319668
-0.000211786
0.00033874
0.000332407
-0.000189433
0.000351077
0.000303533
-7.4783e-05
0.000295978
0.000251286
9.57347e-05
0.000186518
0.000163776
0.000269185
4.90686e-05
1.90774e-05
0.000408531
-9.05265e-05
-0.000170276
0.000505919
-0.000215929
-0.000353877
0.00056366
-0.000319006
-0.000478635
0.000583887
-0.000510529
0.000561557
-0.000369982
-0.000499277
0.000355583
-0.000369093
-0.000368716
0.000242886
-0.00031191
-0.000197871
0.000125931
-0.000204056
-1.0864e-05
2.27375e-06
-5.81493e-05
0.000166015
-0.00011799
0.000102347
0.000303916
-0.000211589
0.000247863
0.000379552
-0.000249769
0.000352958
0.000389675
-0.00021411
0.000403334
0.000353852
-0.000107995
0.000391862
0.00029286
4.14036e-05
0.000316979
0.000197177
0.000192624
0.000192772
4.29575e-05
0.000313628
4.56994e-05
-0.000156084
0.000394299
-9.92135e-05
-0.000342898
0.000433892
-0.000223531
-0.000461842
0.00043272
-0.000486797
0.000393787
-0.000321912
-0.000398274
0.000147721
-0.000333428
-0.0002691