/*--------------------------------*- C++ -*----------------------------------*\
| =========                 |                                                 |
| \\      /  F ield         | OpenFOAM: The Open Source CFD Toolbox           |
|  \\    /   O peration     | Version:  3.0.0                                 |
|   \\  /    A nd           | Web:      www.OpenFOAM.org                      |
|    \\/     M anipulation  |                                                 |
\*---------------------------------------------------------------------------*/
FoamFile
{
    version     2.0;
    format      ascii;
    class       volVectorField;
    location    "6.5";
    object      U;
}
// * * * * * * * * * * * * * * * * * * * * * * * * * * * * * * * * * * * * * //

dimensions      [0 1 -1 0 0 0 0];

internalField   nonuniform List<vector> 
4096
(
(-0.0949325 -0.162192 0.0585429)
(-0.0986728 -0.192948 0.0917917)
(-0.0958792 -0.212701 0.118393)
(-0.0779202 -0.21807 0.133615)
(-0.0460632 -0.207553 0.133879)
(-0.00406805 -0.180767 0.117392)
(0.041233 -0.138718 0.0855686)
(0.0798766 -0.0836328 0.0436432)
(0.10038 -0.01923 -0.000263775)
(0.0946823 0.0451083 -0.0366071)
(0.0666729 0.0925928 -0.0580892)
(0.0306219 0.109157 -0.0636416)
(-0.00250235 0.0907133 -0.0568946)
(-0.0305365 0.0435895 -0.0410627)
(-0.055671 -0.0183098 -0.0177827)
(-0.0704878 -0.0779341 0.00969048)
(-0.0784741 -0.182389 0.0521461)
(-0.0891275 -0.205011 0.0855885)
(-0.0907964 -0.218323 0.112351)
(-0.0769929 -0.220822 0.129192)
(-0.0492695 -0.211295 0.133547)
(-0.0107817 -0.1888 0.124)
(0.0332291 -0.152747 0.101178)
(0.0754159 -0.102769 0.0679378)
(0.106996 -0.039483 0.0286618)
(0.118435 0.0290544 -0.0108207)
(0.104616 0.0805835 -0.04206)
(0.0732078 0.0930246 -0.0585575)
(0.0374758 0.0637655 -0.0596612)
(0.00365827 0.0075805 -0.0473316)
(-0.027988 -0.0556352 -0.0241466)
(-0.0495754 -0.110061 0.00526803)
(-0.0759837 -0.199588 0.040948)
(-0.092271 -0.219252 0.0768274)
(-0.0965548 -0.230765 0.106692)
(-0.0831506 -0.232635 0.127384)
(-0.0545493 -0.223595 0.136441)
(-0.0145118 -0.202708 0.132459)
(0.0317647 -0.16936 0.11581)
(0.0778732 -0.123066 0.0886325)
(0.117065 -0.0634941 0.053799)
(0.141813 0.00448209 0.0143724)
(0.143437 0.0598638 -0.0236621)
(0.120774 0.0745876 -0.0511116)
(0.0836761 0.0430138 -0.062192)
(0.0408974 -0.0160972 -0.0560601)
(-0.00316327 -0.0792385 -0.0350955)
(-0.0373644 -0.131548 -0.00500725)
(-0.080259 -0.194874 0.0260092)
(-0.100704 -0.212164 0.0631296)
(-0.106303 -0.222839 0.0951356)
(-0.0917877 -0.225208 0.118939)
(-0.0607707 -0.21807 0.13211)
(-0.0177705 -0.200578 0.133125)
(0.0317898 -0.172141 0.122012)
(0.0818618 -0.132271 0.100372)
(0.126684 -0.0800574 0.0704398)
(0.160779 -0.0168277 0.0337548)
(0.175795 0.041751 -0.00693706)
(0.163443 0.0640134 -0.0431586)
(0.126444 0.0366342 -0.0643625)
(0.074101 -0.0212371 -0.0652851)
(0.016082 -0.0825175 -0.0475631)
(-0.0313344 -0.132076 -0.0180015)
(-0.0892754 -0.172284 0.00866116)
(-0.112098 -0.188667 0.0451112)
(-0.117887 -0.19973 0.0773429)
(-0.101394 -0.203446 0.102575)
(-0.0673693 -0.198749 0.1185)
(-0.0210468 -0.184961 0.123474)
(0.0318986 -0.161609 0.117132)
(0.0855657 -0.128347 0.100536)
(0.134555 -0.0842357 0.0755466)
(0.174385 -0.0282749 0.0431848)
(0.198411 0.0303559 0.00371472)
(0.195226 0.0616801 -0.0373472)
(0.159534 0.0436512 -0.0665794)
(0.0986897 -0.00881511 -0.0738797)
(0.0277032 -0.0666893 -0.0596243)
(-0.0311251 -0.113843 -0.0317531)
(-0.102133 -0.135434 -0.00949013)
(-0.125313 -0.152408 0.0244145)
(-0.130211 -0.164883 0.0547392)
(-0.111107 -0.170497 0.0793174)
(-0.0738406 -0.168397 0.0961417)
(-0.0242597 -0.158117 0.103543)
(0.0317381 -0.139343 0.100838)
(0.0883152 -0.11193 0.0885838)
(0.140152 -0.0751839 0.0683173)
(0.182864 -0.0270502 0.0409834)
(0.211401 0.0288161 0.00545927)
(0.21421 0.0678236 -0.035832)
(0.179743 0.0619164 -0.0693019)
(0.112064 0.0182576 -0.081057)
(0.0304941 -0.0350712 -0.0699352)
(-0.0365979 -0.0805161 -0.0445894)
(-0.117937 -0.0885889 -0.0264887)
(-0.139411 -0.107688 0.00348828)
(-0.142454 -0.122423 0.030011)
(-0.120296 -0.130403 0.0518431)
(-0.0797894 -0.130956 0.0674939)
(-0.027245 -0.123853 0.0754446)
(0.0312423 -0.108967 0.0748677)
(0.0898507 -0.0863418 0.0660033)
(0.143259 -0.0555785 0.050103)
(0.186778 -0.0142804 0.028085)
(0.215944 0.0377701 -0.00175838)
(0.220507 0.0822268 -0.0394079)
(0.185948 0.0889314 -0.0728171)
(0.11314 0.056038 -0.0863463)
(0.0242185 0.00784746 -0.0775237)
(-0.0471795 -0.0368046 -0.0550339)
(-0.135524 -0.0371724 -0.0400946)
(-0.153271 -0.0601441 -0.0145957)
(-0.153703 -0.0780266 0.00685271)
(-0.128305 -0.0887986 0.0242785)
(-0.08472 -0.0920375 0.0368264)
(-0.0296785 -0.0877446 0.0433253)
(0.0305847 -0.0760179 0.0430673)
(0.0902011 -0.0570398 0.0362571)
(0.143779 -0.0306331 0.0240434)
(0.186236 0.00571064 0.00726411)
(0.212885 0.0545477 -0.0160442)
(0.215021 0.103139 -0.047414)
(0.178297 0.121601 -0.0769766)
(0.102119 0.0998375 -0.0894487)
(0.0096426 0.0566839 -0.0816666)
(-0.0618568 0.0116109 -0.0619259)
(-0.153208 0.012554 -0.0476981)
(-0.16546 -0.0161443 -0.0263104)
(-0.162676 -0.0380892 -0.0102465)
(-0.134077 -0.0519994 0.00180204)
(-0.0878523 -0.057872 0.00971195)
(-0.0310065 -0.0559507 0.0128253)
(0.0301289 -0.0465498 0.0108306)
(0.0895781 -0.0300288 0.00426029)
(0.141743 -0.00627775 -0.0055348)
(0.181076 0.0274358 -0.0177557)
(0.202495 0.0750729 -0.0345482)
(0.198706 0.127624 -0.0582269)
(0.157901 0.156333 -0.08123)
(0.0803482 0.144606 -0.0901781)
(-0.0116335 0.105569 -0.0819444)
(-0.0791684 0.0586702 -0.0641467)
(-0.168103 0.0536996 -0.0466874)
(-0.173673 0.017692 -0.0283086)
(-0.167469 -0.00890143 -0.0169901)
(-0.136196 -0.0259729 -0.0104126)
(-0.0882124 -0.0340389 -0.00807009)
(-0.0305467 -0.0336913 -0.0100167)
(0.0303524 -0.0255196 -0.0159103)
(0.0882538 -0.0101178 -0.0244933)
(0.137183 0.0127193 -0.033815)
(0.171087 0.0462362 -0.0429288)
(0.184683 0.0952344 -0.0540743)
(0.172357 0.152167 -0.0698064)
(0.126713 0.189145 -0.0847192)
(0.0503836 0.185098 -0.0882463)
(-0.0368386 0.148275 -0.0779091)
(-0.0968082 0.0983448 -0.0609237)
(-0.175532 0.0791266 -0.0356466)
(-0.174481 0.035251 -0.0190383)
(-0.165328 0.00419228 -0.0110145)
(-0.132762 -0.0153016 -0.00906956)
(-0.0846133 -0.0243932 -0.0123737)
(-0.0276234 -0.0241646 -0.0204683)
(0.0316409 -0.0156509 -0.032183)
(0.0864516 0.000287322 -0.0451566)
(0.130138 0.0240819 -0.0564097)
(0.156124 0.0596818 -0.0645287)
(0.159481 0.11198 -0.0715631)
(0.13745 0.173168 -0.0800098)
(0.0880397 0.215537 -0.0862862)
(0.0162515 0.215724 -0.0830394)
(-0.0617303 0.178719 -0.0695482)
(-0.111119 0.124999 -0.0520841)
(-0.170422 0.0826499 -0.0164233)
(-0.164548 0.0324828 -0.000410325)
(-0.153758 -0.0016446 0.00619995)
(-0.122188 -0.0219634 0.00528434)
(-0.0762446 -0.0302541 -0.00259065)
(-0.021928 -0.0281353 -0.0167933)
(0.034135 -0.017192 -0.03538)
(0.0844137 0.00137379 -0.0546612)
(0.121039 0.0282281 -0.0702463)
(0.136813 0.067727 -0.0797416)
(0.128232 0.123843 -0.084558)
(0.0968611 0.187164 -0.0869353)
(0.0464135 0.230397 -0.0850187)
(-0.0166595 0.23047 -0.0747948)
(-0.0809943 0.191179 -0.0572481)
(-0.117955 0.133662 -0.0385914)
(-0.152315 0.0615039 0.00539075)
(-0.1442 0.00917412 0.0218908)
(-0.133396 -0.0254676 0.0291432)
(-0.105233 -0.0445759 0.0277624)
(-0.063894 -0.0501516 0.0175841)
(-0.0141761 -0.0441344 -0.00110888)
(0.0374135 -0.0285615 -0.0260234)
(0.0823543 -0.0049925 -0.0523181)
(0.111099 0.0272184 -0.0739961)
(0.115664 0.0718833 -0.0870527)
(0.0949227 0.130518 -0.091591)
(0.0558688 0.191437 -0.0894957)
(0.00745614 0.229214 -0.0807994)
(-0.0435765 0.224218 -0.0646275)
(-0.0913274 0.180908 -0.0433691)
(-0.115429 0.120617 -0.0231907)
(-0.127888 0.0176203 0.0242595)
(-0.119556 -0.0317337 0.0422511)
(-0.109871 -0.0638911 0.0516733)
(-0.0862472 -0.0798892 0.0519782)
(-0.0506318 -0.0813377 0.0421466)
(-0.00642837 -0.0700216 0.0217667)
(0.0403332 -0.0480527 -0.00716383)
(0.0804451 -0.0171986 -0.0394114)
(0.102671 0.0226871 -0.0677756)
(0.0979364 0.0732348 -0.0862697)
(0.0672714 0.131703 -0.0928156)
(0.0228661 0.184398 -0.0886472)
(-0.0220132 0.210059 -0.0756074)
(-0.0609325 0.195261 -0.0553867)
(-0.0928334 0.146608 -0.0313058)
(-0.105626 0.0850078 -0.00927463)
(-0.106316 -0.0420048 0.0375006)
(-0.0990093 -0.0850256 0.0578817)
(-0.090642 -0.112719 0.0705202)
(-0.0708089 -0.124609 0.0739883)
(-0.0400145 -0.121376 0.0666089)
(-0.000594904 -0.104199 0.0473231)
(0.0421574 -0.0749137 0.0174839)
(0.0791888 -0.0354065 -0.0181586)
(0.0986292 0.0134971 -0.0524219)
(0.0903474 0.0699636 -0.0779717)
(0.0554208 0.125942 -0.0899628)
(0.00855274 0.166223 -0.0875584)
(-0.0339677 0.175262 -0.0731256)
(-0.0653177 0.147594 -0.050394)
(-0.0871112 0.0931646 -0.0239142)
(-0.093075 0.0316246 0.000452892)
(-0.0920412 -0.0892739 0.04305)
(-0.085569 -0.120068 0.0657531)
(-0.0775616 -0.139798 0.0816653)
(-0.059661 -0.147246 0.0889417)
(-0.0320127 -0.142231 0.0856698)
(0.00367564 -0.124793 0.0703883)
(0.0431828 -0.0953489 0.0435414)
(0.0787348 -0.0543154 0.00847421)
(0.0993754 -0.00126394 -0.0291705)
(0.0946774 0.0610552 -0.0620495)
(0.0635406 0.11797 -0.0824692)
(0.0187303 0.14717 -0.0854801)
(-0.0232469 0.136712 -0.0723892)
(-0.0544454 0.0933124 -0.0488943)
(-0.0756504 0.0344513 -0.0212182)
(-0.0819271 -0.0217785 0.00471408)
(-0.125223 -0.186914 0.120572)
(-0.126695 -0.199258 0.138651)
(-0.121488 -0.199765 0.149497)
(-0.0974387 -0.185988 0.147236)
(-0.0569358 -0.159423 0.130123)
(-0.00501663 -0.123711 0.100194)
(0.0494246 -0.0835872 0.0637197)
(0.0938551 -0.0419646 0.02959)
(0.115376 0.00149923 0.0051006)
(0.106354 0.0438424 -0.00720653)
(0.0727439 0.0733185 -0.00862968)
(0.0305318 0.0774191 -0.00196763)
(-0.00888078 0.0520094 0.0103666)
(-0.0432289 0.00335776 0.0275244)
(-0.0745102 -0.0548375 0.0488713)
(-0.0914543 -0.104986 0.0696918)
(-0.103618 -0.196574 0.0963734)
(-0.112775 -0.203817 0.11358)
(-0.112344 -0.200885 0.124862)
(-0.0933098 -0.186902 0.126572)
(-0.0578961 -0.162684 0.117406)
(-0.0100506 -0.130389 0.0983816)
(0.0432227 -0.0930317 0.0732496)
(0.0918602 -0.0523442 0.047535)
(0.124731 -0.00739795 0.0259469)
(0.131919 0.0382009 0.00991464)
(0.110901 0.0681491 -4.77148e-05)
(0.0725448 0.0652864 -0.00245284)
(0.0308319 0.0288911 0.00332574)
(-0.00845641 -0.0270542 0.0167088)
(-0.0450509 -0.0845333 0.0357875)
(-0.0681629 -0.128626 0.0557674)
(-0.0960248 -0.204458 0.070775)
(-0.109934 -0.209324 0.0881196)
(-0.111547 -0.20482 0.100944)
(-0.0933537 -0.190482 0.106374)
(-0.0583049 -0.16708 0.10317)
(-0.0105998 -0.136476 0.0917841)
(0.043445 -0.101234 0.0746642)
(0.0953991 -0.0628943 0.0555723)
(0.136453 -0.0202267 0.0375693)
(0.157851 0.0254103 0.0209044)
(0.151742 0.0576719 0.00558827)
(0.120503 0.0546687 -0.00479291)
(0.0763685 0.0147369 -0.0061831)
(0.0283217 -0.044036 0.00229948)
(-0.0193532 -0.101067 0.0183982)
(-0.0538621 -0.143068 0.0373366)
(-0.094558 -0.190059 0.0426578)
(-0.111688 -0.193079 0.0584096)
(-0.114067 -0.18811 0.0712299)
(-0.0951649 -0.174856 0.0788616)
(-0.0588399 -0.154101 0.080079)
(-0.00980982 -0.127477 0.0747942)
(0.0458444 -0.0971137 0.064328)
(0.100666 -0.064339 0.051075)
(0.147363 -0.0276711 0.0372091)
(0.179256 0.0144038 0.0226245)
(0.187152 0.0494719 0.00606364)
(0.16486 0.0517884 -0.00915194)
(0.119135 0.0142711 -0.0162568)
(0.06132 -0.0434172 -0.0122976)
(0.00110376 -0.0980867 0.00042779)
(-0.0450834 -0.137101 0.0170584)
(-0.0975514 -0.159466 0.0140705)
(-0.116476 -0.161702 0.0262937)
(-0.118735 -0.157181 0.0371064)
(-0.0983402 -0.145742 0.0449823)
(-0.0600735 -0.128279 0.0487747)
(-0.00918085 -0.106318 0.0479207)
(0.0483317 -0.081615 0.0427465)
(0.105594 -0.0552731 0.0344994)
(0.156058 -0.0258841 0.0247596)
(0.194403 0.0100727 0.0137116)
(0.212607 0.045943 -0.000547535)
(0.199088 0.0560812 -0.0162607)
(0.153044 0.0260275 -0.0260686)
(0.0864344 -0.0269125 -0.0252522)
(0.0146001 -0.0778949 -0.0158827)
(-0.0415576 -0.11421 -0.0026728)
(-0.104728 -0.117576 -0.0123185)
(-0.123828 -0.120253 -0.00495136)
(-0.125156 -0.117068 0.00217554)
(-0.102732 -0.108028 0.00840456)
(-0.0622191 -0.0941578 0.0128034)
(-0.00933357 -0.0769273 0.0144769)
(0.0499233 -0.0577785 0.0130297)
(0.109066 -0.037557 0.00886255)
(0.161876 -0.0150523 0.0030481)
(0.2034 0.0141238 -0.00384909)
(0.227182 0.0486199 -0.0134628)
(0.220026 0.0665766 -0.025835)
(0.174375 0.047309 -0.0348822)
(0.100872 0.0021684 -0.0353682)
(0.0196982 -0.044329 -0.0289332)
(-0.0435647 -0.078673 -0.0196585)
(-0.115857 -0.0693155 -0.0338072)
(-0.133329 -0.0738842 -0.0316914)
(-0.132905 -0.0730525 -0.0292576)
(-0.10798 -0.0669906 -0.026199)
(-0.0650321 -0.0569482 -0.0230218)
(-0.0102281 -0.044352 -0.0206914)
(0.0504222 -0.0303541 -0.0200356)
(0.110693 -0.0154862 -0.0211206)
(0.164515 0.00135419 -0.0232411)
(0.20671 0.0247641 -0.0256915)
(0.231622 0.0571404 -0.0296592)
(0.226898 0.0819508 -0.0362841)
(0.181254 0.0749531 -0.0418436)
(0.103122 0.0396197 -0.0419162)
(0.0157402 -0.00203192 -0.0376134)
(-0.051082 -0.0354597 -0.0320067)
(-0.13043 -0.0201755 -0.0477127)
(-0.14434 -0.0283424 -0.0502665)
(-0.141241 -0.0309378 -0.0527878)
(-0.11324 -0.0284843 -0.0538522)
(-0.0677131 -0.0224916 -0.0534213)
(-0.0111792 -0.0143499 -0.0522411)
(0.0503132 -0.00494308 -0.0511642)
(0.110695 0.00551633 -0.0503512)
(0.163972 0.0182149 -0.0492243)
(0.204544 0.0378344 -0.0471496)
(0.226797 0.069037 -0.0452382)
(0.220216 0.100091 -0.0453256)
(0.173346 0.105461 -0.0459955)
(0.0929032 0.0806596 -0.0443495)
(0.00289285 0.0436808 -0.0411428)
(-0.0636765 0.00981163 -0.0382353)
(-0.147443 0.0240307 -0.0512865)
(-0.155783 0.0105024 -0.0570904)
(-0.149168 0.00356211 -0.0640655)
(-0.117625 0.00197403 -0.0697842)
(-0.0693808 0.00394918 -0.0734536)
(-0.0113482 0.0080711 -0.0752624)
(0.0503174 0.0136506 -0.0756474)
(0.109567 0.0207697 -0.0744731)
(0.160416 0.0309174 -0.0709937)
(0.19691 0.0490789 -0.0647521)
(0.213256 0.0811536 -0.0572188)
(0.201101 0.118467 -0.0510935)
(0.151637 0.135251 -0.0466311)
(0.0712059 0.120298 -0.0424252)
(-0.0177312 0.0871992 -0.0390268)
(-0.0803719 0.0513915 -0.0372668)
(-0.164909 0.0574124 -0.0419709)
(-0.166072 0.0370837 -0.0492388)
(-0.155462 0.0253134 -0.0596166)
(-0.120286 0.0199116 -0.0701437)
(-0.0694494 0.0186002 -0.0791514)
(-0.0102705 0.0197436 -0.0859105)
(0.0508332 0.0226885 -0.089972)
(0.107643 0.0277645 -0.0904069)
(0.154042 0.0369808 -0.0859986)
(0.183839 0.0559388 -0.0765136)
(0.191409 0.0910167 -0.064246)
(0.171082 0.134606 -0.0527445)
(0.11839 0.160886 -0.0434506)
(0.0404494 0.153828 -0.0360059)
(-0.0437516 0.122699 -0.0309235)
(-0.0993001 0.083818 -0.0285601)
(-0.178794 0.0744393 -0.018531)
(-0.172507 0.0468678 -0.0256324)
(-0.158311 0.030702 -0.0380423)
(-0.120338 0.022652 -0.0530883)
(-0.0676689 0.0197201 -0.0683948)
(-0.00796635 0.0197622 -0.0820308)
(0.0518674 0.0219026 -0.0921303)
(0.105082 0.0266271 -0.096427)
(0.145131 0.0366039 -0.0929116)
(0.165705 0.0581929 -0.0816566)
(0.162195 0.0974769 -0.0659617)
(0.132648 0.146313 -0.0501664)
(0.077663 0.178848 -0.0364348)
(0.004723 0.176458 -0.0250621)
(-0.0712061 0.145156 -0.0168322)
(-0.116849 0.102586 -0.0124204)
(-0.183156 0.070559 0.0162313)
(-0.171317 0.0372405 0.0105752)
(-0.155183 0.0183512 -0.00214158)
(-0.116634 0.00974554 -0.0205614)
(-0.0639389 0.00766167 -0.0421444)
(-0.00478958 0.00922073 -0.063813)
(0.053155 0.0130165 -0.0818549)
(0.102055 0.0195215 -0.0921203)
(0.134414 0.0320581 -0.0914755)
(0.143898 0.0574625 -0.0802325)
(0.128059 0.100559 -0.0626574)
(0.0897727 0.151668 -0.0437036)
(0.0346065 0.185557 -0.0259539)
(-0.0300137 0.183501 -0.0102499)
(-0.0941078 0.150354 0.00221559)
(-0.128482 0.104298 0.00933564)
(-0.17401 0.0435989 0.053858)
(-0.160291 0.00842744 0.0509212)
(-0.144682 -0.0104424 0.0400135)
(-0.10867 -0.0170694 0.0205971)
(-0.0585378 -0.0156237 -0.00543365)
(-0.00140485 -0.00968373 -0.0344262)
(0.0542508 -0.00143473 -0.0608541)
(0.0989264 0.00932862 -0.0783397)
(0.123517 0.0263196 -0.0822795)
(0.121611 0.0560544 -0.0729337)
(0.0938608 0.100914 -0.0551833)
(0.0486312 0.149381 -0.0343484)
(-0.00420111 0.178347 -0.0134033)
(-0.0578595 0.171829 0.00622118)
(-0.107602 0.134986 0.0228467)
(-0.130584 0.0866545 0.0326833)
(-0.154529 -0.00461892 0.0841422)
(-0.142288 -0.0366931 0.0851063)
(-0.129168 -0.0525496 0.0780633)
(-0.0980916 -0.0549733 0.0607145)
(-0.0527277 -0.0478406 0.0336991)
(0.00109936 -0.035073 0.000382354)
(0.0545084 -0.0196947 -0.0326156)
(0.0962363 -0.00208785 -0.0569741)
(0.115122 0.0212478 -0.0665348)
(0.104239 0.0552807 -0.0610334)
(0.0671729 0.098807 -0.0452474)
(0.0174049 0.138917 -0.0244574)
(-0.0317734 0.15653 -0.00194387)
(-0.0744322 0.140857 0.0202346)
(-0.110222 0.0987833 0.0399792)
(-0.123438 0.0494634 0.0523433)
(-0.133355 -0.0666914 0.101603)
(-0.124082 -0.0924223 0.107269)
(-0.113865 -0.103334 0.105463)
(-0.0879884 -0.100388 0.0926937)
(-0.0479543 -0.0865442 0.068327)
(0.00207728 -0.0656155 0.0348124)
(0.0536976 -0.0413398 -0.00120725)
(0.0946623 -0.0150281 -0.0304734)
(0.112116 0.0158942 -0.0457713)
(0.097962 0.0538411 -0.0460033)
(0.0566986 0.0934378 -0.0349001)
(0.00486052 0.121061 -0.0168321)
(-0.0417307 0.122948 0.00495618)
(-0.077246 0.0950649 0.0278418)
(-0.103755 0.0469915 0.0493072)
(-0.11117 -0.00266387 0.0640725)
(-0.115603 -0.111175 0.103717)
(-0.108048 -0.1274 0.113954)
(-0.0996021 -0.133013 0.118087)
(-0.0778784 -0.127175 0.111922)
(-0.0430454 -0.111125 0.0936864)
(0.00254802 -0.0872539 0.0644802)
(0.0521404 -0.0588147 0.0298602)
(0.0940013 -0.0274944 -0.00125086)
(0.114667 0.00889844 -0.0212818)
(0.104528 0.0512538 -0.0279599)
(0.0660633 0.0887193 -0.0232502)
(0.015172 0.1037 -0.010144)
(-0.0313532 0.0874495 0.00824731)
(-0.0664623 0.0462094 0.0290465)
(-0.0915283 -0.00518781 0.0497521)
(-0.0987626 -0.0502888 0.0656084)
(-0.143032 -0.179602 0.171481)
(-0.137529 -0.167603 0.165763)
(-0.126639 -0.144294 0.153348)
(-0.0965865 -0.111045 0.128774)
(-0.0513949 -0.0730178 0.0932666)
(0.00255118 -0.0367533 0.0529678)
(0.0553831 -0.00788081 0.0180288)
(0.0950572 0.01269 -0.00137723)
(0.111352 0.0295467 -0.000801365)
(0.0995671 0.0452971 0.0145262)
(0.0650333 0.0531773 0.0352688)
(0.021271 0.0426697 0.0557631)
(-0.0207907 0.0101839 0.0753671)
(-0.0579862 -0.0372358 0.0949375)
(-0.0913916 -0.0859151 0.113982)
(-0.106972 -0.119386 0.126114)
(-0.117433 -0.181008 0.12829)
(-0.121299 -0.167473 0.124178)
(-0.116429 -0.143215 0.115638)
(-0.0926768 -0.110299 0.0993707)
(-0.053192 -0.072675 0.0758026)
(-0.00298782 -0.035745 0.0486029)
(0.0495572 -0.00488204 0.0244888)
(0.0938918 0.0180862 0.0109814)
(0.120532 0.036618 0.0117169)
(0.122449 0.0521124 0.0226582)
(0.0988733 0.0555226 0.0362052)
(0.0596215 0.0354069 0.049068)
(0.0169518 -0.00748102 0.0622723)
(-0.0234971 -0.0601456 0.0766211)
(-0.0606705 -0.106741 0.0907506)
(-0.081925 -0.134326 0.0999393)
(-0.103094 -0.180414 0.0877563)
(-0.111908 -0.165149 0.0835712)
(-0.109656 -0.139438 0.0767429)
(-0.0885573 -0.105981 0.0653465)
(-0.0518161 -0.0685713 0.0496334)
(-0.0039197 -0.0321297 0.032012)
(0.0482016 -0.00162143 0.0169195)
(0.0957332 0.0210114 0.00930609)
(0.130634 0.0385915 0.0116555)
(0.145998 0.0532095 0.0208498)
(0.136098 0.0557607 0.0303219)
(0.103669 0.0325918 0.0377346)
(0.0594571 -0.0149344 0.0455792)
(0.0119549 -0.0704484 0.0552941)
(-0.0338551 -0.116491 0.06523)
(-0.0645401 -0.142169 0.0718845)
(-0.0943107 -0.16021 0.0474228)
(-0.106411 -0.144191 0.0408375)
(-0.1054 -0.118747 0.0335962)
(-0.0852528 -0.0868405 0.0248419)
(-0.0495535 -0.052129 0.014683)
(-0.002704 -0.0190721 0.00448648)
(0.0492784 0.00793556 -0.00323955)
(0.0989601 0.0270003 -0.00571102)
(0.139563 0.0408821 -0.00132633)
(0.16546 0.0533269 0.00812551)
(0.168885 0.0572709 0.0171903)
(0.144791 0.0366169 0.023102)
(0.0994895 -0.0100295 0.0284402)
(0.0440084 -0.0647248 0.0348795)
(-0.0116883 -0.108462 0.0407727)
(-0.0519286 -0.131659 0.0435727)
(-0.0903351 -0.126983 0.00982456)
(-0.104537 -0.111195 -0.00114192)
(-0.103947 -0.08714 -0.0107314)
(-0.0837613 -0.0579969 -0.0188697)
(-0.048055 -0.0273874 -0.0255901)
(-0.00131286 0.000631705 -0.0305029)
(0.0509762 0.022401 -0.0327184)
(0.102316 0.036417 -0.0311057)
(0.146641 0.0453407 -0.0247071)
(0.17922 0.0543451 -0.0139788)
(0.192725 0.0600403 -0.00250297)
(0.176899 0.0457974 0.00610949)
(0.13164 0.00519829 0.0125585)
(0.0690325 -0.0452705 0.0176488)
(0.00415745 -0.0856588 0.0197637)
(-0.0442079 -0.10672 0.0177099)
(-0.0913856 -0.0858172 -0.021894)
(-0.106385 -0.0714123 -0.0383032)
(-0.105473 -0.0498667 -0.0516144)
(-0.0844843 -0.0245482 -0.0608571)
(-0.0480277 0.000959241 -0.0661746)
(-0.000713403 0.0230434 -0.0679558)
(0.0522897 0.0388349 -0.0664783)
(0.105005 0.047436 -0.061695)
(0.151632 0.0514376 -0.0531338)
(0.187582 0.0567682 -0.0403804)
(0.206619 0.0639374 -0.0250792)
(0.196755 0.0581471 -0.0110143)
(0.1522 0.0276561 -0.000533499)
(0.0842014 -0.0156119 0.00501341)
(0.0120408 -0.0519583 0.00404221)
(-0.0421027 -0.0716374 -0.00301011)
(-0.0975093 -0.0413867 -0.0448862)
(-0.111631 -0.0297267 -0.0667277)
(-0.109451 -0.0118839 -0.0844182)
(-0.0868106 0.00860848 -0.09605)
(-0.0489012 0.0282213 -0.101705)
(-0.000543343 0.0438412 -0.102227)
(0.0532389 0.053421 -0.0985992)
(0.106812 0.0567995 -0.0913569)
(0.154403 0.0566911 -0.0803193)
(0.191018 0.0593358 -0.0647609)
(0.211053 0.0682182 -0.0451285)
(0.203312 0.0717002 -0.0249266)
(0.159056 0.0538676 -0.00918205)
(0.0877425 0.0200444 -0.00203366)
(0.0109481 -0.0119038 -0.00511371)
(-0.0460382 -0.0312049 -0.0163239)
(-0.108385 0.00131383 -0.0564995)
(-0.119486 0.00874289 -0.0828082)
(-0.114734 0.0217856 -0.104846)
(-0.0893245 0.0366668 -0.1198)
(-0.0492305 0.0499039 -0.127317)
(0.000430381 0.0588825 -0.128302)
(0.0546916 0.0624238 -0.123974)
(0.108103 0.0611454 -0.115025)
(0.154893 0.0581114 -0.101347)
(0.189569 0.0597864 -0.0822876)
(0.206636 0.0715184 -0.0581358)
(0.196825 0.084557 -0.0324317)
(0.15167 0.0803229 -0.0119254)
(0.0790205 0.0569845 -0.00282488)
(0.000585355 0.0293449 -0.00683956)
(-0.055982 0.0091917 -0.0205056)
(-0.123388 0.0370766 -0.0541154)
(-0.129031 0.0389313 -0.0833086)
(-0.120284 0.0465068 -0.10928)
(-0.0909061 0.0556 -0.128341)
(-0.0478724 0.0626671 -0.139345)
(0.00322903 0.065516 -0.142729)
(0.057372 0.0637289 -0.139443)
(0.109202 0.0587007 -0.129899)
(0.152991 0.0540607 -0.113818)
(0.182965 0.0566408 -0.0908894)
(0.193697 0.072719 -0.0622167)
(0.178267 0.0952083 -0.0321093)
(0.130842 0.103824 -0.00809639)
(0.0586676 0.09045 0.00295531)
(-0.0183865 0.0663883 -0.000611732)
(-0.0713293 0.0440786 -0.0144781)
(-0.1414 0.06089 -0.0353677)
(-0.139414 0.0563508 -0.0657198)
(-0.125668 0.0585557 -0.0950045)
(-0.0914639 0.0627199 -0.119055)
(-0.0449233 0.064943 -0.135537)
(0.00767685 0.0631451 -0.14377)
(0.0610668 0.0574508 -0.143783)
(0.109866 0.0499681 -0.135218)
(0.148404 0.0450592 -0.117446)
(0.170932 0.0501013 -0.0907839)
(0.172549 0.0715488 -0.0579212)
(0.149136 0.102549 -0.0244397)
(0.0987322 0.121622 0.00204348)
(0.0287966 0.116129 0.0152759)
(-0.0440703 0.0939955 0.0136925)
(-0.0906191 0.0684884 0.001907)
(-0.159697 0.0686485 0.000626024)
(-0.149182 0.0578975 -0.0295185)
(-0.130547 0.0558435 -0.0613344)
(-0.0916354 0.0570663 -0.0910983)
(-0.0415412 0.0569561 -0.115167)
(0.0125554 0.0530476 -0.131034)
(0.0648012 0.04563 -0.137003)
(0.109504 0.0373876 -0.131376)
(0.140952 0.0335065 -0.113049)
(0.153731 0.0419387 -0.0833455)
(0.14428 0.068606 -0.0470343)
(0.11197 0.105751 -0.0110453)
(0.0591007 0.131254 0.0174221)
(-0.00676022 0.130134 0.0333751)
(-0.0728655 0.107965 0.0357507)
(-0.1108 0.0788352 0.0275996)
(-0.173115 0.0578299 0.0502053)
(-0.155452 0.0426039 0.0212908)
(-0.133603 0.0384687 -0.0117959)
(-0.0916642 0.0395647 -0.0470578)
(-0.0389443 0.0404223 -0.0799344)
(0.0164375 0.0376998 -0.105693)
(0.0675267 0.0313366 -0.12006)
(0.107785 0.0243511 -0.119348)
(0.13119 0.0227154 -0.101881)
(0.132926 0.0346957 -0.0703152)
(0.111676 0.0649121 -0.0316667)
(0.0710323 0.104137 0.00600457)
(0.0173439 0.130637 0.0363814)
(-0.0420742 0.1295 0.0557448)
(-0.0990214 0.105526 0.0632047)
(-0.127313 0.0733817 0.0592846)
(-0.175876 0.027938 0.102653)
(-0.155015 0.0118648 0.0763972)
(-0.132894 0.00870629 0.0442647)
(-0.0910331 0.0127593 0.00561373)
(-0.0377328 0.0179534 -0.0350634)
(0.0183289 0.019885 -0.0710642)
(0.0686237 0.0175887 -0.0950096)
(0.105065 0.0140283 -0.100604)
(0.120878 0.0157283 -0.0854341)
(0.111929 0.0306993 -0.0535983)
(0.0798275 0.0614689 -0.0141706)
(0.0327359 0.0973834 0.0241383)
(-0.0195886 0.118677 0.055987)
(-0.0705775 0.112951 0.0786218)
(-0.116633 0.0855512 0.091097)
(-0.135459 0.0519218 0.0910246)
(-0.166613 -0.0189752 0.143404)
(-0.147334 -0.0312616 0.121929)
(-0.12789 -0.0301943 0.093758)
(-0.0894366 -0.02047 0.0556387)
(-0.0380891 -0.00813233 0.0109425)
(0.0177474 0.00149083 -0.032722)
(0.0679352 0.00610404 -0.0651413)
(0.102331 0.00808635 -0.0771736)
(0.112913 0.0140315 -0.0654698)
(0.0959263 0.0309308 -0.0353068)
(0.0557598 0.058639 0.00277337)
(0.00478101 0.0856458 0.0399821)
(-0.0446762 0.0958319 0.0719072)
(-0.0870135 0.0813686 0.0964181)
(-0.122368 0.0492483 0.112471)
(-0.133404 0.0155752 0.115464)
(-0.150342 -0.07637 0.163409)
(-0.135513 -0.0815426 0.148452)
(-0.12023 -0.0739523 0.126688)
(-0.0870955 -0.056865 0.0931375)
(-0.0396853 -0.0357614 0.049484)
(0.014933 -0.016544 0.0029618)
(0.0657977 -0.00302256 -0.0345677)
(0.100791 0.00604674 -0.0516605)
(0.110356 0.0167098 -0.0439926)
(0.0903475 0.0343855 -0.0174165)
(0.0465229 0.0561076 0.0169206)
(-0.00596479 0.0702707 0.0506876)
(-0.0529057 0.0654341 0.0803254)
(-0.0891578 0.0395399 0.104301)
(-0.116974 0.00181338 0.1217)
(-0.123595 -0.0315985 0.127174)
(-0.131333 -0.11546 0.16019)
(-0.12045 -0.113642 0.152656)
(-0.109384 -0.101809 0.139052)
(-0.0825537 -0.0807923 0.113417)
(-0.0409593 -0.0542001 0.0755984)
(0.0108388 -0.0275041 0.0315171)
(0.0625737 -0.0061876 -0.00673991)
(0.100667 0.00902966 -0.0264766)
(0.113945 0.0235525 -0.0224637)
(0.0971621 0.0418009 -0.00027276)
(0.0550814 0.0574274 0.0290376)
(0.00302372 0.0575312 0.0572593)
(-0.0435949 0.036142 0.0814401)
(-0.078683 -0.00077567 0.101277)
(-0.104205 -0.0410275 0.116842)
(-0.110395 -0.0709654 0.123664)
(-0.142049 -0.146563 0.206027)
(-0.126724 -0.11483 0.175672)
(-0.108608 -0.073978 0.139793)
(-0.074714 -0.0295394 0.0939175)
(-0.0302584 0.0111733 0.0422897)
(0.0172481 0.0406098 -0.00486506)
(0.0577939 0.0543859 -0.0348451)
(0.0823106 0.0546444 -0.0382364)
(0.0864872 0.0483968 -0.0142785)
(0.07054 0.0405539 0.0267925)
(0.0387481 0.0283249 0.0699298)
(-0.000588559 0.00463803 0.105802)
(-0.039255 -0.0320608 0.133549)
(-0.0734065 -0.0737714 0.154871)
(-0.102778 -0.107648 0.169868)
(-0.113372 -0.120697 0.172385)
(-0.115161 -0.144118 0.147915)
(-0.110858 -0.112348 0.124042)
(-0.100024 -0.0701638 0.0968596)
(-0.073215 -0.0232677 0.063392)
(-0.0345123 0.0214129 0.0260151)
(0.00972966 0.0559444 -0.00839044)
(0.0506351 0.0744034 -0.030052)
(0.0797705 0.0771375 -0.0307401)
(0.0924441 0.0701377 -0.00931512)
(0.0871836 0.057935 0.0259137)
(0.0649589 0.0373987 0.0620568)
(0.0314225 0.002934 0.0909546)
(-0.00538719 -0.0428395 0.112097)
(-0.0405276 -0.0881315 0.126813)
(-0.0720384 -0.119859 0.135063)
(-0.0878023 -0.128523 0.133861)
(-0.0949883 -0.138135 0.0939105)
(-0.0970449 -0.104791 0.0715439)
(-0.0905238 -0.0608291 0.0479332)
(-0.0687251 -0.0124505 0.0218757)
(-0.0349375 0.0335602 -0.0049881)
(0.0058075 0.0696082 -0.0279332)
(0.0463522 0.0896915 -0.040317)
(0.0793513 0.0931868 -0.0367046)
(0.100112 0.0851892 -0.0163881)
(0.106124 0.0705111 0.0146552)
(0.095078 0.0461907 0.0460907)
(0.0681316 0.00658598 0.0707063)
(0.0316585 -0.0443241 0.087674)
(-0.00762012 -0.0924111 0.0978101)
(-0.0445589 -0.123762 0.100785)
(-0.0672822 -0.130891 0.0956862)
(-0.0801315 -0.116983 0.0434292)
(-0.0866455 -0.0834615 0.0191317)
(-0.082937 -0.0399651 -0.00392605)
(-0.0644075 0.00726719 -0.0255296)
(-0.0339841 0.0516418 -0.0445113)
(0.0042149 0.0859266 -0.0580187)
(0.0444321 0.104344 -0.0623358)
(0.0804046 0.105947 -0.054722)
(0.107619 0.0955974 -0.034965)
(0.12318 0.0790458 -0.00652202)
(0.122837 0.0545246 0.0232461)
(0.10292 0.0153162 0.0475337)
(0.0666241 -0.0355357 0.0638589)
(0.0223134 -0.0829499 0.071432)
(-0.0211503 -0.112474 0.06959)
(-0.0508753 -0.117985 0.0592062)
(-0.0708787 -0.0864455 -0.000394416)
(-0.0806829 -0.0537975 -0.0290122)
(-0.0788715 -0.0123182 -0.053707)
(-0.0622808 0.0317599 -0.0732407)
(-0.033739 0.0720134 -0.0869382)
(0.00318767 0.101764 -0.0936489)
(0.0436905 0.11597 -0.0920362)
(0.0822564 0.113972 -0.0813418)
(0.114317 0.100589 -0.0616928)
(0.136701 0.0826112 -0.0344578)
(0.144611 0.0604012 -0.0037837)
(0.131026 0.0265104 0.0238387)
(0.0952645 -0.0191409 0.0430292)
(0.0462635 -0.0626789 0.0501639)
(-0.00350924 -0.0894538 0.044148)
(-0.0393035 -0.0936683 0.0276502)
(-0.0674762 -0.0509872 -0.0344685)
(-0.0793478 -0.0203769 -0.0685376)
(-0.0785471 0.0176072 -0.0962907)
(-0.062754 0.0566906 -0.11571)
(-0.0348386 0.0907065 -0.126582)
(0.00198417 0.113821 -0.129107)
(0.0434592 0.122133 -0.123628)
(0.0844356 0.115698 -0.110575)
(0.120028 0.0994025 -0.0902466)
(0.146429 0.0807898 -0.0627371)
(0.158941 0.0625521 -0.0296983)
(0.149501 0.037588 0.00318415)
(0.114303 0.00164223 0.0273648)
(0.0616816 -0.0351071 0.0357061)
(0.00676531 -0.0584013 0.0264864)
(-0.0335335 -0.0619426 0.00416024)
(-0.0696377 -0.014555 -0.0563407)
(-0.0817934 0.0127213 -0.0958223)
(-0.0806815 0.0457986 -0.127326)
(-0.0643393 0.0782945 -0.148074)
(-0.0358541 0.104437 -0.158112)
(0.00167542 0.119465 -0.158571)
(0.0442792 0.120884 -0.150772)
(0.0869542 0.109762 -0.135726)
(0.124426 0.091237 -0.113779)
(0.152081 0.0732514 -0.0845202)
(0.16531 0.0604034 -0.0483546)
(0.156862 0.0466148 -0.0102594)
(0.121644 0.0235091 0.0190201)
(0.0667328 -0.00414328 0.0292371)
(0.00851665 -0.023498 0.017971)
(-0.0341012 -0.027141 -0.00882506)
(-0.0767781 0.0185701 -0.063824)
(-0.0866638 0.0412601 -0.10781)
(-0.0832482 0.0683699 -0.14326)
(-0.0645844 0.093313 -0.16653)
(-0.0343232 0.11074 -0.177505)
(0.00432176 0.117081 -0.177705)
(0.0475113 0.111376 -0.168891)
(0.0903256 0.0958615 -0.152192)
(0.127269 0.07612 -0.12787)
(0.153178 0.0602977 -0.0955647)
(0.163545 0.0541233 -0.0557608)
(0.152724 0.0524442 -0.0134845)
(0.116353 0.0434179 0.0195485)
(0.0605038 0.0259715 0.0314565)
(0.00124108 0.0106046 0.0194412)