/*--------------------------------*- C++ -*----------------------------------*\
| =========                 |                                                 |
| \\      /  F ield         | OpenFOAM: The Open Source CFD Toolbox           |
|  \\    /   O peration     | Version:  3.0.0                                 |
|   \\  /    A nd           | Web:      www.OpenFOAM.org                      |
|    \\/     M anipulation  |                                                 |
\*---------------------------------------------------------------------------*/
FoamFile
{
    version     2.0;
    format      ascii;
    class       volScalarField;
    location    "8";
    object      p;
}
// * * * * * * * * * * * * * * * * * * * * * * * * * * * * * * * * * * * * * //

dimensions      [0 2 -2 0 0 0 0];

internalField   nonuniform List<scalar> 
4096
(
-0.00801609
-0.0259593
-0.0284216
-0.0273346
-0.0243548
-0.0212519
-0.0198408
-0.0199576
-0.0192114
-0.0150328
-0.00749388
0.000583775
0.00579565
0.00561585
-2.0767e-05
-0.000100389
-0.00519711
-0.0272169
-0.028845
-0.0265627
-0.0214028
-0.0147437
-0.00898765
-0.00557621
-0.00375537
-0.000911865
0.00440546
0.0103216
0.0135283
0.0112248
0.00356167
0.00608037
0.0125093
-0.0132882
-0.01504
-0.0134415
-0.0090768
-0.00255587
0.00410175
0.00917551
0.0121702
0.0147147
0.0189675
0.0241813
0.0270909
0.0244414
0.016548
0.0232342
0.0278661
0.00143745
0.00041125
0.00219422
0.00573773
0.0110929
0.0167582
0.02146
0.0245431
0.0267232
0.0299871
0.0343603
0.0369681
0.0341997
0.0266007
0.036817
0.0362476
0.0132836
0.0147365
0.0175297
0.0211714
0.0256568
0.0297367
0.0325893
0.0340544
0.0346904
0.0360657
0.0387523
0.0403586
0.0373963
0.0304872
0.042197
0.0349303
0.0190283
0.0235969
0.0288761
0.0340494
0.0388453
0.0421827
0.0433781
0.0425292
0.0404921
0.0386943
0.0382305
0.0375555
0.0336586
0.0270989
0.0374667
0.0238196
0.0166673
0.0241784
0.0324569
0.0402063
0.046674
0.0506853
0.0515356
0.0493086
0.0448894
0.0396203
0.0349502
0.0306341
0.0246688
0.0177005
0.0238589
0.00722535
0.00730981
0.0164719
0.026949
0.037103
0.0456921
0.0513444
0.0531501
0.051032
0.0458315
0.0386839
0.0307256
0.0226816
0.0139935
0.00578789
0.00656618
-0.00753726
-0.0049602
0.00373393
0.0144613
0.0255258
0.0354084
0.0425639
0.0458445
0.0449336
0.0406235
0.0341489
0.0260378
0.0165648
0.00606206
-0.00363018
-0.00699372
-0.0148922
-0.0155864
-0.00952168
-0.00079199
0.00906489
0.0186056
0.0262354
0.0307039
0.0315155
0.0293808
0.0256891
0.0207908
0.0135887
0.00379205
-0.00673933
-0.0117856
-0.0155651
-0.0225189
-0.0203093
-0.0150491
-0.00798542
-0.000361677
0.00647107
0.0114647
0.0141405
0.0150303
0.0153357
0.0152313
0.0127092
0.00591171
-0.00438768
-0.00965509
-0.0151202
-0.0267685
-0.0281192
-0.0265096
-0.0224529
-0.0175668
-0.0125269
-0.00776688
-0.00347931
0.000522858
0.00479815
0.00901345
0.0108157
0.00742276
-0.00166307
-0.00712401
-0.0175585
-0.0302004
-0.0336869
-0.0340144
-0.0326039
-0.0304151
-0.0276489
-0.0238924
-0.0188649
-0.0126547
-0.00559633
0.00123117
0.00546787
0.00443108
-0.0028563
-0.00879625
-0.0227359
-0.034019
-0.0380766
-0.0389018
-0.0383686
-0.0377378
-0.0370509
-0.0347897
-0.0301635
-0.0232229
-0.0150369
-0.00730238
-0.00233033
-0.00228122
-0.0079004
-0.014327
-0.0269397
-0.0372851
-0.0408851
-0.0410357
-0.0397904
-0.03893
-0.0388867
-0.038094
-0.0348331
-0.0285778
-0.0206516
-0.0131846
-0.00845615
-0.00822899
-0.0129805
-0.0192381
-0.0158399
-0.0281346
-0.0319402
-0.0321883
-0.0307704
-0.029556
-0.0297598
-0.0304113
-0.0291921
-0.0245954
-0.0173236
-0.00969337
-0.00434917
-0.00332721
-0.00707639
-0.0107056
-0.00267785
-0.0241236
-0.0256531
-0.0241954
-0.0211889
-0.01789
-0.0154546
-0.0133374
-0.0099058
-0.00409426
0.00330976
0.00989191
0.013217
0.0112362
0.00428882
0.00760882
0.00730981
-0.017537
-0.0186027
-0.0174616
-0.0147935
-0.0110876
-0.00744544
-0.0039141
0.000351717
0.0060872
0.0127971
0.0185757
0.0211467
0.0183973
0.0110144
0.0189874
0.0231774
-0.00338991
-0.0038689
-0.00292966
-0.000910119
0.00216838
0.00539524
0.00866366
0.0126526
0.0180004
0.0243684
0.0301672
0.0325153
0.0294515
0.0220834
0.0337326
0.0329515
0.008195
0.00956989
0.0117562
0.0142625
0.0172516
0.0198632
0.0219356
0.0243263
0.0279194
0.0327909
0.0373503
0.0389956
0.0354067
0.0281278
0.0415636
0.033335
0.0138283
0.0179511
0.0224815
0.0267692
0.0307603
0.0335034
0.0345547
0.0348818
0.0355405
0.0372411
0.0391301
0.038907
0.0342767
0.0269112
0.0394493
0.0238594
0.0118979
0.0187811
0.0261329
0.0329834
0.0389365
0.0428639
0.0441619
0.0430372
0.0408882
0.0386217
0.0364371
0.0330021
0.0265211
0.0185828
0.0274176
0.00714533
0.00307469
0.0119016
0.0216205
0.0308949
0.0389302
0.0445119
0.0467951
0.045715
0.0422494
0.0370805
0.0307096
0.0233332
0.0142795
0.00524502
0.00856652
-0.0109352
-0.00935586
8.2566e-05
0.0109142
0.0215371
0.0308402
0.0375866
0.0408703
0.0404496
0.0369662
0.0311887
0.0229198
0.012725
0.00134071
-0.00898688
-0.0108252
-0.0235831
-0.0210526
-0.0124395
-0.00209443
0.00828777
0.0174645
0.0242283
0.0277222
0.0276589
0.0247087
0.0199865
0.0132246
0.0037283
-0.00787095
-0.0189183
-0.0234388
-0.0273145
-0.0289464
-0.0225248
-0.0140135
-0.00522754
0.00258641
0.00827478
0.0111729
0.0111757
0.00901816
0.00615783
0.00305405
-0.00210445
-0.0107835
-0.0213094
-0.0256353
-0.0251921
-0.0330071
-0.0295512
-0.0234937
-0.0168025
-0.0108602
-0.00674219
-0.00473908
-0.00458402
-0.00541436
-0.00568369
-0.00471307
-0.00455662
-0.00883393
-0.017904
-0.0210968
-0.0238776
-0.0353409
-0.0347253
-0.0308054
-0.0257722
-0.0214252
-0.0187291
-0.0174532
-0.0168227
-0.0158635
-0.0134664
-0.00944089
-0.00574011
-0.00665013
-0.0140466
-0.0175824
-0.0261981
-0.0375995
-0.0388912
-0.0361815
-0.0320334
-0.0286265
-0.0268752
-0.0260327
-0.0248407
-0.0223166
-0.0180196
-0.0124884
-0.00772624
-0.00738259
-0.0133286
-0.0185047
-0.0296764
-0.0397454
-0.0418427
-0.0395741
-0.035612
-0.0324433
-0.031037
-0.0302974
-0.0287097
-0.0252741
-0.0201208
-0.0143805
-0.0100736
-0.00984249
-0.0149386
-0.0213809
-0.0295686
-0.0398468
-0.042055
-0.0400091
-0.0360762
-0.0326528
-0.0308879
-0.0298738
-0.0279541
-0.0241677
-0.0188821
-0.0135088
-0.00997667
-0.0102739
-0.0151371
-0.0209275
-0.0168214
-0.0309355
-0.0337599
-0.032717
-0.0296871
-0.0264997
-0.0243901
-0.0228454
-0.0203856
-0.0159883
-0.0100272
-0.0041591
-0.000501972
-0.00104434
-0.00611427
-0.00867157
0.00666971
-0.0137878
-0.0133015
-0.010229
-0.00619974
-0.00260191
-0.000500984
0.000914549
0.00326957
0.00762587
0.0133879
0.0185548
0.0209011
0.0184519
0.0116712
0.0170596
0.0207959
-0.00298633
-0.00314401
-0.00180787
0.000478316
0.00335364
0.0058729
0.00802523
0.0107148
0.0147247
0.0199256
0.0249338
0.0277555
0.0261046
0.0205091
0.0313424
0.033321
0.0094531
0.00981678
0.0107464
0.012041
0.0139765
0.0158439
0.0176151
0.0199485
0.023442
0.028096
0.0327375
0.0353343
0.0336545
0.0286299
0.0424948
0.0377408
0.0172902
0.0196133
0.0218078
0.0236734
0.0255766
0.0269108
0.0276878
0.0286006
0.0303147
0.0330206
0.0359281
0.0372405
0.0348831
0.0300649
0.0445872
0.0323244
0.017958
0.0230398
0.027768
0.0316124
0.0346812
0.0363226
0.0363856
0.0356186
0.0348235
0.0343826
0.034123
0.0328891
0.0289763
0.0237482
0.0362676
0.0174977
0.0105553
0.018358
0.0260805
0.032712
0.0378819
0.0407527
0.0409995
0.0391709
0.0362782
0.0326167
0.0283392
0.0234181
0.0170089
0.0105914
0.0186578
-0.00325903
-0.00329516
0.00641281
0.0166532
0.0259122
0.0332885
0.0377504
0.0387681
0.0366863
0.0326688
0.0271297
0.0195885
0.0108171
0.00142359
-0.00675637
-0.00427837
-0.0233886
-0.0193208
-0.008923
0.00261357
0.0134083
0.0221752
0.0276792
0.0292676
0.0271233
0.0224422
0.016439
0.0082878
-0.00232763
-0.0138745
-0.0237062
-0.0257013
-0.0358295
-0.0324313
-0.0226217
-0.0112924
-0.000500031
0.00826197
0.0136595
0.0150164
0.0124842
0.00723592
0.00119328
-0.00521274
-0.013811
-0.0244961
-0.0347812
-0.0381653
-0.0377483
-0.0395574
-0.0315117
-0.0216
-0.0120948
-0.00451925
-0.000256379
0.000153165
-0.00297385
-0.00839795
-0.0138776
-0.017714
-0.0215732
-0.0281656
-0.0370397
-0.0386709
-0.0337402
-0.0414136
-0.0357707
-0.0278149
-0.0199395
-0.0139198
-0.0111394
-0.0117982
-0.0152076
-0.0199601
-0.0238717
-0.0249239
-0.0241187
-0.025949
-0.0326574
-0.0323263
-0.0310266
-0.0409953
-0.0377888
-0.0313634
-0.0245569
-0.0196502
-0.0179799
-0.0192569
-0.0222956
-0.0255457
-0.0272465
-0.0259792
-0.0227148
-0.0218093
-0.0266851
-0.0269835
-0.0313345
-0.0401564
-0.0387236
-0.0331928
-0.0267531
-0.0222749
-0.0210499
-0.0223301
-0.0244886
-0.0259316
-0.0255401
-0.0229616
-0.0194416
-0.0183213
-0.0222791
-0.0251829
-0.0308233
-0.0385197
-0.0380904
-0.0331177
-0.0268042
-0.0223184
-0.0209372
-0.0217264
-0.0229015
-0.0227487
-0.0208865
-0.0177616
-0.0148708
-0.014594
-0.0185857
-0.0233975
-0.0248233
-0.0339274
-0.0341126
-0.0300228
-0.024329
-0.0198749
-0.018064
-0.0180767
-0.0181233
-0.0168299
-0.0140152
-0.0105583
-0.00806268
-0.00847151
-0.0127001
-0.0165629
-0.00934262
-0.0228722
-0.0236416
-0.020991
-0.0168869
-0.0132785
-0.0113593
-0.0104417
-0.00902735
-0.00599911
-0.00152213
0.00302185
0.00572667
0.00468094
-0.00035121
-0.000548894
0.0177145
0.000805984
0.00118942
0.0038353
0.00700523
0.00925696
0.00998571
0.0101223
0.0115688
0.015341
0.0207077
0.025801
0.0285848
0.0272705
0.0221878
0.0270088
0.031583
0.0120504
0.0109541
0.0109708
0.0117487
0.0128794
0.0135463
0.0139543
0.0153046
0.018332
0.0230285
0.0282716
0.0322602
0.0328764
0.0302467
0.0404599
0.0394063
0.0218141
0.022003
0.0218979
0.0215859
0.0213845
0.0209055
0.0204227
0.0208096
0.0227906
0.0264713
0.0308983
0.0344182
0.0350797
0.0334808
0.0464513
0.0376794
0.0246069
0.0274756
0.0292619
0.0299227
0.0298777
0.0289049
0.0273329
0.0260407
0.0258425
0.027045
0.0291199
0.0307798
0.0303939
0.028843
0.0421953
0.0263635
0.019253
0.0252924
0.0301341
0.033274
0.0347959
0.034382
0.03227
0.0294542
0.0267161
0.0246647
0.023196
0.0217475
0.0192372
0.0167698
0.0279974
0.00697776
0.0061076
0.0149823
0.0231264
0.0294194
0.0333669
0.0344021
0.0325699
0.0287625
0.0242442
0.0194452
0.0141886
0.00882433
0.00328345
-0.00105269
0.0059307
-0.016277
-0.0121199
-0.00137821
0.00943353
0.0185989
0.0249505
0.0276725
0.0265725
0.0223998
0.016704
0.0104511
0.00280561
-0.0060454
-0.0148116
-0.0214931
-0.0194655
-0.0365492
-0.0303576
-0.0188823
-0.00662837
0.00417376
0.0121098
0.0159064
0.0152331
0.010725
0.00399487
-0.00311672
-0.0108542
-0.0206323
-0.0312243
-0.0398428
-0.0412261
-0.0472308
-0.0432632
-0.0321119
-0.0198089
-0.00877372
-0.000720069
0.00297915
0.00193471
-0.00323079
-0.0109583
-0.0189092
-0.0257008
-0.0330577
-0.0420852
-0.0509132
-0.0522495
-0.0466398
-0.0483412
-0.038365
-0.0270322
-0.0169565
-0.00988803
-0.00725475
-0.00930738
-0.0152614
-0.0235036
-0.0316165
-0.0371803
-0.0406551
-0.0453985
-0.0523481
-0.0505867
-0.0406373
-0.0473684
-0.0391115
-0.029033
-0.020059
-0.0142023
-0.0128495
-0.0158913
-0.0221945
-0.0299999
-0.0370027
-0.040805
-0.0410093
-0.0416186
-0.0462548
-0.0420554
-0.0362215
-0.0440224
-0.0377107
-0.0285319
-0.0200026
-0.0147584
-0.0141242
-0.0174971
-0.0232857
-0.0296086
-0.0345057
-0.036331
-0.034962
-0.0338354
-0.0369465
-0.0340531
-0.0336847
-0.039981
-0.035629
-0.027154
-0.018563
-0.0132675
-0.0125693
-0.0154379
-0.0199
-0.0240743
-0.0265593
-0.026722
-0.025132
-0.0244279
-0.0273369
-0.0283749
-0.028537
-0.0345746
-0.0321407
-0.024753
-0.0164109
-0.0109289
-0.00963454
-0.0113873
-0.0140987
-0.0160298
-0.0163054
-0.0151133
-0.0135549
-0.0137041
-0.0171965
-0.0211958
-0.0168245
-0.0257078
-0.0252358
-0.0200655
-0.0132048
-0.00797378
-0.0059904
-0.00640225
-0.00736588
-0.00734167
-0.00577207
-0.00324248
-0.0011397
-0.00138313
-0.00510362
-0.00833826
0.00316652
-0.00915199
-0.00957147
-0.00681866
-0.00302274
-0.000287317
0.000368647
0.000290569
0.00091538
0.00338884
0.0074933
0.0118898
0.0147957
0.0144135
0.010428
0.0113421
0.030515
0.0184343
0.0173583
0.0181185
0.0189053
0.0182299
0.0160804
0.0142841
0.0148186
0.0184443
0.0242688
0.0303787
0.0348487
0.036112
0.0341839
0.0374166
0.0391792
0.0256177
0.0224212
0.019911
0.0181505
0.0167734
0.0152447
0.0140557
0.0143476
0.0169775
0.0218134
0.0278241
0.0334773
0.0370053
0.0381294
0.0460188
0.0411511
0.0315095
0.0311017
0.0294823
0.0269705
0.0239525
0.020536
0.0174996
0.0160013
0.0168764
0.0200899
0.0247215
0.02942
0.0327221
0.0348708
0.0456125
0.0332493
0.0286266
0.0320148
0.0333213
0.032528
0.0300246
0.0260844
0.0216136
0.0179018
0.0160381
0.0162373
0.0179295
0.0201941
0.0219307
0.023791
0.0351352
0.0169319
0.0173827
0.0244637
0.0294926
0.0318465
0.0314612
0.0284073
0.0234539
0.0179291
0.0134264
0.0102597
0.00824243
0.00701215
0.00608933
0.00645037
0.0161472
-0.0053702
-0.000491053
0.00950981
0.0181126
0.0239868
0.0264338
0.0251497
0.020638
0.0142796
0.00781305
0.00207871
-0.00330866
-0.00837975
-0.0126732
-0.0148204
-0.00858489
-0.0290977
-0.0214057
-0.00964053
0.00165912
0.0105196
0.0155874
0.0161794
0.0125394
0.00588396
-0.00183521
-0.00904896
-0.0162265
-0.0241323
-0.0316844
-0.0365951
-0.0343234
-0.0476039
-0.039867
-0.027375
-0.014604
-0.00404491
0.00268463
0.00445546
0.00131557
-0.00561018
-0.0143805
-0.022761
-0.0302194
-0.0384157
-0.0473594
-0.054468
-0.0544129
-0.0551969
-0.0508275
-0.0383771
-0.0253408
-0.0144489
-0.00750983
-0.00575885
-0.00918717
-0.0166745
-0.0263268
-0.0357564
-0.0431779
-0.0494594
-0.0566647
-0.0639615
-0.0627564
-0.0515694
-0.0526744
-0.0408012
-0.0283067
-0.0181042
-0.0119865
-0.0111704
-0.0154672
-0.0236112
-0.0336834
-0.0433524
-0.0503738
-0.0542332
-0.0578829
-0.0633889
-0.0583647
-0.0432124
-0.0482379
-0.0373451
-0.0255489
-0.0160084
-0.010827
-0.0110556
-0.0161071
-0.024418
-0.0339929
-0.0426657
-0.0483977
-0.0502869
-0.0510718
-0.0545047
-0.0469679
-0.0362927
-0.041649
-0.0323443
-0.0209036
-0.0114548
-0.0065278
-0.00712458
-0.0121441
-0.0196565
-0.0276095
-0.0341827
-0.0379902
-0.038678
-0.0385446
-0.0408904
-0.0353201
-0.0300425
-0.0343084
-0.0274919
-0.0168644
-0.00713848
-0.00186216
-0.00200176
-0.00605005
-0.0117862
-0.017238
-0.0210865
-0.0227707
-0.0227296
-0.0229283
-0.0255138
-0.0250943
-0.0202646
-0.0254943
-0.0220947
-0.0134977
-0.00431074
0.00121715
0.0020557
-0.000314356
-0.00365776
-0.00623147
-0.00726143
-0.00677384
-0.00578822
-0.00613482
-0.00930972
-0.0129593
-0.00471106
-0.0136389
-0.0143932
-0.00973876
-0.00298161
0.00218591
0.00418518
0.00384247
0.00291118
0.00293075
0.00447692
0.00718267
0.0097483
0.0102953
0.0074652
0.00384389
0.0187947
0.00835152
0.00703853
0.00864919
0.0108871
0.0117097
0.0104762
0.0088003
0.00873209
0.0112108
0.0157908
0.0210144
0.0251177
0.026445
0.024493
0.0251707
0.0428394
0.0354992
0.0331958
0.0318786
0.0296182
0.0251368
0.0193071
0.0147638
0.01384
0.0171124
0.0235241
0.0310505
0.0377587
0.0421767
0.0439477
0.046711
0.0434802
0.035425
0.030408
0.0252874
0.0207173
0.0166009
0.0127915
0.0100044
0.00936567
0.0116774
0.0167019
0.0234743
0.0306831
0.0369013
0.0415233
0.0479528
0.0387865
0.0360776
0.0356102
0.0330138
0.0286792
0.0230548
0.0168172
0.0113228
0.00801101
0.00776923
0.0104802
0.0152483
0.0209045
0.02638
0.0316438
0.0407254
0.0256379
0.0279192
0.0321918
0.0335937
0.0318824
0.0273092
0.0205625
0.0133641
0.00735237
0.00382805
0.00307523
0.00449417
0.00724428
0.0106472
0.0151501
0.0250504
0.00621631
0.0124026
0.020563
0.0260762
0.0280103
0.0260262
0.0205339
0.0129124
0.00504055
-0.00132535
-0.00546483
-0.0076998
-0.00852121
-0.00809396
-0.00553465
0.0031609
-0.0165703
-0.00777677
0.00310357
0.0121113
0.017619
0.0186724
0.0151756
0.00814664
-0.000530267
-0.00875782
-0.0152827
-0.0203655
-0.0245685
-0.0275422
-0.0278014
-0.0217342
-0.0382877
-0.0286352
-0.016278
-0.0048503
0.00342668
0.00707504
0.00555967
-0.000455062
-0.0092487
-0.0185478
-0.0264983
-0.0330095
-0.0392483
-0.0450344
-0.0482752
-0.0452346
-0.0530021
-0.0447931
-0.0318447
-0.0191508
-0.00934846
-0.00416583
-0.00449742
-0.00988695
-0.0187265
-0.0287672
-0.0377714
-0.0448062
-0.0510833
-0.057745
-0.0631708
-0.0613766
-0.0563904
-0.0519982
-0.0389138
-0.0259037
-0.0158446
-0.0104846
-0.0107912
-0.0163167
-0.0254733
-0.0360989
-0.0458568
-0.0531863
-0.0583337
-0.0634763
-0.0691085
-0.0655481
-0.0494364
-0.0497214
-0.03674
-0.0239999
-0.0145003
-0.00987444
-0.0109752
-0.0171477
-0.0267082
-0.0375015
-0.0473272
-0.0544532
-0.0583166
-0.061063
-0.0651809
-0.0576999
-0.0385117
-0.0415789
-0.0290227
-0.0165823
-0.00758477
-0.00373293
-0.00565312
-0.0122833
-0.021735
-0.0318768
-0.0407233
-0.0467762
-0.0494456
-0.050576
-0.0530442
-0.0431422
-0.0286396
-0.0318452
-0.0207224
-0.0085579
0.000535121
0.00431625
0.00220652
-0.0040035
-0.012347
-0.0207232
-0.0274912
-0.0316877
-0.0332557
-0.0338804
-0.0356772
-0.0279886
-0.0186602
-0.0216809
-0.0136213
-0.00252926
0.00665259
0.010707
0.00932147
0.00435699
-0.00185795
-0.00744565
-0.0113055
-0.0130995
-0.0134117
-0.0138788
-0.0160621
-0.0141927
-0.00547366
-0.0105999
-0.00734684
0.000791867
0.0088495
0.0129819
0.0127665
0.00978923
0.00644044
0.00417188
0.0036051
0.00454591
0.00598008
0.00621619
0.00389271
0.00113452
0.0112032
0.00185856
-0.00111156
0.00138893
0.006275
0.0100379
0.011361
0.0112312
0.0109269
0.0117496
0.0142098
0.0178963
0.021611
0.0235878
0.0223285
0.0188573
0.0338247
0.0259939
0.0235375
0.0235888
0.0238412
0.0219516
0.0181497
0.014627
0.0136888
0.016277
0.0216759
0.0281929
0.0339832
0.037447
0.0379177
0.0382096
0.0508322
0.0469387
0.0448508
0.042362
0.037453
0.0292451
0.0196619
0.0122118
0.0095326
0.0121947
0.0189125
0.0275836
0.0362429
0.0433597
0.0481952
0.0523369
0.0436667
0.0391001
0.0335572
0.0266497
0.0196428
0.0130066
0.00713441
0.00298386
0.00164873
0.00369244
0.00882171
0.016077
0.0243058
0.0322615
0.0391316
0.045953
0.0326795
0.0338718
0.0341645
0.0317019
0.0266135
0.0192899
0.0109322
0.00346928
-0.00133371
-0.00256679
-0.000380905
0.00433033
0.0104963
0.017148
0.0239763
0.0327415
0.0160684
0.0218828
0.0272382
0.0295364
0.0279629
0.0223418
0.0137941
0.00450312
-0.0033181
-0.00817253
-0.00970604
-0.00850998
-0.00546552
-0.00122156
0.00425796
0.013896
-0.00403528
0.00473719
0.013633
0.019868
0.0220396
0.0192939
0.012234
0.00272261
-0.00685808
-0.0144647
-0.0191695
-0.0212861
-0.0215573
-0.0202756
-0.0166365
-0.00863744
-0.0246348
-0.0146139
-0.00357068
0.00557194
0.0108341
0.0109565
0.00591219
-0.00285214
-0.0130011
-0.0221466
-0.0288374
-0.0331738
-0.0360599
-0.0376856
-0.0367861
-0.0310541
-0.0419068
-0.0323366
-0.0203399
-0.00942559
-0.00208279
0.000203298
-0.00299214
-0.0106737
-0.0206854
-0.0305072
-0.0382353
-0.0435754
-0.0477002
-0.0513174
-0.0531142
-0.0494898
-0.051109
-0.04371
-0.0314452
-0.0198035
-0.0113675
-0.00794453
-0.0101663
-0.0172044
-0.0270565
-0.0372694
-0.0456476
-0.0513708
-0.0553624
-0.0592344
-0.0626607
-0.0594855
-0.0496052
-0.0456847
-0.0333038
-0.0214916
-0.0130683
-0.00966023
-0.0119246
-0.0190287
-0.028988
-0.0396637
-0.0484427
-0.054385
-0.0576899
-0.0602954
-0.0635532
-0.0582272
-0.0394387
-0.03893
-0.0263849
-0.0147716
-0.00690066
-0.00420139
-0.00716158
-0.0147402
-0.0249719
-0.0355749
-0.0444354
-0.0502894
-0.0529392
-0.0540928
-0.0559405
-0.0467507
-0.0263695
-0.0275432
-0.0150858
-0.00362883
0.0037787
0.00579264
0.00224457
-0.00551877
-0.0154324
-0.0253257
-0.0333739
-0.0384743
-0.040475
-0.0408795
-0.0415749
-0.0301153
-0.014206
-0.0156025
-0.00445799
0.00665064
0.0140115
0.0158992
0.0124309
0.00534067
-0.00321702
-0.0112621
-0.0173827
-0.020886
-0.0219932
-0.0221559
-0.0227078
-0.0135416
-0.00175582
-0.00400265
0.00382133
0.0135088
0.020552
0.0224892
0.0196316
0.0140192
0.00784768
0.00275916
-0.000369056
-0.00142211
-0.00107387
-0.00082057
-0.00176724
0.00196095
0.0126953
0.00752012
0.009847
0.0158709
0.021142
0.0226548
0.0207553
0.0173702
0.0143869
0.0129617
0.0134165
0.0153968
0.0179109
0.0193976
0.0185845
0.017891
0.0276502
0.0181413
0.0130393
0.0121403
0.013612
0.0146818
0.0148317
0.0146995
0.0153088
0.0173837
0.0211498
0.026122
0.0312017
0.0347963
0.0354066
0.0337208
0.0447692
0.0387469
0.0359618
0.0348355
0.0331444
0.0288051
0.0224541
0.016996
0.0151432
0.0177896
0.023953
0.0317043
0.0390738
0.0444297
0.0468911
0.0478654
0.0521293
0.0494157
0.0487718
0.0465984
0.0403218
0.0294216
0.0168595
0.00705335
0.00290108
0.00486654
0.0115789
0.0208473
0.0307146
0.039463
0.0458544
0.0525317
0.0390128
0.035404
0.0306274
0.0232639
0.014764
0.00632416
-0.001035
-0.00606032
-0.00771309
-0.00568131
-0.000409047
0.00709621
0.0157523
0.0242804
0.031672
0.0397388
0.023533
0.025003
0.0262059
0.024817
0.0203063
0.0126863
0.00338745
-0.00514857
-0.0108098
-0.0126143
-0.0107328
-0.00606834
0.000256998
0.00709338
0.0138891
0.0224229
0.00575378
0.0113601
0.017193
0.0207366
0.0203617
0.0151321
0.00609872
-0.00412269
-0.0128508
-0.0183418
-0.020137
-0.0188446
-0.015518
-0.0110916
-0.00566354
0.00239882
-0.0124861
-0.00450216
0.00413236
0.0108889
0.0137457
0.0112758
0.00385988
-0.0063384
-0.0165395
-0.0244034
-0.0288719
-0.0302785
-0.029675
-0.0278195
-0.0243402
-0.0176871
-0.0287848
-0.0201152
-0.0100566
-0.00138442
0.00362472
0.00333456
-0.00233405
-0.0117334
-0.0221757
-0.0310732
-0.036899
-0.0397673
-0.040891
-0.0411465
-0.0399057
-0.0350623
-0.0401169
-0.0322638
-0.0218189
-0.0122863
-0.00614465
-0.00501653
-0.00929985
-0.0177328
-0.0278862
-0.0370513
-0.0433979
-0.0467259
-0.0483391
-0.0496037
-0.0501463
-0.0466309
-0.0432505
-0.037335
-0.0269293
-0.0171823
-0.0106506
-0.00899579
-0.0127061
-0.0206626
-0.0306273
-0.0399816
-0.0466906
-0.0501606
-0.0514172
-0.0523146
-0.0534295
-0.0496805
-0.0372192
-0.0336998
-0.0232623
-0.013616
-0.0073251
-0.00591532
-0.00979834
-0.0178824
-0.0280116
-0.0377108
-0.0448616
-0.048597
-0.0494102
-0.0491637
-0.0493943
-0.0431649
-0.024701
-0.0230928
-0.0124222
-0.00295727
0.00282372
0.00359088
-0.000844609
-0.00926201
-0.0195554
-0.0293936
-0.0368001
-0.0407721
-0.0414504
-0.0403504
-0.0391541
-0.029239
-0.0104999
-0.00966881
0.00106458
0.0103817
0.0157017
0.0159105
0.0111317
0.00280244
-0.00701423
-0.0162128
-0.0231053
-0.0268085
-0.0274032
-0.0261578
-0.0243348
-0.0124975
0.00268788
0.00297605
0.0125304
0.021311
0.0263136
0.0263052
0.0217612
0.0143639
0.00612017
-0.00119373
-0.00633986
-0.00879627
-0.00885438
-0.00773067
-0.00632301
0.00345358
0.015816
0.0142929
0.0206456
0.027662
0.031814
0.0314856
0.0274024
0.0215727
0.0158947
0.0116745
0.00954135
0.00948254
0.0108593
0.0123785
0.0130838
0.01839
0.0294281
0.0244325
0.025458
0.0283606
0.0299718
0.0285588
0.025069
0.0214639
0.0191486
0.0188217
0.0204718
0.0236039
0.0273013
0.0301718
0.0309845
0.0329362
0.0406326
0.0313139
0.0250798
0.0205585
0.0175204
0.0153318
0.0139847
0.0138847
0.0154984
0.0190128
0.0241906
0.0304188
0.0367011
0.0416127
0.0437132
0.045091
0.0495644
0.0434728
0.0410652
0.0395142
0.0367322
0.030774
0.0224854
0.0154647
0.0128881
0.0155865
0.0223048
0.0309774
0.0395355
0.0461628
0.0496159
0.0526254
0.0463409
0.042236
0.0429553
0.0421213
0.0361857
0.0243467
0.0102966
-0.000787874
-0.00572209
-0.00413928
0.00244223
0.011918
0.0223124
0.0316005
0.0381335
0.0468969
0.0295605
0.0247524
0.0211217
0.0144505
0.00571218
-0.00344588
-0.0114478
-0.0167121
-0.0181939
-0.0157834
-0.0101502
-0.00237201
0.00639748
0.0146456
0.021127
0.0300218
0.0122616
0.0113016
0.0125102
0.0122824
0.00932886
0.00284104
-0.00601977
-0.0145229
-0.0202153
-0.0219585
-0.0198764
-0.0149337
-0.00845184
-0.00198159
0.00350714
0.0112359
-0.00422892
-0.0015413
0.00334192
0.0075431
0.00882394
0.00517974
-0.00295199
-0.0128268
-0.0213872
-0.0266098
-0.0278809
-0.0258495
-0.0219116
-0.0175518
-0.0133851
-0.00721904
-0.0186498
-0.0136733
-0.00673997
-0.000320965
0.00320178
0.00169904
-0.00499086
-0.0147114
-0.024391
-0.0314621
-0.0347359
-0.0346252
-0.0326192
-0.0301713
-0.027541
-0.0230047
-0.0294094
-0.0236013
-0.0157428
-0.00837053
-0.00390613
-0.00426341
-0.00980288
-0.0188641
-0.0286039
-0.0362461
-0.0402578
-0.0408874
-0.0397759
-0.0385469
-0.0373104
-0.0341514
-0.0345852
-0.0290993
-0.0210884
-0.013512
-0.00882875
-0.00870794
-0.0135171
-0.0219545
-0.0315183
-0.0391951
-0.0433955
-0.0441148
-0.042991
-0.0419696
-0.0414436
-0.0389062
-0.032504
-0.0279273
-0.0199755
-0.0125077
-0.00791577
-0.00778098
-0.012438
-0.0206662
-0.0301103
-0.0380787
-0.0426772
-0.043577
-0.0421126
-0.040389
-0.0394243
-0.0360917
-0.023372
-0.0197503
-0.0117058
-0.00436752
-4.71155e-05
-0.000196058
-0.00506089
-0.013447
-0.0231431
-0.0316321
-0.036953
-0.0384534
-0.036951
-0.0343186
-0.0319641
-0.0261648
-0.00989846
-0.00688694
0.00141326
0.00868122
0.0126399
0.0120876
0.00694572
-0.00155022
-0.011333
-0.0201139
-0.0260409
-0.0282806
-0.0272056
-0.0242328
-0.0205734
-0.0117276
0.00428597
0.00689669
0.0151764
0.0222137
0.0258032
0.0249088
0.0197472
0.011678
0.00259318
-0.00556166
-0.01124
-0.0136719
-0.0130316
-0.0103896
-0.0065715
0.00369697
0.0173643
0.0188026
0.0258698
0.0320404
0.034991
0.0337706
0.0289343
0.0220587
0.0147886
0.00862404
0.00461203
0.00318675
0.00408635
0.00632464
0.00908718
0.0181324
0.0297177
0.0285131
0.0325926
0.0365891
0.0380795
0.0360792
0.031542
0.0261894
0.0215854
0.0186281
0.0176803
0.018643
0.0209569
0.023544
0.0255037
0.0311839
0.0408981
0.0359729
0.0355074
0.0350919
0.0332563
0.0294367
0.024961
0.021601
0.0203533
0.0213747
0.0243234
0.0285765
0.0332809
0.0371925
0.0390962
0.0431097
0.0471733
0.0380396
0.0317537
0.0241671
0.0169174
0.0115566
0.00881713
0.0088768
0.0115834
0.0165642
0.0231836
0.0305775
0.0378014
0.0435233
0.0463567
0.0506617
0.0479186
0.0397341
0.0374201
0.0357182
0.0328877
0.0266393
0.0175538
0.00975587
0.00686837
0.00974581
0.0169609
0.0262618
0.0356025
0.0429452
0.0465311
0.051868
0.0347369
0.0274327
0.0278343
0.0280809
0.0238614
0.013089
-0.000678335
-0.0117059
-0.0165159
-0.0147651
-0.00803216
0.00159263
0.0122
0.0213873
0.0270988
0.0366163
0.016529
0.00919525
0.0058888
0.000296931
-0.00751423
-0.016236
-0.0239853
-0.0288744
-0.0297365
-0.0265498
-0.0201489
-0.0117887
-0.00284553
0.00479739
0.00961053
0.0177436
0.000304288
-0.00429601
-0.00462465
-0.00461551
-0.00585765
-0.0103032
-0.0175833
-0.0250398
-0.0299483
-0.0309096
-0.0279317
-0.022109
-0.0151308
-0.00905926
-0.00531623
0.000324014
-0.0126552
-0.0140217
-0.0116524
-0.00823985
-0.00578551
-0.00739608
-0.0136968
-0.0222136
-0.0296709
-0.0337398
-0.0335901
-0.0299888
-0.0248494
-0.0203366
-0.0176465
-0.0142549
-0.0218364
-0.0207875
-0.0168506
-0.0119698
-0.00842572
-0.00891775
-0.0143406
-0.0228392
-0.0312223
-0.0367115
-0.0379555
-0.0355144
-0.03148
-0.0281088
-0.0263311
-0.024456
-0.0266807
-0.0242921
-0.0193594
-0.0140726
-0.0106021
-0.0110706
-0.0161757
-0.0244195
-0.0329352
-0.0388367
-0.0405122
-0.0383942
-0.0346983
-0.031837
-0.0306113
-0.0294083
-0.0264904
-0.0234877
-0.0181151
-0.0127394
-0.00955565
-0.0102668
-0.0153045
-0.023366
-0.0318719
-0.0379852
-0.039969
-0.0380472
-0.0343358
-0.0313575
-0.0300455
-0.0286646
-0.0208506
-0.017538
-0.0118015
-0.00632853
-0.00325796
-0.00410004
-0.00914048
-0.0171695
-0.0258389
-0.0324793
-0.0352312
-0.0339783
-0.0304295
-0.0269873
-0.0248276
-0.0222966
-0.0105711
-0.00697644
-0.000829915
0.00482054
0.00793305
0.00709808
0.00211477
-0.0058843
-0.0147824
-0.0221239
-0.0260206
-0.0259844
-0.0231105
-0.0193576
-0.0159496
-0.0114605
0.0021932
0.00595161
0.0123333
0.0180902
0.0212028
0.0204053
0.0156274
0.00795829
-0.000745142
-0.00835144
-0.0131176
-0.0143161
-0.0124733
-0.00895676
-0.00472382
0.00166772
0.0150797
0.018343
0.0243978
0.0298005
0.0325777
0.0316801
0.027274
0.0204772
0.0128648
0.00609773
0.00155712
-7.22678e-05
0.00101684
0.00390012
0.00793167
0.0148772
0.0268913
0.0283002
0.0328149
0.0368788
0.0386139
0.0372128
0.0331946
0.0277896
0.0222784
0.0177603
0.0150361
0.0144464
0.0157689
0.0182403
0.0212635
0.0271156
0.0373767
0.0355323
0.0371356
0.0384923
0.0381215
0.0354276
0.0313569
0.0273804
0.0245591
0.0233588
0.023833
0.02577
0.0286541
0.0315868
0.0337575
0.0381624
0.0450271
0.0394956
0.0375822
0.0343877
0.0299732
0.0247271
0.0201113
0.0176496
0.0179118
0.0206067
0.0250311
0.0303672
0.0357769
0.0401133
0.0422629
0.0467729
0.0460551
0.0365415
0.0307631
0.0214406
0.0111343
0.00334644
-0.00040032
-2.67873e-05
0.00387787
0.010405
0.0184706
0.0269771
0.0348918
0.0408773
0.0435734
0.0495804
0.0404993
0.0292505
0.0258222
0.023489
0.0210969
0.0158351
0.00732859
-0.000198576
-0.00271999
0.000644398
0.00841404
0.0182715
0.0280852
0.0356543
0.0390148
0.0458905
0.0195538
0.00861065
0.00640722
0.00613339
0.00386888
-0.00426795
-0.0160442
-0.0256784
-0.0293949
-0.0267361
-0.0192727
-0.00922797
0.00172113
0.0105677
0.0150839
0.0234601
0.00194034
-0.00816996
-0.0126572
-0.0175269
-0.0238015
-0.0312205
-0.0379877
-0.0419998
-0.0418803
-0.0375075
-0.0298251
-0.020402
-0.0110084
-0.00394969
-0.000944525
0.00456058
-0.0104759
-0.0186116
-0.0218199
-0.0228353
-0.0231204
-0.0254855
-0.0306446
-0.0363714
-0.039824
-0.0392793
-0.0346147
-0.0272143
-0.0193051
-0.0134276
-0.0113031
-0.00891734
-0.0180231
-0.0233827
-0.0247976
-0.0232364
-0.0207926
-0.0208409
-0.0251376
-0.0318163
-0.037565
-0.0397325
-0.0373058
-0.031346
-0.0244825
-0.019517
-0.0180411
-0.0178366
-0.021086
-0.0239811
-0.0235593
-0.0210378
-0.0184151
-0.0184553
-0.0227195
-0.02985
-0.0366842
-0.040196
-0.0388402
-0.0334871
-0.0270284
-0.0225024
-0.021309
-0.0218548
-0.0202906
-0.0213339
-0.0193823
-0.0163267
-0.0141686
-0.0149692
-0.0197157
-0.0272252
-0.0346388
-0.0388864
-0.0381914
-0.0332306
-0.0269366
-0.0225324
-0.0212528
-0.0213588
-0.0161229
-0.0157247
-0.0124715
-0.00885734
-0.00686439
-0.00810309
-0.0131251
-0.0208033
-0.0286007
-0.0335809
-0.0338418
-0.0297639
-0.0240078
-0.0196849
-0.0180262
-0.0170173
-0.00898501
-0.00728304
-0.00289061
0.0014551
0.00381395
0.00277646
-0.00202213
-0.0095586
-0.0176165
-0.0234977
-0.0252355
-0.0227834
-0.0181835
-0.0141528
-0.0119105
-0.00962525
0.000310748
0.00314396
0.00836584
0.013405
0.0163666
0.0159185
0.011766
0.00478609
-0.00316853
-0.00976139
-0.0130836
-0.0126583
-0.00972428
-0.00632972
-0.00356425
-0.000165709
0.0105806
0.0139208
0.0193334
0.0246076
0.02793
0.0280225
0.0247024
0.018737
0.0115749
0.00509271
0.00089535
-0.000276377
0.00100768
0.00346351
0.0062961
0.0102127
0.0207523
0.0233367
0.0279311
0.0325657
0.0354714
0.0356121
0.0330255
0.0284645
0.0230296
0.0179133
0.0142836
0.0127679
0.0131898
0.0148117
0.0171049
0.0206179
0.030113