/*--------------------------------*- C++ -*----------------------------------*\
| =========                 |                                                 |
| \\      /  F ield         | OpenFOAM: The Open Source CFD Toolbox           |
|  \\    /   O peration     | Version:  3.0.0                                 |
|   \\  /    A nd           | Web:      www.OpenFOAM.org                      |
|    \\/     M anipulation  |                                                 |
\*---------------------------------------------------------------------------*/
FoamFile
{
    version     2.0;
    format      ascii;
    class       surfaceScalarField;
    location    "8";
    object      phi;
}
// * * * * * * * * * * * * * * * * * * * * * * * * * * * * * * * * * * * * * //

dimensions      [0 3 -1 0 0 0 0];

internalField   nonuniform List<scalar> 
11520
(
-0.000420785
-0.000517827
0.000208081
-0.000391282
-0.00046937
0.000296671
-0.000322555
-0.000436021
0.000379083
-0.000217349
-0.000395358
0.000450127
-8.5772e-05
-0.000342794
0.000504311
5.17978e-05
-0.000280725
0.000532259
0.000165836
-0.000215343
0.000520226
0.000226318
-0.000156464
0.000455889
0.00021827
-0.000119258
0.000343514
0.000150629
-0.000119545
0.00021095
4.71366e-05
-0.000159418
9.29902e-05
-6.86509e-05
-0.000223231
1.27498e-05
-0.000180276
-0.000290166
-2.16208e-05
-0.000278017
-0.000346393
-1.31224e-05
-0.000355903
-0.000389566
2.72316e-05
-0.000414304
7.65187e-05
-0.000550135
-0.000476381
3.11052e-05
-0.000528286
-0.000446928
0.000125242
-0.000459689
-0.000431185
0.000223543
-0.00034955
-0.00040353
0.000324318
-0.000206055
-0.000357864
0.000421189
-4.4828e-05
-0.000294417
0.000502284
0.000108411
-0.000217331
0.000549121
0.000218807
-0.000135569
0.000537996
0.000254095
-6.67404e-05
0.000454509
0.000205859
-3.60241e-05
0.000315542
9.42461e-05
-5.68237e-05
0.000164036
-4.9613e-05
-0.000116642
3.80797e-05
-0.00019849
-0.000190099
-4.40018e-05
-0.000332822
-0.000257919
-8.00376e-05
-0.000441339
-0.000314222
-7.77647e-05
-0.000350709
-5.35262e-05
-0.000661257
-0.000371426
-0.000154767
-0.000642151
-0.000377057
-6.08678e-05
-0.000571727
-0.000388544
4.20071e-05
-0.000457202
-0.000382432
0.000157695
-0.000306687
-0.000351364
0.000280608
-0.000133089
-0.000293653
0.000399419
4.31227e-05
-0.000211047
0.000495912
0.000190294
-0.000110015
0.000542913
0.000267686
-7.31995e-06
0.000510447
0.000247524
6.5267e-05
0.000392863
0.000138065
7.96792e-05
0.000227704
-2.59293e-05
3.87366e-05
6.63312e-05
-0.000206643
-3.17761e-05
-5.85795e-05
-0.000374263
-0.000107789
-0.00013719
-0.000511327
-0.000178719
-0.000172801
-0.000232415
-0.000171601
-0.000727916
-0.000220517
-0.00033164
-0.000708989
-0.000272965
-0.000248464
-0.000637475
-0.000318183
-0.000155784
-0.000521016
-0.000338222
-4.26937e-05
-0.000369172
-0.000327138
8.70832e-05
-0.000193624
-0.000281198
0.000224541
-1.11424e-05
-0.000199718
0.00035438
0.000152623
-8.60182e-05
0.000452033
0.000259092
4.68111e-05
0.000481507
0.000268139
0.000165618
0.000413759
0.000171445
0.000228156
0.00026476
1.91749e-07
0.000220508
8.94746e-05
-0.000200436
0.000163241
-6.50474e-05
-0.000391393
8.35474e-05
-0.000178462
-0.000549277
-1.70942e-06
-0.000248455
-7.66671e-05
-0.000269699
-0.000734569
-4.96085e-05
-0.000470086
-0.000715393
-0.000153394
-0.000409541
-0.000643393
-0.000233674
-0.000340385
-0.000528695
-0.000282562
-0.000247289
-0.000380764
-0.000294258
-0.000130328
-0.00021106
-0.00026391
4.63425e-06
-3.43694e-05
-0.000188935
0.000147252
0.000128871
-6.94661e-05
0.000278268
0.000246735
8.64213e-05
0.000364904
0.000277541
0.000249124
0.00036441
0.000199015
0.000366881
0.000262446
3.27289e-05
0.000404782
0.000100797
-0.000174106
0.000370889
-6.38338e-05
-0.000376128
0.000292869
-0.000199038
-0.000544293
0.000194193
-0.000295365
9.61228e-05
-0.000337961
-0.00066988
0.000109593
-0.000537269
-0.00065092
-4.10795e-05
-0.000510455
-0.000581832
-0.000154514
-0.000474909
-0.000473255
-0.000230559
-0.000415074
-0.000334983
-0.00026454
-0.000327955
-0.000177905
-0.000250879
-0.000215049
-1.48512e-05
-0.000185227
-8.19784e-05
0.000137396
-6.5002e-05
5.9615e-05
0.00025332
0.000106588
0.000185502
0.000295624
0.000306655
0.000251729
0.000234796
0.000480115
0.000218272
8.16406e-05
0.000571002
9.80133e-05
-0.00011937
0.000568272
-5.40276e-05
-0.00032013
0.000496401
-0.000194228
-0.000487666
0.000385227
-0.000304669
0.000262603
-0.000365496
-0.000529108
0.000226962
-0.000510794
-0.00051273
4.28195e-05
-0.000524182
-0.000451661
-9.69381e-05
-0.000527156
-0.000355992
-0.000194667
-0.000508851
-0.000234999
-0.000246949
-0.000463707
-9.80716e-05
-0.000248422
-0.000388695
4.43623e-05
-0.000193448
-0.000283909
0.000179347
-7.66574e-05
-0.000154327
0.000287137
0.000103368
-1.50548e-05
0.000336004
0.000331545
0.000100107
0.000293113
0.000555846
0.000139638
0.000158802
0.000702473
8.26075e-05
-2.7117e-05
0.000735578
-3.39271e-05
-0.000216088
0.000672106
-0.000160235
-0.000372874
0.000547861
-0.00026956
0.000398438
-0.000342775
-0.000321613
0.000283849
-0.000394447
-0.000311871
8.48809e-05
-0.000444139
-0.000265545
-6.97264e-05
-0.000484547
-0.00019099
-0.000179452
-0.000510558
-9.5991e-05
-0.000242815
-0.000513852
1.22932e-05
-0.000255911
-0.000486235
0.000126528
-0.00021245
-0.000422287
0.000237999
-0.000104475
-0.0003216
0.000333556
7.40918e-05
-0.000191763
0.000389219
0.000316425
-5.56141e-05
0.000371389
0.000579398
4.1639e-05
0.000266992
0.000779737
5.65241e-05
0.000106676
0.000852774
-4.63781e-06
-6.13774e-05
0.000799904
-9.78993e-05
-0.00019981
0.000661808
-0.00019019
0.000482918
-0.00026637
-7.75099e-05
0.000280623
-0.000223879
-7.90784e-05
8.31988e-05
-0.000291741
-5.40305e-05
-7.2032e-05
-0.000360747
-7.53293e-06
-0.000181368
-0.000427364
5.46834e-05
-0.000246348
-0.000479177
0.000127637
-0.000266033
-0.000501646
0.000206709
-0.000234318
-0.000483256
0.000287394
-0.000141106
-0.000419133
0.000363457
2.36468e-05
-0.000312726
0.000421492
0.000260348
-0.000179066
0.000434905
0.000538077
-5.16704e-05
0.000378733
0.00077777
2.37976e-05
0.000263406
0.000892275
2.69445e-05
0.000129996
0.000856679
-1.8147e-05
1.68561e-05
0.000709467
-7.94688e-05
0.000503914
-0.000145505
0.000154838
0.000231303
-4.75174e-05
0.000138914
4.60204e-05
-0.000108043
0.00013967
-9.61819e-05
-0.00018939
0.000155863
-0.000192916
-0.000285432
0.000184084
-0.000250046
-0.000378516
0.000220201
-0.000270316
-0.000446838
0.000260941
-0.000249036
-0.000472074
0.000304905
-0.000174988
-0.000444871
0.000351785
-3.54374e-05
-0.000366135
0.000398687
0.000175314
-0.000247487
0.0004333
0.00043626
-0.000114303
0.00043274
0.000683122
-5.2538e-06
0.000384924
0.000825502
5.15076e-05
0.000308516
0.000813777
5.82122e-05
0.000233777
0.00067174
3.69979e-05
0.000456831
-3.51282e-06
0.000321982
0.000147405
0.000104218
0.000294433
-1.58508e-05
6.87616e-05
0.000274734
-0.000133289
-7.79243e-06
0.000265772
-0.000207874
-0.000116843
0.000266056
-0.000249856
-0.000237037
0.000270802
-0.000264874
-0.000340605
0.000276255
-0.000250818
-0.000402736
0.000282595
-0.000197096
-0.000409368
0.000293921
-8.96469e-05
-0.000358826
0.000316202
7.92126e-05
-0.000260849
0.000350987
0.000295672
-0.000137158
0.000388426
0.000511188
-1.93226e-05
0.000409036
0.000650559
6.63738e-05
0.000404672
0.000657297
0.000113323
0.000383025
0.000536645
0.000133718
0.000341441
0.00013352
0.000386393
3.23894e-05
0.00022462
0.000356749
-9.54494e-05
0.000217214
0.000328106
-0.000178333
0.000156943
0.000306234
-0.000225372
5.15955e-05
0.000291568
-0.000247205
-7.7399e-05
0.000277006
-0.00025225
-0.000200842
0.000257096
-0.000240987
-0.00029001
0.0002323
-0.000205266
-0.000326657
0.000210501
-0.000132259
-0.000305627
0.000204186
-1.39936e-05
-0.000234134
0.00022461
0.00014086
-0.000130437
0.00027346
0.000298136
-2.03835e-05
0.000335112
0.000404436
7.47828e-05
0.00038706
0.000414118
0.000146224
0.000414237
0.0003226
0.000200478
0.000170576
0.000242377
0.000343628
-0.000106799
0.000312109
0.0003224
-0.000187271
0.000327317
0.000299063
-0.000230111
0.000289036
0.000281736
-0.000246705
0.00020207
0.000269047
-0.00024721
8.29241e-05
0.000252087
-0.00023952
-4.25109e-05
0.000222702
-0.000226243
-0.000146769
0.000180657
-0.000203533
-0.000209301
0.000136238
-0.000162176
-0.00022049
0.000106555
-9.52338e-05
-0.000182419
0.000108225
-6.71208e-06
-0.000107692
0.00014816
8.35107e-05
-1.58642e-05
0.000215514
0.000142985
7.67795e-05
0.000285924
0.000143171
0.000160491
0.000334679
7.86937e-05
0.000236154
-2.43129e-05
0.000307228
0.000218511
-0.000252398
0.000358392
0.000210726
-0.000282526
0.000391102
0.00020427
-0.000287724
0.00037811
0.000206494
-0.000276357
0.000320852
0.000213633
-0.000256131
0.000229175
0.000213698
-0.000234111
0.000120419
0.000194171
-0.000214511
1.53074e-05
0.000152781
-0.000197309
-6.67519e-05
9.96794e-05
-0.000179226
-0.000111498
5.43249e-05
-0.000155889
-0.00011294
3.53766e-05
-0.000126296
-7.53504e-05
5.2014e-05
-9.74151e-05
-1.07771e-05
9.69424e-05
-8.32081e-05
6.88141e-05
0.000150389
-9.68151e-05
0.000152899
0.000190516
-0.000141339
0.000236613
-0.000204153
0.000317727
4.55652e-05
-0.000381867
0.000355407
5.08068e-05
-0.000369991
0.000403276
6.59347e-05
-0.000347507
0.000417992
9.66016e-05
-0.000315502
0.000398351
0.00013675
-0.000277737
0.000347886
0.00017075
-0.000240342
0.00027332
0.000180629
-0.000208835
0.000184017
0.000157719
-0.000187654
9.31076e-05
0.000108537
-0.000179956
1.75679e-05
5.26216e-05
-0.000185217
-2.69284e-05
1.00899e-05
-0.000199435
-3.37139e-05
-7.63706e-06
-0.000218166
-5.89363e-06
-2.83037e-06
-0.000240438
4.86818e-05
1.21256e-05
-0.00026792
0.000120264
2.42124e-05
-0.000301978
0.000199319
-0.000339234
0.00027541
-0.000130158
0.000304339
-0.000117778
0.000365864
-8.42163e-05
0.000407135
-2.69339e-05
0.000426329
4.74363e-05
0.000422707
0.00012213
0.000394064
0.000173537
0.000336973
0.000182829
0.000252936
0.000147884
0.00015593
8.48324e-05
6.99235e-05
1.64919e-05
1.51765e-05
-4.06613e-05
-5.78817e-07
-8.1611e-05
1.99982e-05
-0.000110252
6.86385e-05
-0.000132147
0.000133468
0.000196984
-0.000570114
-0.000343368
0.000207622
-0.000551198
-0.000283615
0.000254825
-0.000494209
-0.000248951
0.000301216
-0.000400949
-0.000220878
0.00033728
-0.000279259
-0.000196105
0.000361555
-0.000146759
-0.000175173
0.000372311
-3.00792e-05
-0.000158629
0.000363745
4.11072e-05
-0.000148266
0.00032742
4.76632e-05
-0.000150038
0.000261405
-6.81884e-06
-0.000171056
0.000178486
-0.000100561
-0.000209244
0.000100402
-0.00020842
-0.000251349
4.50344e-05
-0.000312333
-0.000283172
2.11749e-05
-0.000402691
-0.00029871
2.87212e-05
-0.000476414
-0.000302277
6.07282e-05
-0.000294839
9.93982e-05
-0.000675603
-0.000255317
-1.01434e-05
-0.000662876
-0.000222531
5.14303e-05
-0.000603651
-0.000206934
0.000122301
-0.000503237
-0.000192727
0.000195753
-0.000369169
-0.000175492
0.000266508
-0.000216526
-0.000153247
0.000327716
-6.94434e-05
-0.00012494
0.000368349
3.9969e-05
-9.2563e-05
0.00037288
8.13264e-05
-6.57017e-05
0.000328815
4.44205e-05
-6.02623e-05
0.000241655
-5.38955e-05
-8.3243e-05
0.000136351
-0.000183994
-0.000123053
3.98817e-05
-0.000319295
-0.000160842
-3.10322e-05
-0.000441795
-0.000186306
-6.99421e-05
-0.000543719
-0.000200527
-7.75908e-05
-0.000203503
-5.97798e-05
-0.000742534
-0.000125052
-0.000227245
-0.00073222
-0.00013199
-0.000161723
-0.000671068
-0.000143805
-8.22731e-05
-0.000566295
-0.000150779
1.09736e-05
-0.000425276
-0.000147865
0.000111963
-0.000261052
-0.000130857
0.000212805
-9.41906e-05
-9.63537e-05
0.000300464
4.50204e-05
-4.43724e-05
0.000355512
0.000119673
1.52734e-05
0.000354819
0.000104731
5.93814e-05
0.000288162
7.56889e-06
6.72355e-05
0.000174388
-0.000140379
4.29269e-05
4.82993e-05
-0.000303081
6.42292e-06
-6.3142e-05
-0.000454219
-2.71143e-05
-0.000145243
-0.000580672
-5.42639e-05
-0.000192611
-7.35959e-05
-0.000197434
-0.000758082
2.33528e-05
-0.00041715
-0.00074782
-2.96708e-05
-0.000361046
-0.000684762
-7.2811e-05
-0.000289836
-0.000577638
-0.000104267
-0.000196329
-0.000434467
-0.000119507
-8.44451e-05
-0.000266871
-0.000112437
3.85256e-05
-9.20683e-05
-7.73985e-05
0.000160621
6.37441e-05
-1.12836e-05
0.000263132
0.000163381
7.94223e-05
0.000317722
0.000170639
0.000169402
0.000296481
7.97567e-05
0.000222532
0.000200346
-7.8422e-05
0.000226646
6.39344e-05
-0.000261308
0.000198965
-7.47029e-05
-0.000434585
0.000159401
-0.000191701
-0.000579594
0.000117331
-0.000275041
7.71568e-05
-0.000304859
-0.000716214
0.000163994
-0.000548813
-0.00070442
6.45719e-05
-0.000515577
-0.00063988
-1.10735e-05
-0.000466662
-0.000532933
-6.82027e-05
-0.000390299
-0.00039223
-0.000102861
-0.000287677
-0.000228486
-0.000108007
-0.000163541
-5.59448e-05
-7.63322e-05
-2.6355e-05
0.000104115
-1.51047e-06
0.000108435
0.000218589
0.000114569
0.000215283
0.000245629
0.000251542
0.00025523
0.000165728
0.000361316
0.000203562
4.25074e-06
0.000407641
8.12799e-05
-0.000191223
0.000397261
-6.66559e-05
-0.000379128
0.000354021
-0.000205754
-0.000535453
0.000295157
-0.000316867
0.000230585
-0.000372541
-0.000612668
0.000273853
-0.000591861
-0.000599399
0.000133693
-0.000592845
-0.000536023
2.66646e-05
-0.000576023
-0.000433697
-5.52994e-05
-0.000530304
-0.000301617
-0.000108796
-0.000454099
-0.000149366
-0.00012651
-0.000348796
1.17624e-05
-0.000100359
-0.00021908
0.000166274
-2.22258e-05
-7.41816e-05
0.000287273
0.000112269
6.68033e-05
0.000332966
0.000290977
0.000166601
0.00026968
0.000463789
0.000179085
0.000112256
0.000566406
9.66723e-05
-8.8076e-05
0.000582902
-3.93367e-05
-0.000283042
0.000538854
-0.000184095
-0.000443325
0.000461221
-0.00031045
0.000368643
-0.00038948
-0.000446443
0.000337689
-0.000529831
-0.000434215
0.000168119
-0.000570836
-0.000377448
3.44156e-05
-0.000591674
-0.000287044
-6.87577e-05
-0.000585796
-0.000172129
-0.000138514
-0.000548903
-4.06805e-05
-0.000168256
-0.000478398
9.94129e-05
-0.000149688
-0.000374674
0.000238421
-7.34216e-05
-0.000242139
0.000358565
6.93096e-05
-9.22399e-05
0.000424486
0.000277215
4.79483e-05
0.000390229
0.000509836
0.000127847
0.00025001
0.000681754
0.000107479
5.38926e-05
0.000738524
6.56882e-06
-0.000140933
0.000698116
-0.000124672
-0.000298734
0.000599971
-0.000250508
0.000474646
-0.000345868
-0.000226452
0.000351675
-0.000372921
-0.000220524
0.000167159
-0.000449106
-0.000178046
1.6049e-05
-0.000508659
-0.000108569
-0.000100737
-0.000548054
-2.03283e-05
-0.000181635
-0.000558972
8.0674e-05
-0.000221829
-0.000533664
0.000189846
-0.000213365
-0.000467782
0.000302717
-0.000145753
-0.00036214
0.000411369
-7.3645e-06
-0.000223741
0.000493628
0.000209313
-6.99709e-05
0.000503691
0.000481638
5.97746e-05
0.000407143
0.000724345
0.00011048
0.000234349
0.000839511
6.71688e-05
4.96402e-05
0.000814557
-2.96311e-05
-0.000100678
0.000697895
-0.000137796
0.00053582
-0.000237283
2.06566e-05
0.000323051
-0.000160551
1.34497e-05
0.00013632
-0.000253696
3.36515e-05
-1.88841e-05
-0.000346016
7.44469e-05
-0.000138032
-0.000430865
0.000129092
-0.000222343
-0.000493114
0.000193105
-0.000269991
-0.000517496
0.000264269
-0.000273639
-0.000494146
0.000342102
-0.000221703
-0.000421015
0.000425876
-0.000100325
-0.00030354
0.000508134
0.000102705
-0.000154716
0.000559944
0.000380252
-2.09449e-06
0.000533936
0.000667301
0.00010685
0.000420928
0.000846758
0.000132706
0.000270229
0.000857686
8.94235e-05
0.000136943
0.000736203
1.55096e-05
0.000543138
-7.12401e-05
0.000246935
0.000261892
5.61329e-05
0.000221871
8.28864e-05
-2.95444e-05
0.000215912
-6.15551e-05
-0.00014076
0.000225765
-0.000169903
-0.000263414
0.000246376
-0.000248497
-0.000372973
0.000273439
-0.000298941
-0.00044495
0.000305397
-0.000314757
-0.000462914
0.000343972
-0.000283239
-0.000421911
0.000392834
-0.000188502
-0.00032682
0.00045428
-1.63997e-05
-0.000189829
0.000519697
0.000233301
-3.27695e-05
0.000556986
0.000517011
0.000107747
0.000532146
0.000731973
0.000191132
0.000453548
0.000786692
0.000207804
0.00036202
0.000683788
0.000180942
0.000485777
0.000126441
0.000392744
0.000170507
0.000241247
0.000353538
1.20337e-05
0.00017882
0.000325554
-0.000106856
6.54924e-05
0.000310775
-0.000192634
-7.93323e-05
0.00030561
-0.000256826
-0.000223543
0.000304114
-0.000304199
-0.000333851
0.000303253
-0.000329476
-0.000387156
0.000305147
-0.000319194
-0.000375307
0.000316181
-0.000256017
-0.000302345
0.000344425
-0.000125063
-0.000180429
0.000394844
7.51875e-05
-2.94636e-05
0.000457759
0.000314186
0.000120588
0.000505132
0.000515503
0.000235471
0.000513902
0.000592741
0.000298504
0.000488386
0.000522716
0.000320305
0.000356121
0.000313175
0.000415804
4.77547e-05
0.000380672
0.00037392
-7.17088e-05
0.00034284
0.000336454
-0.000152887
0.000240439
0.000311223
-0.000208408
9.26011e-05
0.000295663
-0.000251917
-6.67479e-05
0.000280933
-0.000290407
-0.000199905
0.000260709
-0.000320149
-0.000279114
0.00023593
-0.000328
-0.000293072
0.000214816
-0.000296518
-0.000244011
0.000210054
-0.000211465
-0.000142971
0.000234449
-7.13799e-05
-8.26499e-06
0.00029197
0.000101093
0.000135188
0.000368745
0.000253778
0.000259733
0.000434467
0.000323967
0.000349275
0.000465524
0.000284342
0.000407795
0.000169586
0.00044533
0.000317656
-9.43547e-05
0.000467573
0.000284139
-0.000159552
0.000448678
0.00025229
-0.000197534
0.000365532
0.000233496
-0.000220675
0.000233131
0.000225084
-0.000241259
8.06789e-05
0.000215288
-0.000266755
-5.63672e-05
0.000193443
-0.00029518
-0.000149892
0.000157845
-0.000315342
-0.000186362
0.000117418
-0.000311628
-0.000164952
8.84239e-05
-0.00027149
-9.33997e-05
8.81412e-05
-0.000192755
1.39659e-05
0.000126023
-9.00982e-05
0.000137445
0.00019594
4.20519e-06
0.000256435
0.000271377
5.25141e-05
0.000356508
0.000321928
3.45112e-05
0.000435434
-3.05601e-05
0.000498291
0.000136821
-0.000228787
0.000493406
0.000116511
-0.000237826
0.000489686
0.000101345
-0.00023679
0.000432531
0.000102304
-0.000231729
0.000330947
0.000115765
-0.000231199
0.000205654
0.000127435
-0.000242002
8.39954e-05
0.000121905
-0.000263793
-1.05495e-05
9.3198e-05
-0.000288569
-6.48189e-05
4.85533e-05
-0.000304794
-7.36877e-05
5.737e-06
-0.000302241
-3.9373e-05
-1.58668e-05
-0.000276853
3.03512e-05
-5.05867e-06
-0.000234353
0.00012267
3.53134e-05
-0.000190438
0.000223085
8.62223e-05
-0.000164726
0.00031923
0.000123255
-0.000169191
0.000403283
-0.000197705
0.000470723
-7.82423e-05
-0.000326477
0.000453707
-8.59932e-05
-0.000291604
0.000464805
-8.00848e-05
-0.000263964
0.000439258
-5.26361e-05
-0.000240163
0.000379336
-8.69687e-06
-0.000223886
0.000296633
3.57064e-05
-0.000220459
0.000207374
6.07905e-05
-0.00023099
0.00012613
5.39923e-05
-0.000251752
6.30887e-05
1.77513e-05
-0.000276666
2.56815e-05
-3.15642e-05
-0.000298981
1.91278e-05
-7.37424e-05
-0.000312535
4.41472e-05
-9.54182e-05
-0.000314438
9.58669e-05
-9.55176e-05
-0.000307469
0.000165813
-8.51276e-05
-0.00029893
0.000244078
-7.83436e-05
-0.000296713
0.000320057
-0.000302811
0.000379805
-0.000276425
0.000356393
-0.000277843
0.000382224
-0.000253967
0.000389124
-0.000201645
0.000374309
-0.000127244
0.000341592
-4.74664e-05
0.000296448
1.43355e-05
0.000242611
3.80602e-05
0.000183009
1.8182e-05
0.000124732
-3.26913e-05
7.98171e-05
-9.34048e-05
5.89293e-05
-0.000147355
6.58576e-05
-0.00018845
9.79137e-05
-0.00021971
0.000148193
-0.00024698
0.000206528
0.000254571
-0.000614127
-0.000125784
0.000163763
-0.000600814
-5.86096e-05
0.000180201
-0.000556267
-1.60332e-05
0.000198525
-0.000482003
7.23416e-06
0.000206007
-0.000384492
1.06899e-05
0.000204917
-0.000278797
-6.23882e-06
0.000199958
-0.000185822
-4.07407e-05
0.000191444
-0.000127739
-8.71631e-05
0.000174935
-0.00011984
-0.000139086
0.000145197
-0.000161394
-0.000191082
0.000103905
-0.000236192
-0.000235558
6.05056e-05
-0.000322961
-0.000262319
2.66083e-05
-0.000405055
-0.000264235
1.12673e-05
-0.000474032
-0.000242177
1.81902e-05
-0.000529497
-0.000205487
4.56666e-05
-0.000165332
8.41173e-05
-0.00070253
-1.39638e-05
-7.26744e-05
-0.000695331
2.179e-05
-3.61688e-05
-0.00064772
4.4612e-05
1.40449e-05
-0.000564309
5.43528e-05
6.52233e-05
-0.000451473
5.1097e-05
0.000113265
-0.000322674
3.65063e-05
0.000156172
-0.000198694
1.47184e-05
0.000188909
-0.000105468
-9.98466e-06
0.000202476
-6.69015e-05
-3.59633e-05
0.000187126
-9.26021e-05
-6.51632e-05
0.000141437
-0.000171016
-9.62377e-05
7.5445e-05
-0.000278127
-0.000120172
4.8448e-06
-0.000390461
-0.000126919
-5.6014e-05
-0.000492036
-0.000113988
-9.65568e-05
-0.000577334
-8.75473e-05
-0.000110232
-5.81881e-05
-9.10161e-05
-0.000736474
0.000115573
-0.000298028
-0.00073098
0.00011123
-0.000256657
-0.000680192
0.000107092
-0.000195541
-0.000590199
9.62604e-05
-0.000120928
-0.000467719
7.9686e-05
-3.91059e-05
-0.000324745
6.18561e-05
4.44817e-05
-0.000180016
4.89876e-05
0.000121465
-5.9399e-05
4.60959e-05
0.000178814
7.29518e-06
5.22559e-05
0.000199906
-1.01283e-06
5.81292e-05
0.000173177
-8.05564e-05
5.46634e-05
0.00010303
-0.000205427
4.48736e-05
8.12465e-06
-0.000344953
3.97157e-05
-9.02502e-05
-0.000475427
4.52764e-05
-0.000174034
-0.000585514
5.93043e-05
-0.000229375
7.23121e-05
-0.000235728
-0.000719304
0.000240301
-0.000479955
-0.00071281
0.000193023
-0.000449333
-0.000657535
0.000158064
-0.000396082
-0.000561691
0.000123105
-0.000319018
-0.000432865
8.97167e-05
-0.000223302
-0.000282236
6.46071e-05
-0.000114855
-0.00012613
5.62512e-05
-2.74763e-06
1.2164e-05
7.20166e-05
9.89168e-05
0.000101284
0.000112005
0.000168853
0.000110468
0.000162523
0.000182903
3.28767e-05
0.00020099
0.00013161
-0.000106292
0.000217341
3.06357e-05
-0.000269209
0.000219983
-9.20533e-05
-0.000424452
0.000219139
-0.000210321
-0.000554735
0.000217879
-0.000303332
0.000210083
-0.000339984
-0.000651459
0.00034006
-0.000588766
-0.000642729
0.00025113
-0.000582415
-0.000583648
0.00018337
-0.000551049
-0.000484162
0.000122415
-0.000489095
-0.000353175
7.04138e-05
-0.000399361
-0.000201436
3.56017e-05
-0.000286274
-4.25324e-05
2.82303e-05
-0.000157238
0.000104227
5.79538e-05
-2.42619e-05
0.000210163
0.000129068
9.22843e-05
0.000238097
0.000229301
0.000160518
0.000167429
0.000324156
0.000151063
1.89405e-05
0.000381235
6.58749e-05
-0.000162833
0.000399321
-6.422e-05
-0.000338219
0.000393154
-0.000204382
-0.000483771
0.000373295
-0.000326731
0.00034056
-0.000395136
-0.000529725
0.000401492
-0.000599883
-0.00051988
0.000276476
-0.000628036
-0.000460999
0.000176267
-0.000627801
-0.000363969
8.91094e-05
-0.000594028
-0.000238575
1.80524e-05
-0.000527132
-9.47081e-05
-2.79674e-05
-0.000429094
5.68981e-05
-3.79363e-05
-0.000304519
0.000202597
-3.73397e-07
-0.000161553
0.000320171
9.36173e-05
-1.53198e-05
0.00037172
0.000239845
0.000104508
0.000319784
0.000401676
0.000153502
0.000171436
0.000518548
0.000107707
-2.28034e-05
0.000563824
-9.60083e-06
-0.000212918
0.000554647
-0.000155473
-0.000368537
0.000513049
-0.000294585
0.000450612
-0.000391754
-0.000352267
0.000419855
-0.000503505
-0.000344807
0.000268945
-0.000570765
-0.000293214
0.000140808
-0.000607809
-0.000208296
3.05811e-05
-0.000612187
-9.98124e-05
-5.78069e-05
-0.000581527
2.3977e-05
-0.000115755
-0.0005144
0.000155827
-0.00013232
-0.000412141
0.000288116
-9.51863e-05
-0.000279615
0.000408274
7.95325e-06
-0.000126733
0.00048711
0.000183478
2.54794e-05
0.000474802
0.000407565
0.000134266
0.000348966
0.000602823
0.000149041
0.000154637
0.000696523
6.81986e-05
-4.35076e-05
0.000691982
-6.38622e-05
-0.000204286
0.000627018
-0.000203699
0.000529031
-0.000320994
-0.000127875
0.000399833
-0.000313973
-0.000128531
0.000235599
-0.000415104
-9.29437e-05
8.93021e-05
-0.00049274
-3.08052e-05
-3.62174e-05
-0.000543394
4.89218e-05
-0.000136977
-0.000559529
0.00014047
-0.000206369
-0.000534598
0.000240039
-0.000233632
-0.000466039
0.000345262
-0.000206054
-0.000356495
0.00045284
-0.000109636
-0.00021373
0.000549112
6.92111e-05
-5.19759e-05
0.000591619
0.000326651
9.81815e-05
0.000526434
0.000597091
0.000181397
0.000362819
0.000765648
0.00016166
0.000171155
0.000787329
6.66861e-05
1.01735e-05
0.000705423
-5.52188e-05
0.00056836
-0.00017749
0.000116104
0.000352391
-7.01149e-05
0.000100421
0.000185804
-0.000188218
0.00011207
3.55512e-05
-0.000303914
0.000143009
-9.27474e-05
-0.000405274
0.000186302
-0.000198413
-0.000474972
0.000237915
-0.000276899
-0.000498579
0.000296965
-0.000317988
-0.00046884
0.000364986
-0.000308168
-0.000386922
0.000444486
-0.000231971
-0.000260705
0.000534842
-7.30603e-05
-0.000102802
0.000616349
0.000177439
6.56112e-05
0.000635326
0.000482273
0.000202691
0.000551752
0.000725016
0.000256912
0.000403063
0.000802369
0.000223072
0.000257291
0.000726828
0.000139876
0.000561636
3.3678e-05
0.0003293
0.000284626
0.000177931
0.000295194
0.000125533
6.48319e-05
0.000279801
-1.17803e-05
-7.80349e-05
0.000278304
-0.000128326
-0.000226339
0.000285212
-0.000229068
-0.000349225
0.000297318
-0.000312428
-0.000421527
0.000315125
-0.000368244
-0.000430466
0.00034252
-0.000381447
-0.000376027
0.000385222
-0.000334547
-0.000266945
0.000448665
-0.000209762
-0.000116571
0.0005316
4.62427e-06
5.71105e-05
0.000607447
0.000290358
0.000223815
0.000624646
0.000560203
0.000338745
0.000566912
0.000692698
0.00037521
0.000473189
0.000652053
0.000349439
0.00049395
0.000283984
0.000447789
0.000191894
0.000388363
0.000401324
5.59098e-05
0.000294908
0.000365433
-5.18397e-05
0.000141443
0.00033999
-0.000142517
-3.96969e-05
0.000320779
-0.000228317
-0.000205083
0.000303467
-0.000310469
-0.000318497
0.000288056
-0.000378712
-0.000361277
0.000279248
-0.000415842
-0.000332103
0.000284614
-0.00040197
-0.000240289
0.000312808
-0.00031847
-9.99148e-05
0.000370991
-0.000154529
7.15068e-05
0.000455358
7.75301e-05
0.000249048
0.000535842
0.000317748
0.000397441
0.000573487
0.000466234
0.000487324
0.000559696
0.00046575
0.000520399
0.000352949
0.000511699
0.000429578
7.1462e-05
0.000536338
0.000383986
-2.01406e-05
0.000464482
0.000341702
-8.55773e-05
0.00031646
0.000308895
-0.00014186
0.000124751
0.000281483
-0.000205055
-6.25992e-05
0.000252422
-0.0002792
-0.000202113
0.000219301
-0.000354487
-0.000270217
0.000186154
-0.000411953
-0.000263815
0.000161766
-0.000429801
-0.000191791
0.000157571
-0.000389303
-6.79426e-05
0.000185252
-0.000281407
9.09317e-05
0.000251406
-0.000116527
0.000263092
0.00034466
6.36804e-05
0.000420546
0.000431076
0.000190901
0.000538192
0.000476988
0.000216224
0.000611409
0.000160393
0.000650063
0.000285432
-5.85643e-05
0.000609071
0.000250688
-9.12729e-05
0.000554554
0.00021664
-0.00011107
0.000425073
0.000193407
-0.000132301
0.000246805
0.000176457
-0.000170404
6.29785e-05
0.000155312
-0.00023135
-8.30726e-05
0.000123549
-0.00030687
-0.000165745
8.28565e-05
-0.000377819
-0.000179803
4.22263e-05
-0.00042196
-0.000132164
1.54774e-05
-0.000421358
-3.45961e-05
1.73535e-05
-0.000367805
9.8488e-05
5.78333e-05
-0.00026889
0.000249328
0.00013311
-0.000151783
0.000396622
0.00021825
-5.82945e-05
0.000520563
0.000278775
-2.05358e-05
0.000611669
-3.10945e-05
0.000671651
6.60033e-05
-0.000165148
0.000600583
4.4676e-05
-0.000141711
0.000561451
2.76525e-05
-0.000123268
0.000461753
2.5093e-05
-0.000116318
0.000317524
3.1733e-05
-0.000132444
0.000161054
3.43466e-05
-0.000178294
2.83265e-05
2.15846e-05
-0.000247617
-5.70404e-05
-9.50617e-06
-0.000323447
-8.81e-05
-5.12417e-05
-0.00038542
-6.84916e-05
-8.94872e-05
-0.00041661
-5.8747e-06
-0.000107856
-0.000408643
8.95586e-05
-9.53181e-05
-0.000364268
0.00020551
-5.29163e-05
-0.000298404
0.000327304
2.16044e-06
-0.000234133
0.000439992
4.52655e-05
-0.000191516
0.000531159
-0.000173462
0.00059176
-0.000171437
-0.000218854
0.000513054
-0.000182497
-0.000156778
0.000490932
-0.000180459
-0.000115308
0.00042926
-0.000158257
-9.20553e-05
0.000332872
-0.000121744
-9.37027e-05
0.000221378
-8.61552e-05
-0.000125814
0.000119305
-6.77454e-05
-0.000184401
4.45037e-05
-7.54606e-05
-0.00025641
3.7664e-06
-0.00010668
-0.000325337
-3.18211e-06
-0.000148286
-0.0003767
2.08244e-05
-0.000183525
-0.000400899
7.16418e-05
-0.000200189
-0.000395087
0.00014335
-0.000196274
-0.000364339
0.000227832
-0.00018119
-0.000320147
0.000315008
-0.000169349
-0.000276459
0.000393158
-0.000242915
0.000445704
-0.000380421
0.000359698
-0.00038853
0.000353476
-0.000371002
0.000330466
-0.000324967
0.000285993
-0.000257747
0.000229106
-0.000186456
0.000172239
-0.00013198
0.0001238
-0.000109788
8.59731e-05
-0.000123277
6.02783e-05
-0.000162195
4.9251e-05
-0.000209756
5.58441e-05
-0.000252374
8.09019e-05
-0.000284762
0.0001222
-0.000309518
0.000174486
-0.000333162
0.000229727
0.000271644
-0.000549515
7.6482e-05
8.79124e-05
-0.000539245
0.000154575
9.35787e-05
-0.000507845
0.000211616
9.66865e-05
-0.000456526
0.000238299
8.52762e-05
-0.000391134
0.000227757
6.58119e-05
-0.000323852
0.000178249
4.8645e-05
-0.000268176
9.71638e-05
3.81597e-05
-0.00023706
-2.03069e-06
3.07738e-05
-0.000238003
-0.000100319
2.04649e-05
-0.000269723
-0.000184493
3.64065e-06
-0.000322223
-0.00024124
-1.82054e-05
-0.000381019
-0.000261828
-3.86683e-05
-0.0004337
-0.000243795
-4.90934e-05
-0.000474078
-0.000192718
-4.23426e-05
-0.000503357
-0.000120963
-1.52757e-05
-4.84144e-05
2.94684e-05
-0.000620452
0.000190598
-0.000147702
-0.000617611
0.000238133
-0.000122568
-0.000584393
0.000275838
-8.33951e-05
-0.000523272
0.000288718
-4.63171e-05
-0.000439072
0.000271593
-1.47705e-05
-0.000343033
0.000225328
1.30527e-05
-0.0002513
0.000157416
3.69236e-05
-0.000182854
7.96293e-05
5.23708e-05
-0.000153386
4.52339e-06
5.28151e-05
-0.000170297
-5.90469e-05
3.29013e-05
-0.000227029
-0.000102401
-6.66127e-06
-0.000306774
-0.000118379
-5.8859e-05
-0.000391124
-0.000103245
-0.000112214
-0.000466615
-6.01607e-05
-0.000153624
-0.000528584
1.51721e-06
-0.000170744
6.22234e-05
-0.000148874
-0.000635226
0.000300985
-0.000357688
-0.000634167
0.000312659
-0.000332243
-0.000595563
0.000324405
-0.000282711
-0.000523968
0.000317268
-0.000221073
-0.000424838
0.000287719
-0.000154362
-0.00030879
0.000239699
-8.59369e-05
-0.000191937
0.000182447
-2.04176e-05
-9.49912e-05
0.000127207
3.42909e-05
-4.00116e-05
8.2663e-05
6.67869e-05
-4.31999e-05
5.17337e-05
6.55849e-05
-0.000103547
3.46436e-05
2.63334e-05
-0.000203037
3.34707e-05
-4.42358e-05
-0.000316856
5.17126e-05
-0.000131389
-0.000424248
8.8597e-05
-0.0002154
-0.000514035
0.000137955
-0.000276026
0.000182627
-0.000285666
-0.000605604