/*--------------------------------*- C++ -*----------------------------------*\
| =========                 |                                                 |
| \\      /  F ield         | OpenFOAM: The Open Source CFD Toolbox           |
|  \\    /   O peration     | Version:  3.0.0                                 |
|   \\  /    A nd           | Web:      www.OpenFOAM.org                      |
|    \\/     M anipulation  |                                                 |
\*---------------------------------------------------------------------------*/
FoamFile
{
    version     2.0;
    format      ascii;
    class       volVectorField;
    location    "8";
    object      U;
}
// * * * * * * * * * * * * * * * * * * * * * * * * * * * * * * * * * * * * * //

dimensions      [0 1 -1 0 0 0 0];

internalField   nonuniform List<vector> 
4096
(
(-0.116543 -0.140549 0.0496609)
(-0.104204 -0.12619 0.0762386)
(-0.0936462 -0.115816 0.100423)
(-0.0711605 -0.103685 0.121114)
(-0.0397422 -0.0887554 0.136859)
(-0.00375242 -0.0720144 0.144836)
(0.0303028 -0.0555749 0.141182)
(0.0541503 -0.0424268 0.122706)
(0.0612081 -0.0362779 0.0908228)
(0.0505736 -0.039828 0.0531697)
(0.027132 -0.0522234 0.0192708)
(-0.00232037 -0.0691891 -0.00420088)
(-0.0323268 -0.085924 -0.014518)
(-0.0599867 -0.0994869 -0.0122285)
(-0.0846789 -0.109668 -0.000538079)
(-0.0948006 -0.115734 0.0145751)
(-0.15007 -0.128764 0.0116246)
(-0.137995 -0.118066 0.0392326)
(-0.129105 -0.111347 0.0668139)
(-0.106061 -0.102375 0.0942236)
(-0.0726229 -0.0897061 0.119917)
(-0.0323408 -0.0735816 0.140706)
(0.00974157 -0.0552383 0.151787)
(0.045666 -0.0371642 0.147129)
(0.0658355 -0.0239044 0.123121)
(0.0639626 -0.0208553 0.0841638)
(0.0418202 -0.0296028 0.0417218)
(0.00710167 -0.0461287 0.00647424)
(-0.0319463 -0.0643817 -0.0159461)
(-0.0697322 -0.0801486 -0.0247329)
(-0.103882 -0.0924593 -0.0224408)
(-0.117201 -0.0995932 -0.0141171)
(-0.180202 -0.111519 -0.0308155)
(-0.166333 -0.107684 -0.00289406)
(-0.158224 -0.106699 0.0260665)
(-0.134409 -0.10204 0.0572956)
(-0.0995604 -0.091934 0.0894308)
(-0.0570241 -0.0761521 0.119426)
(-0.0107122 -0.0553968 0.142642)
(0.0329481 -0.0316184 0.152338)
(0.0641627 -0.00943744 0.141064)
(0.072437 0.0034175 0.107447)
(0.0544516 0.00173206 0.0613159)
(0.0168936 -0.0120353 0.0167183)
(-0.0295328 -0.0310339 -0.0169313)
(-0.0763453 -0.0496582 -0.0366493)
(-0.119312 -0.0658944 -0.0438825)
(-0.136039 -0.076976 -0.0417981)
(-0.198282 -0.0776682 -0.0742333)
(-0.183112 -0.0845645 -0.0484174)
(-0.175244 -0.0915619 -0.0215165)
(-0.151014 -0.0931466 0.00949505)
(-0.115761 -0.0875641 0.0438151)
(-0.0729443 -0.074093 0.0788312)
(-0.0259035 -0.0528437 0.110524)
(0.0203368 -0.0250249 0.132739)
(0.0576843 0.00551045 0.136642)
(0.0745549 0.0300535 0.11518)
(0.0627213 0.0393183 0.0728196)
(0.0256411 0.0322769 0.0243187)
(-0.0248942 0.0153066 -0.0172496)
(-0.0778462 -0.00489499 -0.0460988)
(-0.127106 -0.0249242 -0.0621768)
(-0.146717 -0.0410503 -0.0661552)
(-0.199585 -0.0346518 -0.111281)
(-0.184866 -0.0545022 -0.0908424)
(-0.176734 -0.0704814 -0.0697647)
(-0.152617 -0.0792481 -0.0433485)
(-0.118098 -0.0792699 -0.0116658)
(-0.07662 -0.0694263 0.0235104)
(-0.0312799 -0.0492779 0.0591387)
(0.0137299 -0.0192373 0.0902628)
(0.0521564 0.0180263 0.108581)
(0.073854 0.0543001 0.103669)
(0.068124 0.0771439 0.0727919)
(0.0342532 0.0804054 0.0274785)
(-0.0168294 0.0681926 -0.0169398)
(-0.0724404 0.0477393 -0.051645)
(-0.124659 0.0241621 -0.0746967)
(-0.146756 0.00219917 -0.0843159)
(-0.180874 0.0092908 -0.132647)
(-0.168882 -0.0235871 -0.120947)
(-0.160394 -0.0485266 -0.108725)
(-0.137356 -0.064604 -0.0908402)
(-0.104929 -0.0705014 -0.0665258)
(-0.0663956 -0.0648541 -0.0363814)
(-0.0245832 -0.0467565 -0.00209445)
(0.0169431 -0.0158948 0.0329845)
(0.0532402 0.0263094 0.0622391)
(0.0761755 0.0730418 0.0744813)
(0.074956 0.11029 0.0606492)
(0.0455676 0.126358 0.0256349)
(-0.00317166 0.121243 -0.0156929)
(-0.0580597 0.101845 -0.0518828)
(-0.109742 0.0750106 -0.078812)
(-0.133967 0.0467716 -0.0930701)
(-0.141224 0.0459571 -0.130934)
(-0.133994 0.00235767 -0.130183)
(-0.125712 -0.030534 -0.128368)
(-0.105284 -0.0531146 -0.121622)
(-0.0768619 -0.0643621 -0.108394)
(-0.0432626 -0.0628341 -0.0879258)
(-0.00685413 -0.0472346 -0.0603226)
(0.0295249 -0.0165603 -0.0271095)
(0.0621118 0.0289658 0.00734154)
(0.0846335 0.0843774 0.0333802)
(0.0871019 0.135536 0.0384388)
(0.063012 0.165588 0.0193553)
(0.0186901 0.169043 -0.0129408)
(-0.0327045 0.151549 -0.0456567)
(-0.0807168 0.121489 -0.0724884)
(-0.106296 0.0866176 -0.0896488)
(-0.0841673 0.0687652 -0.105828)
(-0.0823535 0.0187754 -0.115184)
(-0.0757414 -0.0197266 -0.123316)
(-0.0598855 -0.0469362 -0.12839)
(-0.0376748 -0.0621747 -0.12819)
(-0.0112402 -0.0641868 -0.120485)
(0.0176666 -0.0514121 -0.103682)
(0.0470928 -0.0221502 -0.0775831)
(0.0745754 0.0245755 -0.04445)
(0.0959788 0.0859694 -0.0111586)
(0.103066 0.149435 0.0099493)
(0.086921 0.193977 0.00938637)
(0.0498789 0.206969 -0.00883954)
(0.00450566 0.19164 -0.033135)
(-0.0375458 0.157969 -0.0556882)
(-0.0628777 0.115866 -0.0732707)
(-0.0189396 0.0754323 -0.0663555)
(-0.0212621 0.0237652 -0.0808105)
(-0.0183844 -0.016871 -0.0959916)
(-0.00893104 -0.0457834 -0.111302)
(0.00534134 -0.06285 -0.123814)
(0.0229274 -0.067369 -0.129689)
(0.042605 -0.0576999 -0.125539)
(0.0632525 -0.0315056 -0.109606)
(0.0837145 0.0133162 -0.0826363)
(0.102126 0.0760771 -0.0491222)
(0.113576 0.14734 -0.0188286)
(0.109024 0.205305 -0.00319079)
(0.0848005 0.229406 -0.00508247)
(0.0496777 0.217323 -0.0172068)
(0.0157832 0.180096 -0.0319892)
(-0.00640869 0.130366 -0.0468846)
(0.041262 0.0683972 -0.0253385)
(0.0371942 0.0183988 -0.0378332)
(0.0347856 -0.0206339 -0.0552504)
(0.0370549 -0.047867 -0.0770908)
(0.0430358 -0.0641741 -0.0996777)
(0.0515083 -0.0697374 -0.117607)
(0.061444 -0.0631083 -0.125633)
(0.0722183 -0.0414852 -0.120469)
(0.0837403 -0.00184876 -0.101768)
(0.0960815 0.0566524 -0.0726367)
(0.107991 0.127781 -0.040498)
(0.114095 0.192921 -0.0154802)
(0.107499 0.227705 -0.00379045)
(0.0891845 0.221597 -0.00308599)
(0.0675115 0.183348 -0.00793253)
(0.052968 0.128025 -0.0165466)
(0.0832143 0.0511523 0.00957341)
(0.0796138 0.00534234 0.00391139)
(0.0723854 -0.0287625 -0.0111298)
(0.068565 -0.0513461 -0.0348292)
(0.0677662 -0.0645528 -0.0632026)
(0.0687144 -0.0695132 -0.0898028)
(0.0701179 -0.0652931 -0.107844)
(0.0713934 -0.0489745 -0.112582)
(0.073166 -0.0169605 -0.102565)
(0.077091 0.0325041 -0.0800627)
(0.0847848 0.0952512 -0.0510868)
(0.0953656 0.156946 -0.0239152)
(0.103862 0.195641 -0.00484036)
(0.105381 0.19613 0.00583093)
(0.100074 0.161658 0.0111597)
(0.0972059 0.107219 0.0121533)
(0.0984255 0.0251085 0.0374863)
(0.0966115 -0.0131264 0.0394078)
(0.0874934 -0.0393921 0.029435)
(0.0807029 -0.0553261 0.00800681)
(0.0763753 -0.0637875 -0.0213662)
(0.0730601 -0.0666909 -0.0522339)
(0.0688406 -0.0638066 -0.0771982)
(0.0628155 -0.0525953 -0.0904258)
(0.0560775 -0.0294377 -0.0892459)
(0.0516014 0.00775937 -0.0748674)
(0.0530303 0.0560853 -0.0520063)
(0.0624977 0.105002 -0.0272421)
(0.0780609 0.137988 -0.00588041)
(0.0935841 0.141246 0.0109042)
(0.102718 0.11403 0.0246563)
(0.110547 0.0685371 0.036153)
(0.0865404 -0.00858732 0.058809)
(0.0867639 -0.0355341 0.0667173)
(0.0794866 -0.0517477 0.0626459)
(0.0739559 -0.059913 0.0464691)
(0.0705151 -0.0628555 0.0206183)
(0.0672928 -0.0627457 -0.00983354)
(0.0616949 -0.0599931 -0.0381753)
(0.0522685 -0.0529535 -0.058231)
(0.0402556 -0.0386586 -0.0660616)
(0.0295842 -0.0151411 -0.061141)
(0.025224 0.0158995 -0.0463344)
(0.0307079 0.0475026 -0.0264077)
(0.0456808 0.0689041 -0.00560378)
(0.0648309 0.0706399 0.0143565)
(0.0800309 0.0511206 0.0336524)
(0.0920375 0.0186984 0.0528777)
(0.053967 -0.0468838 0.0719044)
(0.0558371 -0.060585 0.0842155)
(0.0528416 -0.0662015 0.0862417)
(0.0521413 -0.0664637 0.0774229)
(0.0538705 -0.0637581 0.0588213)
(0.0555453 -0.060051 0.0333374)
(0.0535976 -0.0562296 0.00556163)
(0.0456562 -0.0517427 -0.0191001)
(0.0326008 -0.0448845 -0.0355914)
(0.0186802 -0.0341293 -0.0410854)
(0.0094969 -0.0198311 -0.0359225)
(0.00912449 -0.00541606 -0.0228113)
(0.0179178 0.00346896 -0.00497204)
(0.031846 0.00175038 0.015376)
(0.0441554 -0.011615 0.0369487)
(0.0534868 -0.0320218 0.0593029)
(0.00906974 -0.0853072 0.0747121)
(0.012526 -0.0866038 0.0906287)
(0.0141427 -0.0833174 0.0988429)
(0.0200282 -0.0768575 0.0987015)
(0.0298154 -0.0687826 0.0901572)
(0.0403293 -0.0608619 0.0736456)
(0.0468255 -0.0544085 0.0506751)
(0.0453335 -0.0500351 0.0246457)
(0.0353282 -0.0476696 0.000813027)
(0.0205478 -0.046543 -0.0155128)
(0.00684036 -0.0458771 -0.0215637)
(-0.00121863 -0.0458238 -0.0176051)
(-0.00238222 -0.0477738 -0.00563583)
(0.00100097 -0.0533349 0.011959)
(0.00456464 -0.0629845 0.0326855)
(0.00773277 -0.07512 0.0542247)
(-0.037784 -0.106347 0.0667444)
(-0.0320701 -0.0987381 0.085633)
(-0.0272064 -0.0909327 0.0994571)
(-0.0155214 -0.0814301 0.107775)
(0.00212708 -0.0705699 0.110149)
(0.0224481 -0.0596779 0.105259)
(0.0399324 -0.0503643 0.0913133)
(0.0484747 -0.0443485 0.0683103)
(0.0448483 -0.0432522 0.0400817)
(0.0310414 -0.0475416 0.0136829)
(0.012879 -0.0557664 -0.0045238)
(-0.00392107 -0.0653905 -0.0116547)
(-0.0165016 -0.0745226 -0.00804693)
(-0.0252222 -0.0824963 0.00414213)
(-0.0322837 -0.0896499 0.0215674)
(-0.0350873 -0.0962315 0.0400585)
(-0.15579 -0.0999369 0.0567752)
(-0.142651 -0.0814249 0.0741539)
(-0.135994 -0.0708178 0.0909984)
(-0.116744 -0.0624416 0.105144)
(-0.0882769 -0.0554471 0.115628)
(-0.0544386 -0.0502026 0.120948)
(-0.0207663 -0.0470705 0.118532)
(0.00508334 -0.0466209 0.105578)
(0.0157844 -0.0500852 0.0822293)
(0.00880543 -0.0583067 0.0538725)
(-0.0118452 -0.0697333 0.0281837)
(-0.0391491 -0.0807119 0.0106098)
(-0.067144 -0.0880152 0.00314885)
(-0.0928697 -0.0906574 0.00517845)
(-0.116547 -0.0902175 0.0142454)
(-0.122422 -0.0875729 0.0251062)
(-0.183404 -0.0780445 0.00490467)
(-0.170199 -0.0654813 0.0246838)
(-0.164696 -0.0585761 0.0464944)
(-0.144249 -0.052794 0.0691551)
(-0.113315 -0.0471322 0.0911497)
(-0.0754491 -0.0413913 0.109974)
(-0.0353565 -0.0355278 0.121689)
(-0.000311391 -0.0301213 0.121072)
(0.0206706 -0.0273252 0.104474)
(0.0210894 -0.0300815 0.0748429)
(0.0020378 -0.038707 0.0413387)
(-0.0291911 -0.0497557 0.0126081)
(-0.0645867 -0.0589491 -0.00698242)
(-0.0990585 -0.0642158 -0.0166011)
(-0.131315 -0.0662657 -0.0175089)
(-0.139877 -0.0651763 -0.0125387)
(-0.201473 -0.0501512 -0.0479991)
(-0.187401 -0.0462876 -0.0278595)
(-0.182391 -0.0454355 -0.00464386)
(-0.161148 -0.0442068 0.0222083)
(-0.128809 -0.0413462 0.0513109)
(-0.0887382 -0.0360402 0.0801006)
(-0.0448676 -0.0277264 0.104447)
(-0.00344485 -0.0167347 0.118135)
(0.0264106 -0.00575508 0.114047)
(0.0349451 -1.27928e-05 0.0900217)
(0.019021 -0.0028373 0.0536707)
(-0.0148517 -0.0117818 0.0165315)
(-0.0566065 -0.0217019 -0.0137496)
(-0.0988183 -0.0293183 -0.0343092)
(-0.138552 -0.0344578 -0.0450895)
(-0.15035 -0.0368795 -0.0458619)
(-0.205358 -0.0131635 -0.0959916)
(-0.191478 -0.0205534 -0.0784313)
(-0.186183 -0.0273683 -0.0577972)
(-0.164348 -0.0321101 -0.031516)
(-0.13146 -0.0335244 -0.000465805)
(-0.090819 -0.0302541 0.0333143)
(-0.0457794 -0.0211171 0.0663233)
(-0.00150234 -0.00574793 0.0928245)
(0.0339985 0.0136352 0.104226)
(0.0496578 0.0304383 0.0928273)
(0.0380285 0.0373787 0.0609263)
(0.00330565 0.0339584 0.0206266)
(-0.0429981 0.0252681 -0.0169504)
(-0.0911169 0.0158326 -0.0463667)
(-0.136373 0.00713952 -0.0660257)
(-0.151707 -0.000165049 -0.0727068)
(-0.193206 0.0252406 -0.131184)
(-0.181084 0.00572805 -0.119396)
(-0.174811 -0.00936614 -0.104743)
(-0.1527 -0.0205989 -0.0834438)
(-0.120183 -0.0268937 -0.0555553)
(-0.0804644 -0.0265362 -0.0222948)
(-0.0364596 -0.0178279 0.0139126)
(0.00765278 0.000408666 0.04877)
(0.0454409 0.0272368 0.0744935)
(0.0663582 0.0562286 0.0800775)
(0.0595724 0.0763221 0.0601936)
(0.0257284 0.0818447 0.0234444)
(-0.023141 0.0764115 -0.0166541)
(-0.0751052 0.0656685 -0.0516339)
(-0.123591 0.0529007 -0.0780743)
(-0.142761 0.0396724 -0.0906146)
(-0.163994 0.0582012 -0.145527)
(-0.155247 0.0272332 -0.142329)
(-0.147885 0.00377579 -0.136028)
(-0.12638 -0.0140485 -0.122969)
(-0.095625 -0.0253149 -0.102491)
(-0.0586046 -0.02815 -0.0748442)
(-0.0177738 -0.0205445 -0.0412046)
(0.0237204 -0.000675352 -0.00411909)
(0.0611532 0.032013 0.0308955)
(0.0857558 0.0728595 0.0530575)
(0.0846734 0.108582 0.0505846)
(0.0536519 0.126515 0.0243173)
(0.00417001 0.126523 -0.0126991)
(-0.0495849 0.115122 -0.049029)
(-0.0989821 0.0977772 -0.0791047)
(-0.122099 0.0777487 -0.0967994)
(-0.117958 0.0808049 -0.134279)
(-0.113748 0.0405659 -0.14119)
(-0.106122 0.00935754 -0.144419)
(-0.0868721 -0.0146235 -0.141633)
(-0.0599643 -0.0305521 -0.131535)
(-0.0279586 -0.036593 -0.113335)
(0.00726362 -0.030615 -0.0869904)
(0.0436244 -0.0103543 -0.0535352)
(0.0782359 0.0259938 -0.0161035)
(0.105224 0.0766646 0.0173871)
(0.111996 0.129145 0.0332424)
(0.087732 0.163244 0.0231662)
(0.0403901 0.171296 -0.00488226)
(-0.0131363 0.159953 -0.0377551)
(-0.0614402 0.137496 -0.0675663)
(-0.0880302 0.109695 -0.0888218)
(-0.0583545 0.0906886 -0.0994292)
(-0.0587764 0.0446244 -0.115343)
(-0.0528124 0.00743768 -0.128045)
(-0.0380273 -0.0213388 -0.136457)
(-0.0173638 -0.0410264 -0.138457)
(0.00716245 -0.05009 -0.131991)
(0.0342848 -0.0464236 -0.115778)
(0.0629367 -0.0274731 -0.089771)
(0.0919083 0.00945282 -0.0556024)
(0.118565 0.0653806 -0.0181448)
(0.134203 0.132116 0.0114935)
(0.123532 0.185782 0.0198913)
(0.0847502 0.206283 0.00621763)
(0.0347785 0.196545 -0.0181323)
(-0.0107805 0.168596 -0.0435412)
(-0.0393581 0.131812 -0.0656981)
(0.00692594 0.0886568 -0.0505635)
(0.0030315 0.0403231 -0.0709203)
(0.00468686 0.000157576 -0.0912754)
(0.0128813 -0.0309317 -0.110449)
(0.0254669 -0.0527084 -0.124954)
(0.0408366 -0.0642512 -0.131003)
(0.0581675 -0.0635872 -0.125888)
(0.0771661 -0.0479031 -0.108716)
(0.0978459 -0.0139075 -0.0804885)
(0.11997 0.0411078 -0.0444956)
(0.140253 0.113984 -0.00838911)
(0.146546 0.184834 0.015222)
(0.126673 0.223252 0.0185681)
(0.0882942 0.219991 0.00706578)
(0.0488687 0.18806 -0.0101569)
(0.021775 0.141789 -0.0295203)
(0.0651218 0.0773908 -0.000292702)
(0.0597068 0.0294504 -0.0187612)
(0.0551346 -0.00996938 -0.043027)
(0.0557885 -0.0400412 -0.0706597)
(0.0600451 -0.0616068 -0.0963229)
(0.0663066 -0.0746035 -0.114114)
(0.073797 -0.0772495 -0.119632)
(0.0825631 -0.0664365 -0.111099)
(0.09339 -0.0383409 -0.0892253)
(0.107434 0.010531 -0.0568634)
(0.125073 0.0797815 -0.0198386)
(0.141366 0.156274 0.0120604)
(0.144105 0.2103 0.0295017)
(0.127997 0.219493 0.0320851)
(0.102571 0.18927 0.025789)
(0.083598 0.137089 0.013657)
(0.101595 0.0580485 0.0430244)
(0.0964546 0.0133931 0.0307797)
(0.0863416 -0.0213388 0.00686827)
(0.0807605 -0.046939 -0.0252476)
(0.0786364 -0.0658011 -0.0587838)
(0.0780412 -0.0787849 -0.0859186)
(0.0777046 -0.084359 -0.100528)
(0.07749 -0.0791216 -0.0998436)
(0.0785585 -0.0587499 -0.0842083)
(0.0830072 -0.0194163 -0.0563415)
(0.0932041 0.0392596 -0.0214216)
(0.109382 0.108342 0.0126522)
(0.125753 0.164963 0.0377515)
(0.132926 0.184304 0.0512758)
(0.128002 0.161972 0.056327)
(0.123455 0.113223 0.0552118)
(0.106707 0.0298016 0.0769019)
(0.102696 -0.00693871 0.0714703)
(0.0905292 -0.0332423 0.0510135)
(0.0822139 -0.0516827 0.0189126)
(0.0775033 -0.0657581 -0.0177878)
(0.0740743 -0.077098 -0.0504642)
(0.0697109 -0.0845208 -0.0718345)
(0.0636081 -0.084506 -0.0781665)
(0.0569869 -0.072468 -0.0691737)
(0.052774 -0.0446036 -0.0472007)
(0.0547403 -0.000570602 -0.0168521)
(0.0657178 0.0528383 0.015342)
(0.0846816 0.0994452 0.0428633)
(0.10447 0.119868 0.062897)
(0.115863 0.10643 0.0769583)
(0.123765 0.0698024 0.0870274)
(0.0813792 -0.00587951 0.100252)
(0.0784501 -0.0298183 0.100235)
(0.0682567 -0.0451204 0.0850157)
(0.0614629 -0.0550825 0.0571191)
(0.0585497 -0.0632561 0.0224059)
(0.0568921 -0.071622 -0.0111858)
(0.0531928 -0.0794405 -0.0364116)
(0.0455996 -0.0834666 -0.0489276)
(0.0350262 -0.0793183 -0.0475025)
(0.0250122 -0.0635315 -0.033461)
(0.0203903 -0.0357709 -0.0102602)
(0.0251607 -0.000931868 0.0171205)
(0.0401399 0.0304311 0.04371)
(0.0605316 0.0457754 0.0667811)
(0.0769685 0.0389887 0.086302)
(0.0883977 0.0164905 0.103527)
(0.0349005 -0.0434135 0.110697)
(0.0331529 -0.0523092 0.114924)
(0.0272315 -0.0563676 0.106249)
(0.0252123 -0.0581389 0.0860116)
(0.0276902 -0.0603906 0.0581611)
(0.0317995 -0.0650266 0.0285284)
(0.0332532 -0.0717671 0.00288831)
(0.028868 -0.0780667 -0.0144885)
(0.0186719 -0.080319 -0.0212676)
(0.00623573 -0.0755664 -0.017032)
(-0.0030531 -0.063085 -0.00335482)
(-0.00471993 -0.0455166 0.0166286)
(0.002605 -0.028722 0.0393394)
(0.0157082 -0.0196501 0.0621332)
(0.0276002 -0.0220676 0.0834522)
(0.0354887 -0.0331841 0.102597)
(-0.0212272 -0.0756471 0.106351)
(-0.020864 -0.0709695 0.11441)
(-0.0223594 -0.0661383 0.113356)
(-0.0181532 -0.0615738 0.103287)
(-0.00829502 -0.0588403 0.0861438)
(0.00409866 -0.0595261 0.0649515)
(0.0140371 -0.0637823 0.0429119)
(0.0167867 -0.0701173 0.0230729)
(0.0106947 -0.0762146 0.00852079)
(-0.0015019 -0.0798172 0.0019097)
(-0.0143573 -0.0795549 0.00418056)
(-0.023005 -0.075664 0.0143136)
(-0.0254382 -0.0702195 0.0301081)
(-0.0233459 -0.0662821 0.0491588)
(-0.0210407 -0.0661971 0.0689018)
(-0.0187326 -0.0698127 0.0863078)
(-0.0742066 -0.0891156 0.0880366)
(-0.0709839 -0.0759536 0.099699)
(-0.0696982 -0.0671359 0.106311)
(-0.0599419 -0.0599734 0.107116)
(-0.0429142 -0.0547468 0.102452)
(-0.0219535 -0.052499 0.0927448)
(-0.0024108 -0.0536564 0.0781619)
(0.00949833 -0.0579275 0.0593823)
(0.00982025 -0.0646396 0.0391691)
(-0.000405062 -0.0725776 0.0221889)
(-0.0159858 -0.0798258 0.0124236)
(-0.0314065 -0.0845546 0.0113021)
(-0.043636 -0.0861528 0.0180318)
(-0.0528137 -0.0854051 0.0306508)
(-0.0612097 -0.0840874 0.0463142)
(-0.0635841 -0.0835946 0.0604787)
(-0.167089 -0.0456829 0.049958)
(-0.153914 -0.0250738 0.0571437)
(-0.149806 -0.0128476 0.0647435)
(-0.13465 -0.00614218 0.0697945)
(-0.111833 -0.00510695 0.0723821)
(-0.0848003 -0.0101899 0.0729474)
(-0.0580603 -0.0207195 0.0709252)
(-0.0373707 -0.0350267 0.0647746)
(-0.028218 -0.0512027 0.053473)
(-0.0329965 -0.0671015 0.0385207)
(-0.0492156 -0.0799433 0.0236511)
(-0.0712519 -0.086756 0.0126202)
(-0.0936984 -0.0859409 0.00775233)
(-0.113819 -0.0782875 0.00952196)
(-0.13242 -0.0668529 0.0168193)
(-0.132843 -0.0550494 0.0260225)
(-0.190232 -0.0188128 -0.00938879)
(-0.177213 -0.00493347 0.00252914)
(-0.174122 0.00402654 0.017494)
(-0.15742 0.00879579 0.0330501)
(-0.131443 0.00922392 0.0479826)
(-0.0994774 0.00537344 0.0611751)
(-0.0656965 -0.00183436 0.070629)
(-0.0361704 -0.0110756 0.0733103)
(-0.017953 -0.0214646 0.0664198)
(-0.0162593 -0.0324932 0.0502727)
(-0.030871 -0.0428144 0.0290353)
(-0.0562869 -0.0498364 0.00804541)
(-0.085649 -0.0513276 -0.00867195)
(-0.114402 -0.0470518 -0.0188949)
(-0.141823 -0.0389345 -0.0218397)
(-0.145934 -0.0296979 -0.0174936)
(-0.199 0.012874 -0.0676)
(-0.186205 0.0172635 -0.0542181)
(-0.183103 0.020039 -0.0366309)
(-0.165135 0.0202192 -0.0154725)
(-0.137118 0.0179664 0.00776292)
(-0.102199 0.0140788 0.0313239)
(-0.0640371 0.00984198 0.0525027)
(-0.0282227 0.00636569 0.0671974)
(-0.00227698 0.00353447 0.0703905)
(0.00602069 -0.000164757 0.0592089)
(-0.00631115 -0.00545516 0.0363321)
(-0.0345346 -0.0104445 0.00841452)
(-0.0701861 -0.0123175 -0.0183327)
(-0.106639 -0.0100028 -0.0396303)
(-0.141429 -0.00463841 -0.0529491)
(-0.149711 0.00112898 -0.0545528)
(-0.193722 0.0466901 -0.11663)
(-0.182159 0.0402381 -0.105572)
(-0.178015 0.0354844 -0.0899355)
(-0.158625 0.029835 -0.0683289)
(-0.12906 0.0236187 -0.0418908)
(-0.0924516 0.0183031 -0.012281)
(-0.052045 0.0157835 0.0178526)
(-0.0126479 0.0175843 0.0443175)
(0.0187747 0.0233939 0.0608117)
(0.0330527 0.0299883 0.0606159)
(0.0236535 0.0334626 0.0423629)
(-0.00648856 0.0334701 0.0122992)
(-0.0475151 0.0327496 -0.0211007)
(-0.0905729 0.0333377 -0.0513045)
(-0.131263 0.0352243 -0.0740391)
(-0.144401 0.0361853 -0.0825825)
(-0.174444 0.0762746 -0.148396)
(-0.165333 0.0588137 -0.143272)
(-0.159621 0.0458431 -0.13322)
(-0.139121 0.0337538 -0.115709)
(-0.108824 0.0229843 -0.0912081)
(-0.0718914 0.0154798 -0.0608535)
(-0.0312161 0.0136881 -0.0266712)
(0.00928778 0.0198083 0.00796998)
(0.0439252 0.0342735 0.0371602)
(0.0636087 0.053301 0.051784)
(0.0583141 0.0692934 0.0445763)
(0.0276308 0.0775416 0.0182568)
(-0.017616 0.0796028 -0.0173585)
(-0.066029 0.0786116 -0.0532361)
(-0.111047 0.07613 -0.0832818)
(-0.12963 0.0711434 -0.0991453)
(-0.140459 0.0971229 -0.155696)
(-0.135021 0.0694619 -0.1594)
(-0.128083 0.0479086 -0.157398)
(-0.107762 0.0289857 -0.147402)
(-0.0785487 0.0133255 -0.129223)
(-0.0434629 0.00316082 -0.103255)
(-0.00498584 0.0012664 -0.0706441)
(0.0339909 0.010413 -0.0335489)
(0.0695362 0.0323079 0.00376474)
(0.0943364 0.064464 0.0327287)
(0.0959286 0.0967345 0.0413305)
(0.0677804 0.11738 0.0251003)
(0.0201603 0.124389 -0.00745809)
(-0.0321254 0.122142 -0.0448508)
(-0.079812 0.11443 -0.0789875)
(-0.104012 0.102393 -0.101528)
(-0.0918226 0.107083 -0.135183)
(-0.0907465 0.0712334 -0.149101)
(-0.0838945 0.0415755 -0.156651)
(-0.0659378 0.0160342 -0.156621)
(-0.040558 -0.00448393 -0.148129)
(-0.0103757 -0.0176935 -0.130622)
(0.0227247 -0.0207231 -0.104289)
(0.0569662 -0.0104827 -0.0702645)
(0.0903009 0.0158556 -0.0311649)
(0.118665 0.0586664 0.00704049)
(0.130804 0.10921 0.0320519)
(0.112095 0.147989 0.031588)
(0.0664346 0.163706 0.00806519)
(0.0123761 0.160987 -0.025903)
(-0.0364419 0.147273 -0.0600507)
(-0.0656438 0.126892 -0.0872857)
(-0.0317345 0.106423 -0.0901911)
(-0.0346323 0.0654251 -0.112994)
(-0.030113 0.0295069 -0.130651)
(-0.0170937 -0.00129321 -0.142326)
(0.00153943 -0.0259206 -0.145963)
(0.0237223 -0.0422951 -0.139679)
(0.0482933 -0.0476257 -0.12256)
(0.074541 -0.038718 -0.0950264)
(0.10198 -0.012154 -0.0589061)
(0.129628 0.0349648 -0.0180586)
(0.151677 0.099363 0.0185947)
(0.151247 0.160593 0.0361792)
(0.117941 0.19244 0.027776)
(0.0672894 0.192372 0.00285401)
(0.019143 0.172606 -0.0267271)
(-0.013222 0.142427 -0.0551551)
(0.0319151 0.097719 -0.0310302)
(0.0264682 0.0545622 -0.0580996)
(0.0259646 0.0155584 -0.0847585)
(0.0318184 -0.0178684 -0.108744)
(0.0416889 -0.044971 -0.125848)
(0.0539305 -0.064168 -0.132179)
(0.0679826 -0.0728161 -0.125494)
(0.0840063 -0.0676102 -0.105672)
(0.102615 -0.0448084 -0.0744179)
(0.124573 -0.000413915 -0.0349224)
(0.149164 0.0669487 0.00676746)
(0.166754 0.144503 0.0387349)
(0.158472 0.199176 0.0487408)
(0.123518 0.210285 0.0383419)
(0.0815427 0.187967 0.0180113)
(0.050534 0.147975 -0.00675063)
(0.0860649 0.0836665 0.0291088)
(0.079962 0.0406989 0.00382383)
(0.0728516 0.0026592 -0.0286307)
(0.0708707 -0.0297356 -0.0634541)
(0.0719169 -0.056939 -0.0934828)
(0.0743647 -0.0780908 -0.112198)
(0.0779426 -0.090613 -0.115755)
(0.0833168 -0.0909051 -0.103512)
(0.091794 -0.0747912 -0.077252)
(0.104967 -0.0378475 -0.0402487)
(0.124391 0.0229035 0.00247715)
(0.148125 0.101568 0.042204)
(0.163432 0.171777 0.0674791)
(0.156294 0.200804 0.073678)
(0.132005 0.184658 0.0664979)
(0.111321 0.140669 0.0509823)
(0.115254 0.0635221 0.0803286)
(0.110009 0.0241523 0.0606583)
(0.0977484 -0.00837106 0.0266679)
(0.089863 -0.0357232 -0.0151571)
(0.0845701 -0.0602779 -0.0551042)
(0.079935 -0.0819645 -0.084043)
(0.0754622 -0.0981578 -0.0964455)
(0.0718696 -0.104734 -0.0910772)
(0.0708125 -0.0968967 -0.0697242)
(0.0744537 -0.0699317 -0.0358088)
(0.0852737 -0.0208345 0.00586356)
(0.10489 0.0469439 0.0481261)
(0.129199 0.115364 0.0817607)
(0.145608 0.154734 0.100745)
(0.145554 0.150277 0.107141)
(0.142831 0.113852 0.104823)
(0.110039 0.0350401 0.117849)
(0.105996 0.00481306 0.104032)
(0.0926517 -0.0179822 0.0720985)
(0.08291 -0.0371012 0.0285459)
(0.0757204 -0.0564956 -0.0161536)
(0.0686695 -0.0769071 -0.0513777)
(0.0605059 -0.0956995 -0.0703025)
(0.0515308 -0.108154 -0.0710381)
(0.0434634 -0.108847 -0.0551147)
(0.0389951 -0.0929395 -0.0258302)
(0.0413895 -0.0579236 0.0122592)
(0.0536708 -0.0067792 0.0529788)
(0.0759821 0.0477981 0.0890321)
(0.101178 0.0845483 0.115032)
(0.117392 0.0888588 0.131247)
(0.128454 0.0673541 0.140649)
(0.0733764 0.000737319 0.13919)
(0.0700992 -0.0152341 0.129804)
(0.0595172 -0.025975 0.102536)
(0.0520847 -0.0356082 0.0626095)
(0.0475466 -0.0484665 0.0192403)
(0.0430731 -0.0659529 -0.0172979)
(0.0363008 -0.0856788 -0.0398587)
(0.0266309 -0.102605 -0.0459759)
(0.0154784 -0.110957 -0.0365624)
(0.00591802 -0.106007 -0.014285)
(0.0019421 -0.0856716 0.0170529)
(0.00721403 -0.0524491 0.0525256)
(0.0231049 -0.0150445 0.0866177)
(0.0455823 0.013026 0.114901)
(0.0648844 0.0216686 0.136096)
(0.078593 0.0140114 0.151415)
(0.0171854 -0.0316736 0.142313)
(0.0149258 -0.0319811 0.13655)
(0.00864334 -0.031283 0.116199)
(0.00610831 -0.0323871 0.0844416)
(0.00732497 -0.0388771 0.0480324)
(0.00919192 -0.0524917 0.0152094)
(0.00822287 -0.0713596 -0.00778859)
(0.00248043 -0.0907087 -0.0182488)
(-0.00752246 -0.10493 -0.0161898)
(-0.0187884 -0.109522 -0.00306978)
(-0.0269199 -0.10246 0.0186643)
(-0.0279803 -0.0851621 0.0456983)
(-0.0203257 -0.0628589 0.0742145)
(-0.00645659 -0.0433253 0.100694)
(0.00692006 -0.0327732 0.122639)
(0.0165021 -0.0309419 0.138497)
(-0.0449303 -0.053751 0.126724)
(-0.044953 -0.0413283 0.124758)
(-0.0474824 -0.0325185 0.11316)
(-0.0443479 -0.0278048 0.0927496)
(-0.0360766 -0.0294777 0.0675201)
(-0.0259425 -0.0391698 0.0427799)
(-0.0183049 -0.0556574 0.0228616)
(-0.0167136 -0.0750924 0.0100239)
(-0.0221687 -0.0926579 0.0050605)
(-0.0324646 -0.104244 0.00804388)
(-0.0432595 -0.107488 0.0183574)
(-0.0503672 -0.102282 0.0345471)
(-0.0517302 -0.0909511 0.054449)
(-0.0486014 -0.0775589 0.075484)
(-0.0451053 -0.0662207 0.0948048)
(-0.0406601 -0.0587549 0.108543)
(-0.100443 -0.0563977 0.0950725)
(-0.098076 -0.0371495 0.0969961)
(-0.0988592 -0.0251236 0.0945179)
(-0.0906769 -0.0184485 0.0865397)
(-0.075291 -0.0181467 0.0746675)
(-0.056405 -0.0252521 0.0612397)
(-0.0391626 -0.0388556 0.0479798)
(-0.0286742 -0.0561651 0.0357245)
(-0.0277296 -0.0736966 0.0255496)
(-0.035328 -0.0881907 0.0191018)
(-0.0474156 -0.097097 0.0178958)
(-0.0595817 -0.0990608 0.0224147)
(-0.0692439 -0.0943943 0.0320014)
(-0.0765385 -0.0849856 0.0450899)
(-0.0838561 -0.0738696 0.0593496)
(-0.0839364 -0.064007 0.0702981)
(-0.148883 0.00586322 0.0338436)
(-0.137761 0.0285109 0.0353639)
(-0.135111 0.0437684 0.0369922)
(-0.124531 0.0507298 0.0356406)
(-0.108901 0.0479149 0.0324174)
(-0.0912208 0.0346829 0.0293236)
(-0.0747405 0.0126151 0.0270949)
(-0.0629217 -0.0146009 0.0248051)
(-0.0586397 -0.0425598 0.0209083)
(-0.063039 -0.066603 0.0148125)
(-0.0746568 -0.082657 0.00754239)
(-0.0898925 -0.0879468 0.00126114)
(-0.104821 -0.0818899 -0.0017187)
(-0.117339 -0.0664516 8.19457e-05)
(-0.128357 -0.045588 0.00688955)
(-0.124306 -0.024904 0.0170319)
(-0.166885 0.0344242 -0.0277184)
(-0.156953 0.051267 -0.0206333)
(-0.155571 0.0641115 -0.0100317)
(-0.143573 0.0697167 0.00057748)
(-0.124259 0.0664777 0.0102277)
(-0.100358 0.0542805 0.0189471)
(-0.0752792 0.0350589 0.0261707)
(-0.0536019 0.0121739 0.0303114)
(-0.0401376 -0.010646 0.0293317)
(-0.0383743 -0.0300802 0.0221272)
(-0.0485858 -0.0434389 0.00965241)
(-0.0672873 -0.0486342 -0.0054304)
(-0.0893453 -0.0448509 -0.0197673)
(-0.110964 -0.0331309 -0.0301915)
(-0.131382 -0.0161501 -0.0341599)
(-0.132573 0.00117683 -0.0290405)
(-0.169904 0.0639165 -0.0849177)
(-0.161343 0.0718303 -0.0767315)
(-0.159511 0.0785818 -0.0631372)
(-0.145451 0.0796799 -0.0461981)
(-0.122899 0.0739897 -0.0276038)
(-0.0945316 0.0621313 -0.00843791)
(-0.0636024 0.0462079 0.00970733)
(-0.03482 0.0290594 0.0242693)
(-0.0139321 0.0132605 0.0318022)
(-0.0065785 0.000434768 0.0292783)
(-0.0153373 -0.00814944 0.0163056)
(-0.0373509 -0.0110018 -0.00427999)
(-0.0661976 -0.00708265 -0.0278082)
(-0.0961703 0.00308862 -0.0492687)
(-0.124626 0.0174568 -0.0641308)
(-0.131342 0.0312676 -0.0661309)
(-0.160977 0.0902187 -0.129195)
(-0.15431 0.0885236 -0.124155)
(-0.150889 0.087977 -0.112597)
(-0.134265 0.0833978 -0.094817)
(-0.108597 0.0740647 -0.0723148)
(-0.0767885 0.0613374 -0.0464766)
(-0.0419732 0.0478463 -0.0192995)
(-0.00848836 0.0365385 0.00617034)
(0.0179804 0.0293286 0.0253605)
(0.030503 0.0261597 0.0326936)
(0.023754 0.0258476 0.0247271)
(-0.000980908 0.0280411 0.00318482)
(-0.0361206 0.0334446 -0.0261571)
(-0.0737711 0.0421693 -0.05638)
(-0.109209 0.0530911 -0.0811259)
(-0.122091 0.0621769 -0.0916346)
(-0.140583 0.108787 -0.153349)
(-0.136539 0.0971858 -0.154842)
(-0.131412 0.088288 -0.148848)
(-0.112883 0.0771407 -0.13467)
(-0.0852196 0.0634848 -0.113266)
(-0.0515713 0.0492647 -0.0857805)
(-0.014958 0.0376001 -0.0539926)
(0.0209173 0.0318325 -0.0206544)
(0.051317 0.0340214 0.00972131)
(0.0692646 0.0431452 0.0299149)
(0.0664682 0.0549387 0.0322976)
(0.0408436 0.065408 0.0150769)
(0.000519723 0.0738608 -0.015845)
(-0.0438519 0.0811643 -0.0516249)
(-0.0850881 0.0875629 -0.0841019)
(-0.10462 0.0906323 -0.103471)
(-0.107305 0.11768 -0.151922)
(-0.106651 0.0965104 -0.162345)
(-0.100701 0.0784835 -0.164206)
(-0.0822371 0.059966 -0.156909)
(-0.0552006 0.0413317 -0.140848)
(-0.0227025 0.0249658 -0.116657)
(0.0125599 0.0142519 -0.0855555)
(0.0478022 0.0128431 -0.0495547)
(0.0798445 0.0235332 -0.0121261)
(0.103405 0.0459878 0.0201306)
(0.108529 0.0739182 0.0366245)
(0.0867842 0.0973388 0.029473)
(0.0440702 0.11142 0.00205884)
(-0.00540049 0.11771 -0.0351712)
(-0.0509908 0.118652 -0.0721554)
(-0.0771377 0.114399 -0.0995015)
(-0.0606326 0.117192 -0.123197)
(-0.0635953 0.0880637 -0.143547)
(-0.058511 0.0613015 -0.154933)
(-0.0428833 0.0354729 -0.157181)
(-0.0200298 0.0116501 -0.14996)
(0.00733281 -0.00758477 -0.133113)
(0.0371542 -0.0187927 -0.10714)
(0.067793 -0.018255 -0.0734038)
(0.0978118 -0.00252796 -0.034373)
(0.124841 0.0301835 0.00531058)
(0.141197 0.0754398 0.0358657)
(0.132154 0.117945 0.0439978)
(0.0940499 0.142856 0.0262046)
(0.0427341 0.14972 -0.00736186)
(-0.0055434 0.144702 -0.0447416)
(-0.0373747 0.131729 -0.0776232)
(-0.00381293 0.109424 -0.0711582)
(-0.00957464 0.0750862 -0.100093)
(-0.00765569 0.0416139 -0.122154)
(0.00232053 0.00991692 -0.136382)
(0.0176054 -0.0184468 -0.140973)
(0.0360958 -0.0409325 -0.134486)
(0.0566711 -0.0542234 -0.116535)