/*--------------------------------*- C++ -*----------------------------------*\
| =========                 |                                                 |
| \\      /  F ield         | OpenFOAM: The Open Source CFD Toolbox           |
|  \\    /   O peration     | Version:  3.0.0                                 |
|   \\  /    A nd           | Web:      www.OpenFOAM.org                      |
|    \\/     M anipulation  |                                                 |
\*---------------------------------------------------------------------------*/
FoamFile
{
    version     2.0;
    format      ascii;
    class       volScalarField;
    location    "7";
    object      k;
}
// * * * * * * * * * * * * * * * * * * * * * * * * * * * * * * * * * * * * * //

dimensions      [0 2 -2 0 0 0 0];

internalField   nonuniform List<scalar> 
400
(
1.09232e-06
2.20045e-06
7.58173e-06
8.11156e-05
0.000290717
0.000490842
0.000589465
0.00063923
0.000655527
0.000657276
0.000620082
0.000583501
0.000524677
0.00047166
0.000409467
0.000349434
0.000290149
0.0002274
0.000159417
9.52285e-05
3.57928e-06
1.33199e-05
5.01103e-05
0.000166095
0.000275831
0.000323414
0.000336699
0.000339882
0.000340595
0.00034813
0.000360819
0.000387567
0.000417502
0.000449744
0.000484988
0.000510468
0.000521174
0.000519952
0.000474381
0.000434086
1.08182e-05
5.64633e-05
0.000132926
0.000212771
0.00027523
0.00030523
0.000331193
0.000356694
0.000394364
0.000427992
0.000457346
0.000478817
0.00049935
0.000529596
0.000566021
0.000617806
0.000669126
0.000699122
0.00073728
0.000863188
3.26448e-05
0.000103482
0.000169162
0.000232306
0.000284218
0.0003216
0.000374107
0.000418406
0.000445127
0.000461373
0.000472883
0.000481271
0.000495992
0.000524522
0.000570505
0.000638167
0.000724805
0.000807149
0.000865111
0.00113805
6.33064e-05
0.000130537
0.000192324
0.000251617
0.000306636
0.000356029
0.000391272
0.000406815
0.000409615
0.000389877
0.000371142
0.000364332
0.000369328
0.00040942
0.00047612
0.00058872
0.000734932
0.000876134
0.000980969
0.00134882
9.74719e-05
0.000149016
0.00020503
0.000266854
0.000323794
0.000358775
0.000373965
0.000362453
0.000319162
0.000282226
0.000260132
0.000251318
0.000251088
0.000287013
0.000356717
0.000484725
0.000689386
0.000909506
0.00107326
0.0015067
0.000136071
0.000149692
0.000210977
0.00027502
0.00032558
0.000345944
0.000336239
0.000295145
0.000246285
0.000213222
0.000193368
0.000185921
0.000186031
0.000215122
0.000276073
0.000396472
0.000623847
0.000921733
0.0011661
0.00164142
0.000178526
0.000147613
0.000209612
0.000277696
0.000319977
0.000325001
0.00029882
0.000247578
0.000202291
0.000173392
0.000157546
0.000151587
0.000152242
0.000174098
0.000224508
0.000329167
0.000557069
0.000922609
0.00125442
0.00175373
0.000218394
0.000143348
0.000205273
0.000274963
0.000307779
0.000306824
0.000272029
0.000218619
0.000177002
0.000150789
0.0001357
0.000129501
0.000129953
0.00014803
0.000191569
0.000283179
0.00049502
0.000898337
0.00134304
0.00186026
0.000264418
0.000133982
0.000196518
0.000268591
0.000301635
0.000297009
0.000256918
0.000204164
0.000163653
0.00013749
0.000121239
0.000113387
0.000114963
0.00013191
0.000171286
0.000254983
0.000445917
0.000879434
0.00143044
0.00196094
0.000299194
0.000131088
0.000183111
0.000256187
0.000292389
0.000287935
0.000253093
0.000201731
0.000159338
0.000130447
0.000113027
0.000106411
0.000109671
0.000125405
0.00016208
0.000241137
0.000408337
0.000850696
0.00151194
0.00206811
0.000324891
0.000133565
0.00016515
0.000239768
0.000283992
0.000282471
0.000256721
0.000206619
0.00016433
0.00013462
0.000114869
0.000107097
0.000109952
0.000124428
0.000159576
0.00023581
0.000390427
0.00083355
0.00159167
0.00218424
0.000322184
0.000139028
0.000149423
0.000214983
0.000266943
0.000270995
0.0002573
0.000219731
0.000178027
0.000147877
0.000126527
0.000118927
0.000122137
0.00013612
0.000168481
0.000236324
0.000382631
0.000820185
0.00166719
0.00232246
0.000301066
0.000147585
0.000142235
0.00018039
0.000247794
0.000260333
0.000254188
0.000235955
0.000204128
0.000176004
0.00015319
0.000145432
0.000148825
0.000162579
0.000192058
0.00025332
0.000381939
0.000816871
0.00176233
0.00249055
0.000248998
0.000144801
0.000134388
0.000151874
0.000205897
0.000235639
0.000240389
0.000234501
0.000220583
0.000205999
0.000190375
0.000184854
0.000187906
0.000198041
0.000219381
0.000271376
0.000395892
0.000841303
0.00188722
0.0027133
0.000145907
0.000128152
0.000125486
0.000137951
0.000175872
0.000212217
0.000223894
0.000224034
0.000219749
0.000215673
0.000210083
0.000210348
0.000211638
0.000219212
0.000238329
0.000293158
0.000428104
0.000901958
0.00205115
0.00300776
4.16495e-05
8.57126e-05
0.000103174
0.000111714
0.000130832
0.000160404
0.000180688
0.000189006
0.000194327
0.00019748
0.000199732
0.000205004
0.000212188
0.000228116
0.000260547
0.000341841
0.000516639
0.001052
0.00232768
0.00343099
2.78815e-05
6.00902e-05
8.80924e-05
0.000109183
0.000128034
0.000150819
0.000167351
0.000180278
0.000187594
0.000199484
0.000209035
0.000228782
0.00025086
0.000298107
0.000372975
0.000548417
0.000810479
0.00146052
0.00289789
0.00408553
0.000140459
0.000304674
0.000373406
0.000407324
0.000434267
0.000473852
0.000509616
0.000568689
0.00061869
0.000705849
0.00078107
0.00091522
0.0010299
0.00124027
0.00140486
0.00178951
0.00219095
0.00300507
0.0045592
0.00529589
0.00303036
0.00587948
0.00682053
0.0068613
0.00679959
0.00670277
0.00664092
0.00662762
0.00663221
0.0066496
0.00667668
0.00672532
0.00678002
0.00684803
0.00694642
0.00703235
0.0071208
0.00725226
0.00774906
0.00675164
)
;

boundaryField
{
    movingWall
    {
        type            kqRWallFunction;
        value           nonuniform List<scalar> 
20
(
0.00303036
0.00587948
0.00682053
0.0068613
0.00679959
0.00670277
0.00664092
0.00662762
0.00663221
0.0066496
0.00667668
0.00672532
0.00678002
0.00684803
0.00694642
0.00703235
0.0071208
0.00725226
0.00774906
0.00675164
)
;
    }
    fixedWalls
    {
        type            kqRWallFunction;
        value           nonuniform List<scalar> 
60
(
1.09232e-06
3.57928e-06
1.08182e-05
3.26448e-05
6.33064e-05
9.74719e-05
0.000136071
0.000178526
0.000218394
0.000264418
0.000299194
0.000324891
0.000322184
0.000301066
0.000248998
0.000145907
4.16495e-05
2.78815e-05
0.000140459
0.00303036
9.52285e-05
0.000434086
0.000863188
0.00113805
0.00134882
0.0015067
0.00164142
0.00175373
0.00186026
0.00196094
0.00206811
0.00218424
0.00232246
0.00249055
0.0027133
0.00300776
0.00343099
0.00408553
0.00529589
0.00675164
1.09232e-06
2.20045e-06
7.58173e-06
8.11156e-05
0.000290717
0.000490842
0.000589465
0.00063923
0.000655527
0.000657276
0.000620082
0.000583501
0.000524677
0.00047166
0.000409467
0.000349434
0.000290149
0.0002274
0.000159417
9.52285e-05
)
;
    }
    frontAndBack
    {
        type            empty;
    }
}


// ************************************************************************* //
