/*--------------------------------*- C++ -*----------------------------------*\
| =========                 |                                                 |
| \\      /  F ield         | OpenFOAM: The Open Source CFD Toolbox           |
|  \\    /   O peration     | Version:  3.0.0                                 |
|   \\  /    A nd           | Web:      www.OpenFOAM.org                      |
|    \\/     M anipulation  |                                                 |
\*---------------------------------------------------------------------------*/
FoamFile
{
    version     2.0;
    format      ascii;
    class       volScalarField;
    location    "7";
    object      nut;
}
// * * * * * * * * * * * * * * * * * * * * * * * * * * * * * * * * * * * * * //

dimensions      [0 2 -1 0 0 0 0];

internalField   nonuniform List<scalar> 
400
(
8.53285e-09
1.71873e-08
5.91889e-08
6.28805e-07
2.20995e-06
3.66461e-06
4.36304e-06
4.71102e-06
4.82435e-06
4.83648e-06
4.57742e-06
4.32106e-06
3.90547e-06
3.52731e-06
3.07923e-06
2.64204e-06
2.20568e-06
1.7387e-06
1.22666e-06
7.37208e-07
2.79534e-08
2.84214e-07
6.99885e-07
2.01136e-06
3.30457e-06
4.39842e-06
5.33662e-06
6.42249e-06
7.62223e-06
8.87668e-06
9.95463e-06
1.09914e-05
1.16211e-05
1.16014e-05
1.16165e-05
1.07738e-05
9.43379e-06
7.60297e-06
5.12399e-06
3.25718e-06
8.44293e-08
1.18872e-06
2.35273e-06
3.70519e-06
5.73954e-06
8.21487e-06
1.0905e-05
1.3854e-05
1.6734e-05
1.89439e-05
2.04966e-05
2.11266e-05
2.07772e-05
2.03774e-05
1.91512e-05
1.76226e-05
1.50771e-05
1.16327e-05
8.10653e-06
6.24216e-06
2.54236e-07
2.25563e-06
3.65597e-06
5.72906e-06
9.56008e-06
1.38013e-05
1.91345e-05
2.42522e-05
2.77354e-05
3.02948e-05
3.17764e-05
3.25286e-05
3.22066e-05
3.14247e-05
2.96008e-05
2.67538e-05
2.25322e-05
1.68579e-05
1.0537e-05
8.04832e-06
4.91581e-07
3.10264e-06
5.0884e-06
8.5302e-06
1.46698e-05
2.10382e-05
2.74575e-05
3.23373e-05
3.59047e-05
3.67896e-05
3.63338e-05
3.60922e-05
3.52e-05
3.52236e-05
3.45684e-05
3.31809e-05
2.92633e-05
2.21765e-05
1.32586e-05
9.38329e-06
7.54419e-07
3.90092e-06
6.55534e-06
1.17793e-05
1.99961e-05
2.70887e-05
3.41288e-05
3.82394e-05
3.84606e-05
3.75033e-05
3.63907e-05
3.58017e-05
3.45017e-05
3.52049e-05
3.60889e-05
3.66553e-05
3.47663e-05
2.74446e-05
1.612e-05
1.03568e-05
1.04933e-06
4.31034e-06
7.89854e-06
1.48095e-05
2.42793e-05
3.16666e-05
3.81739e-05
3.97134e-05
3.88159e-05
3.71584e-05
3.54586e-05
3.46099e-05
3.28509e-05
3.37742e-05
3.54222e-05
3.74357e-05
3.78435e-05
3.20962e-05
1.91436e-05
1.11706e-05
1.37125e-06
4.53696e-06
8.94e-06
1.7315e-05
2.74848e-05
3.45326e-05
4.03079e-05
4.03495e-05
3.89857e-05
3.68555e-05
3.51774e-05
3.43182e-05
3.26748e-05
3.33395e-05
3.52692e-05
3.78577e-05
3.97922e-05
3.6007e-05
2.23949e-05
1.18377e-05
1.67125e-06
4.68026e-06
9.63086e-06
1.88037e-05
2.87084e-05
3.5967e-05
4.1148e-05
4.06889e-05
3.90709e-05
3.66582e-05
3.45479e-05
3.33904e-05
3.185e-05
3.23438e-05
3.43965e-05
3.73764e-05
4.02615e-05
3.83519e-05
2.53584e-05
1.24611e-05
2.01485e-06
4.45875e-06
9.88581e-06
1.95085e-05
2.97934e-05
3.72501e-05
4.18725e-05
4.13114e-05
3.92086e-05
3.6435e-05
3.37617e-05
3.19219e-05
3.09511e-05
3.17558e-05
3.39963e-05
3.71904e-05
4.03399e-05
4.02648e-05
2.86537e-05
1.30424e-05
2.27259e-06
4.15303e-06
9.54064e-06
1.89148e-05
2.88601e-05
3.62671e-05
4.11566e-05
4.10178e-05
3.87464e-05
3.56609e-05
3.28227e-05
3.09567e-05
3.0667e-05
3.15652e-05
3.37822e-05
3.69959e-05
3.95032e-05
4.07883e-05
3.12346e-05
1.36529e-05
2.46199e-06
3.72195e-06
8.48017e-06
1.75206e-05
2.75837e-05
3.49633e-05
4.06833e-05
4.08835e-05
3.89159e-05
3.6033e-05
3.29538e-05
3.09542e-05
3.08522e-05
3.16992e-05
3.38105e-05
3.69078e-05
3.89538e-05
4.09052e-05
3.3853e-05
1.43052e-05
2.44208e-06
3.23907e-06
7.2574e-06
1.52101e-05
2.48592e-05
3.20126e-05
3.82908e-05
4.04903e-05
3.92258e-05
3.69981e-05
3.42546e-05
3.23636e-05
3.23412e-05
3.31123e-05
3.47622e-05
3.68854e-05
3.85233e-05
4.05844e-05
3.57666e-05
1.50693e-05
2.28641e-06
2.76715e-06
6.08836e-06
1.19222e-05
2.17093e-05
2.86524e-05
3.46132e-05
3.89868e-05
3.96908e-05
3.86785e-05
3.66322e-05
3.48849e-05
3.4761e-05
3.50925e-05
3.57335e-05
3.65645e-05
3.70144e-05
3.9587e-05
3.64009e-05
1.59816e-05
1.90005e-06
2.30831e-06
4.75658e-06
8.78141e-06
1.61125e-05
2.30796e-05
2.84712e-05
3.28515e-05
3.55843e-05
3.6802e-05
3.69579e-05
3.63431e-05
3.62469e-05
3.59592e-05
3.54001e-05
3.51282e-05
3.54105e-05
3.83714e-05
3.71854e-05
1.71631e-05
1.12414e-06
1.79248e-06
3.52783e-06
6.6971e-06
1.19239e-05
1.81847e-05
2.31364e-05
2.68405e-05
2.96619e-05
3.13796e-05
3.25951e-05
3.31219e-05
3.29093e-05
3.25403e-05
3.20457e-05
3.21939e-05
3.32924e-05
3.68974e-05
3.72193e-05
1.86798e-05
3.24083e-07
1.2293e-06
2.43154e-06
4.05815e-06
6.73299e-06
1.07271e-05
1.4778e-05
1.80743e-05
2.106e-05
2.30101e-05
2.47165e-05
2.55716e-05
2.60877e-05
2.66566e-05
2.74092e-05
2.91981e-05
3.17417e-05
3.55969e-05
3.71936e-05
2.0777e-05
2.17239e-07
1.0137e-06
2.05862e-06
3.45234e-06
5.23325e-06
7.59749e-06
1.00148e-05
1.23189e-05
1.43301e-05
1.62743e-05
1.78298e-05
1.93882e-05
2.06658e-05
2.28184e-05
2.51421e-05
2.91826e-05
3.22212e-05
3.49023e-05
3.71998e-05
2.38492e-05
1.08271e-06
5.97116e-06
8.07113e-06
9.85531e-06
1.17376e-05
1.40348e-05
1.61408e-05
1.87293e-05
2.04169e-05
2.2994e-05
2.46859e-05
2.71457e-05
2.88157e-05
3.12255e-05
3.28123e-05
3.54521e-05
3.61879e-05
3.55859e-05
3.81648e-05
2.9071e-05
1.87941e-05
3.14103e-05
3.49777e-05
3.51268e-05
3.49004e-05
3.45434e-05
3.43141e-05
3.42647e-05
3.42818e-05
3.43465e-05
3.4447e-05
3.4627e-05
3.48287e-05
3.50784e-05
3.54375e-05
3.57493e-05
3.60684e-05
3.65393e-05
3.8284e-05
3.47243e-05
)
;

boundaryField
{
    movingWall
    {
        type            nutkWallFunction;
        Cmu             0.09;
        kappa           0.41;
        E               9.8;
        value           nonuniform List<scalar> 
20
(
0
0
0
0
0
0
0
0
0
0
0
0
0
0
0
0
1.69311e-08
8.94591e-08
3.56907e-07
0
)
;
    }
    fixedWalls
    {
        type            nutkWallFunction;
        Cmu             0.09;
        kappa           0.41;
        E               9.8;
        value           uniform 0;
    }
    frontAndBack
    {
        type            empty;
    }
}


// ************************************************************************* //
