/*--------------------------------*- C++ -*----------------------------------*\
| =========                 |                                                 |
| \\      /  F ield         | OpenFOAM: The Open Source CFD Toolbox           |
|  \\    /   O peration     | Version:  3.0.0                                 |
|   \\  /    A nd           | Web:      www.OpenFOAM.org                      |
|    \\/     M anipulation  |                                                 |
\*---------------------------------------------------------------------------*/
FoamFile
{
    version     2.0;
    format      ascii;
    class       volScalarField;
    location    "7";
    object      omega;
}
// * * * * * * * * * * * * * * * * * * * * * * * * * * * * * * * * * * * * * //

dimensions      [0 0 -1 0 0 0 0];

internalField   nonuniform List<scalar> 
400
(
128.014
128.027
128.094
129
131.549
133.941
135.104
135.688
135.879
135.9
135.466
135.037
134.344
133.717
132.977
132.259
131.546
130.787
129.96
129.175
128.044
46.8658
71.5979
82.5785
83.4696
73.5296
63.0923
52.9206
44.6845
39.2185
36.2463
35.2608
35.9263
38.7663
41.75
47.3807
55.2455
68.388
92.5804
133.27
128.134
47.4991
56.4984
57.425
47.9533
37.1558
30.3708
25.7466
23.5666
22.5926
22.3133
22.6642
24.0335
25.9894
29.5553
35.0576
44.3803
60.0996
90.9489
138.284
128.403
45.8772
46.2699
40.5488
29.7296
23.3021
19.5514
17.2523
16.049
15.2295
14.8816
14.7953
15.4003
16.6914
19.2733
23.8533
32.1675
47.8795
82.1022
141.402
128.781
42.0729
37.7966
29.4972
20.9026
16.923
14.2501
12.5804
11.4084
10.5975
10.2148
10.0945
10.4922
11.6235
13.7733
17.7428
25.1145
39.5073
73.9877
143.747
129.201
38.2002
31.2768
22.6545
16.1929
13.2445
10.9574
9.47853
8.29842
7.52535
7.14833
7.01974
7.27754
8.15266
9.8844
13.2239
19.8292
33.1397
66.5795
145.479
129.674
34.7287
26.7108
18.5705
13.4098
10.9246
8.8081
7.43187
6.34496
5.7382
5.45335
5.37191
5.66289
6.36942
7.7938
10.5907
16.4849
28.7178
60.9132
146.941
130.192
32.5358
23.4466
16.0379
11.642
9.41144
7.41344
6.13583
5.18886
4.70463
4.47861
4.4171
4.65932
5.22198
6.36556
8.69484
13.9994
25.623
56.0136
148.149
130.677
30.6283
21.3141
14.6228
10.7209
8.5307
6.611
5.37294
4.53028
4.11338
3.92787
3.87841
4.08015
4.57677
5.56945
7.57642
12.2951
23.4235
52.9622
149.285
131.234
30.0491
19.8788
13.7679
10.1242
7.97337
6.13572
4.94207
4.1739
3.77356
3.59102
3.55202
3.71434
4.15389
5.03836
6.85615
11.054
21.8412
49.9216
150.351
131.654
31.5643
19.1928
13.5442
10.1313
7.9393
6.14952
4.91813
4.11233
3.65798
3.44358
3.43743
3.57619
3.97288
4.7978
6.51793
10.3368
20.8564
48.4058
151.478
131.963
35.8858
19.4749
13.6849
10.2957
8.07906
6.31023
5.05386
4.22269
3.73603
3.48577
3.45987
3.56385
3.92526
4.71971
6.38918
10.0228
20.3776
47.0171
152.689
131.93
42.9223
20.589
14.1342
10.7382
8.46524
6.71964
5.42676
4.5385
3.99687
3.69372
3.6747
3.77652
4.11085
4.84667
6.40697
9.93246
20.2094
46.6131
154.118
131.676
53.3347
23.3617
15.1306
11.4142
9.08591
7.34367
6.05218
5.14296
4.55044
4.18185
4.16892
4.28138
4.63289
5.37472
6.92805
10.3186
20.6349
48.4144
155.838
131.048
62.7304
28.2532
17.2949
12.7787
10.2098
8.44323
7.1382
6.1989
5.5975
5.15113
5.08635
5.18405
5.50737
6.19717
7.72529
11.1801
21.9253
50.7517
158.09
129.795
71.4941
35.5702
20.5985
14.7495
11.6701
9.67712
8.34687
7.40848
6.87304
6.44524
6.3507
6.43094
6.73664
7.43716
9.10603
12.8589
24.445
55.1099
161.017
128.515
69.7246
42.4318
27.5283
19.4315
14.9531
12.2268
10.4572
9.2273
8.58234
8.08089
8.01687
8.13366
8.55759
9.50582
11.7076
16.2763
29.5532
62.5828
165.134
128.345
59.2778
42.792
31.6259
24.4655
19.8511
16.7104
14.6343
13.0909
12.2576
11.7239
11.8001
12.1389
13.0643
14.8347
18.7926
25.1536
41.846
77.9008
171.307
129.729
51.0243
46.2644
41.3304
36.998
33.7627
31.5732
30.3636
30.3028
30.697
31.6403
33.7151
35.7409
39.7197
42.8151
50.477
60.5439
84.4457
119.461
182.171
161.24
187.183
194.997
195.33
194.828
194.039
193.533
193.424
193.461
193.604
193.825
194.222
194.668
195.221
196.019
196.713
197.425
198.478
202.41
194.435
)
;

boundaryField
{
    movingWall
    {
        Cmu             0.09;
        kappa           0.41;
        E               9.8;
        beta1           0.075;
        type            omegaWallFunction;
        value           nonuniform List<scalar> 
20
(
161.24
187.183
194.997
195.33
194.828
194.039
193.533
193.424
193.461
193.604
193.825
194.222
194.668
195.221
196.019
196.713
197.425
198.478
202.41
194.435
)
;
    }
    fixedWalls
    {
        Cmu             0.09;
        kappa           0.41;
        E               9.8;
        beta1           0.075;
        type            omegaWallFunction;
        value           nonuniform List<scalar> 
60
(
128.014
128.044
128.134
128.403
128.781
129.201
129.674
130.192
130.677
131.234
131.654
131.963
131.93
131.676
131.048
129.795
128.515
128.345
129.729
161.24
129.175
133.27
138.284
141.402
143.747
145.479
146.941
148.149
149.285
150.351
151.478
152.689
154.118
155.838
158.09
161.017
165.134
171.307
182.171
194.435
128.014
128.027
128.094
129
131.549
133.941
135.104
135.688
135.879
135.9
135.466
135.037
134.344
133.717
132.977
132.259
131.546
130.787
129.96
129.175
)
;
    }
    frontAndBack
    {
        type            empty;
    }
}


// ************************************************************************* //
