/*--------------------------------*- C++ -*----------------------------------*\
| =========                 |                                                 |
| \\      /  F ield         | OpenFOAM: The Open Source CFD Toolbox           |
|  \\    /   O peration     | Version:  3.0.0                                 |
|   \\  /    A nd           | Web:      www.OpenFOAM.org                      |
|    \\/     M anipulation  |                                                 |
\*---------------------------------------------------------------------------*/
FoamFile
{
    version     2.0;
    format      ascii;
    class       volScalarField;
    location    "7";
    object      p;
}
// * * * * * * * * * * * * * * * * * * * * * * * * * * * * * * * * * * * * * //

dimensions      [0 2 -2 0 0 0 0];

internalField   nonuniform List<scalar> 
400
(
8.68062e-08
-8.60395e-05
-0.000184534
-0.000215152
-0.000543001
-0.00174999
-0.00360023
-0.00550539
-0.00710903
-0.00823128
-0.00877309
-0.00861743
-0.0077019
-0.00600119
-0.00350364
-0.00032237
0.00325032
0.00650188
0.00854898
0.00903247
1.56508e-05
-6.01196e-05
-0.000133858
-0.000518005
-0.00146616
-0.00299421
-0.00479424
-0.00653908
-0.00803477
-0.00908091
-0.00957767
-0.00945483
-0.00867621
-0.00716238
-0.00490585
-0.00195059
0.00145433
0.00477856
0.00719799
0.0083964
0.000247176
-1.08443e-05
-0.000537052
-0.00153389
-0.00305127
-0.00485348
-0.00665986
-0.00833143
-0.00970392
-0.0106048
-0.0110022
-0.0108649
-0.010163
-0.00887139
-0.00697621
-0.00449476
-0.00152952
0.00165854
0.00449729
0.00621945
0.000291404
-0.000248315
-0.00136395
-0.00302942
-0.00498871
-0.00695351
-0.00873511
-0.0102028
-0.011277
-0.0119647
-0.0122557
-0.0121246
-0.0115453
-0.0104949
-0.00896372
-0.00696202
-0.00451916
-0.00172178
0.00104689
0.00286261
-0.000267714
-0.00106699
-0.00266066
-0.00476757
-0.00691635
-0.00884776
-0.0104524
-0.0116925
-0.0125717
-0.0131191
-0.0133378
-0.0132168
-0.0127383
-0.0118878
-0.0106618
-0.00907165
-0.0071283
-0.00483625
-0.00242046
-0.000741616
-0.00149037
-0.0024306
-0.0042795
-0.00648734
-0.00859933
-0.0103775
-0.011784
-0.0128416
-0.0135887
-0.0140472
-0.0142253
-0.0141209
-0.0137255
-0.0130324
-0.012044
-0.0107747
-0.00924338
-0.00743357
-0.00557893
-0.00403957
-0.00310299
-0.00408126
-0.00593486
-0.00802336
-0.00997235
-0.0115571
-0.0127892
-0.0137094
-0.0143592
-0.0147575
-0.014915
-0.014833
-0.0145076
-0.0139374
-0.0131292
-0.012099
-0.0108883
-0.0094709
-0.00809539
-0.00678488
-0.00471534
-0.00562587
-0.00735003
-0.00926448
-0.0110198
-0.0124224
-0.013515
-0.0143323
-0.0149106
-0.0152677
-0.0154149
-0.0153547
-0.015085
-0.0146071
-0.013932
-0.0130729
-0.0121013
-0.0109765
-0.00996837
-0.0088695
-0.0059874
-0.00682155
-0.00839113
-0.0101487
-0.0117358
-0.0129944
-0.013985
-0.01473
-0.0152592
-0.0155891
-0.0157304
-0.0156861
-0.0154555
-0.0150407
-0.0144565
-0.0137069
-0.0129095
-0.0119549
-0.0112288
-0.0102982
-0.0067999
-0.00754221
-0.00898694
-0.0106386
-0.012109
-0.013278
-0.014209
-0.0149124
-0.0154141
-0.0157286
-0.0158662
-0.01583
-0.0156209
-0.0152405
-0.0147083
-0.014007
-0.0133493
-0.01242
-0.0119635
-0.0110703
-0.00708412
-0.00777557
-0.00912948
-0.0107275
-0.0121397
-0.0132814
-0.0141928
-0.0148855
-0.0153806
-0.0156914
-0.015827
-0.0157904
-0.0155846
-0.01521
-0.0146891
-0.013988
-0.0134265
-0.0123861
-0.0122149
-0.0112052
-0.00684497
-0.00752839
-0.00883053
-0.0104167
-0.0118338
-0.0130005
-0.0139341
-0.0146486
-0.0151607
-0.0154809
-0.015617
-0.0155721
-0.0153507
-0.0149529
-0.0144011
-0.0136868
-0.0130706
-0.0119664
-0.0120061
-0.0107176
-0.00617615
-0.00689467
-0.00817598
-0.00973381
-0.0112078
-0.012436
-0.0134288
-0.014198
-0.0147526
-0.0150977
-0.0152394
-0.0151791
-0.0149241
-0.0144737
-0.013857
-0.0130784
-0.0123347
-0.011213
-0.0112761
-0.0096935
-0.00531411
-0.00602479
-0.00724275
-0.00870912
-0.0102401
-0.011564
-0.0126605
-0.0135243
-0.0141525
-0.0145427
-0.0146987
-0.0146195
-0.014315
-0.0137849
-0.013066
-0.0121654
-0.0112608
-0.0100976
-0.0100671
-0.0082509
-0.00450092
-0.00511541
-0.00614973
-0.0074385
-0.00893456
-0.0103691
-0.0116153
-0.0126193
-0.0133577
-0.0138186
-0.0140042
-0.01391
-0.0135469
-0.0129143
-0.0120566
-0.0109821
-0.00988239
-0.00860384
-0.00842156
-0.00640638
-0.0040309
-0.00431761
-0.0049412
-0.00593739
-0.0073176
-0.00885106
-0.0102845
-0.0114775
-0.0123711
-0.0129371
-0.0131756
-0.0130795
-0.0126638
-0.0119189
-0.0108939
-0.00959955
-0.00824107
-0.00672606
-0.00629572
-0.00386791
-0.00397999
-0.00376451
-0.00370993
-0.00427752
-0.00548612
-0.0070809
-0.00870727
-0.0101254
-0.011222
-0.011941
-0.0122747
-0.012211
-0.0117585
-0.0109041
-0.00969566
-0.00813522
-0.00640893
-0.00444878
-0.00338745
0.000549733
-0.00353615
-0.00309092
-0.00240807
-0.00254998
-0.00360097
-0.00524682
-0.0070354
-0.00864807
-0.00994779
-0.0108447
-0.0113037
-0.0113018
-0.0108532
-0.00994172
-0.00857925
-0.00673212
-0.00449561
-0.00169316
0.00102104
0.00914134
-0.00421845
-0.00277509
-0.00139363
-0.00120042
-0.00217773
-0.00386031
-0.00576356
-0.00753451
-0.00898769
-0.0100235
-0.0105913
-0.010677
-0.0102596
-0.00932158
-0.00780727
-0.00560934
-0.00262405
0.00176187
0.00781941
0.0225669
-0.00213797
0.000806006
0.000825477
9.58915e-05
-0.0011877
-0.0029471
-0.00492228
-0.00680888
-0.00836359
-0.00947372
-0.0100873
-0.0101862
-0.00974456
-0.00873198
-0.00707682
-0.00460365
-0.000442778
0.00639325
0.0172293
0.0350561
)
;

boundaryField
{
    movingWall
    {
        type            zeroGradient;
    }
    fixedWalls
    {
        type            zeroGradient;
    }
    frontAndBack
    {
        type            empty;
    }
}


// ************************************************************************* //
