/*--------------------------------*- C++ -*----------------------------------*\
| =========                 |                                                 |
| \\      /  F ield         | OpenFOAM: The Open Source CFD Toolbox           |
|  \\    /   O peration     | Version:  3.0.0                                 |
|   \\  /    A nd           | Web:      www.OpenFOAM.org                      |
|    \\/     M anipulation  |                                                 |
\*---------------------------------------------------------------------------*/
FoamFile
{
    version     2.0;
    format      ascii;
    class       surfaceScalarField;
    location    "7";
    object      phi;
}
// * * * * * * * * * * * * * * * * * * * * * * * * * * * * * * * * * * * * * //

dimensions      [0 3 -1 0 0 0 0];

internalField   nonuniform List<scalar> 
760
(
2.52176e-07
-2.52184e-07
1.86491e-07
6.56844e-08
-2.8441e-07
4.70901e-07
-1.43023e-06
1.14582e-06
-3.06871e-06
1.63848e-06
-4.62661e-06
1.5579e-06
-5.9282e-06
1.30159e-06
-6.96429e-06
1.03609e-06
-7.70003e-06
7.35743e-07
-8.21506e-06
5.15022e-07
-8.48128e-06
2.66222e-07
-8.55514e-06
7.3859e-08
-8.38032e-06
-1.74818e-07
-7.99774e-06
-3.82579e-07
-7.30263e-06
-6.95107e-07
-6.28444e-06
-1.0182e-06
-4.84579e-06
-1.43864e-06
-3.05112e-06
-1.79467e-06
-1.11966e-06
-1.93146e-06
-1.11966e-06
-1.25128e-07
-1.27057e-07
-8.51378e-07
7.91934e-07
-2.29706e-06
1.91658e-06
-4.03229e-06
2.88105e-06
-5.34696e-06
2.95315e-06
-6.40338e-06
2.61433e-06
-7.28147e-06
2.17968e-06
-7.93641e-06
1.69103e-06
-8.44725e-06
1.24658e-06
-8.75049e-06
8.18269e-07
-8.88584e-06
4.01567e-07
-8.79333e-06
-1.86469e-08
-8.58707e-06
-3.81077e-07
-8.17417e-06
-7.95483e-07
-7.56642e-06
-1.30286e-06
-6.67741e-06
-1.90721e-06
-5.46722e-06
-2.64883e-06
-3.82773e-06
-3.43416e-06
-1.86052e-06
-3.89868e-06
-2.98018e-06
-8.09134e-07
6.82078e-07
-2.15566e-06
2.13846e-06
-3.69929e-06
3.46021e-06
-4.86915e-06
4.05091e-06
-5.73687e-06
3.82087e-06
-6.43625e-06
3.3137e-06
-6.93705e-06
2.68048e-06
-7.25471e-06
2.00869e-06
-7.42588e-06
1.41774e-06
-7.46007e-06
8.52468e-07
-7.42071e-06
3.62203e-07
-7.32384e-06
-1.15512e-07
-7.11806e-06
-5.86866e-07
-6.79122e-06
-1.12232e-06
-6.3412e-06
-1.75287e-06
-5.71332e-06
-2.5351e-06
-4.8596e-06
-3.50255e-06
-3.66931e-06
-4.62444e-06
-2.06028e-06
-5.5077e-06
-5.04046e-06
-1.19791e-06
1.87999e-06
-2.66954e-06
3.61009e-06
-3.90553e-06
4.69619e-06
-4.71581e-06
4.86119e-06
-5.25972e-06
4.36478e-06
-5.59188e-06
3.64587e-06
-5.7483e-06
2.8369e-06
-5.82691e-06
2.08731e-06
-5.8552e-06
1.44603e-06
-5.86089e-06
8.5815e-07
-5.81728e-06
3.18596e-07
-5.71662e-06
-2.16167e-07
-5.53782e-06
-7.65672e-07
-5.27762e-06
-1.38252e-06
-4.92674e-06
-2.10375e-06
-4.47493e-06
-2.9869e-06
-3.88954e-06
-4.08794e-06
-3.05882e-06
-5.45516e-06
-1.77957e-06
-6.78695e-06
-6.82004e-06
-1.29844e-06
3.17843e-06
-2.56593e-06
4.87758e-06
-3.44969e-06
5.57995e-06
-4.00404e-06
5.41553e-06
-4.29766e-06
4.6584e-06
-4.43105e-06
3.77926e-06
-4.49522e-06
2.90107e-06
-4.54066e-06
2.13274e-06
-4.55164e-06
1.45701e-06
-4.53531e-06
8.41823e-07
-4.48043e-06
2.63715e-07
-4.38036e-06
-3.16233e-07
-4.22231e-06
-9.23724e-07
-4.00456e-06
-1.60028e-06
-3.72265e-06
-2.38566e-06
-3.3773e-06
-3.33225e-06
-2.95652e-06
-4.50873e-06
-2.38082e-06
-6.03086e-06
-1.45496e-06
-7.71281e-06
-8.275e-06
-1.12029e-06
4.29872e-06
-2.1037e-06
5.86099e-06
-2.75053e-06
6.22679e-06
-3.12457e-06
5.78957e-06
-3.29803e-06
4.83186e-06
-3.37644e-06
3.85766e-06
-3.4192e-06
2.94384e-06
-3.44693e-06
2.16047e-06
-3.45257e-06
1.46264e-06
-3.43446e-06
8.23714e-07
-3.38464e-06
2.13898e-07
-3.29785e-06
-4.03026e-07
-3.16601e-06
-1.05556e-06
-2.98667e-06
-1.77962e-06
-2.76068e-06
-2.61164e-06
-2.49402e-06
-3.59891e-06
-2.20144e-06
-4.80131e-06
-1.82615e-06
-6.40614e-06
-1.12813e-06
-8.41084e-06
-9.40313e-06
-8.67076e-07
5.1658e-06
-1.55347e-06
6.54738e-06
-2.01377e-06
6.6871e-06
-2.26546e-06
6.04126e-06
-2.38763e-06
4.95403e-06
-2.44732e-06
3.91736e-06
-2.48607e-06
2.98259e-06
-2.50953e-06
2.18393e-06
-2.51668e-06
1.46979e-06
-2.50561e-06
8.12642e-07
-2.47055e-06
1.78836e-07
-2.40666e-06
-4.66911e-07
-2.30713e-06
-1.15509e-06
-2.16879e-06
-1.91796e-06
-1.99448e-06
-2.78594e-06
-1.78968e-06
-3.80372e-06
-1.56902e-06
-5.02197e-06
-1.30523e-06
-6.66994e-06
-9.00409e-07
-8.81565e-06
-1.03035e-05
-5.40116e-07
5.70591e-06
-1.00163e-06
7.00889e-06
-1.32359e-06
7.00906e-06
-1.49058e-06
6.20826e-06
-1.58005e-06
5.0435e-06
-1.63007e-06
3.96738e-06
-1.66757e-06
3.02008e-06
-1.69126e-06
2.20762e-06
-1.70236e-06
1.48089e-06
-1.69988e-06
8.10165e-07
-1.68065e-06
1.59608e-07
-1.6413e-06
-5.06264e-07
-1.57691e-06
-1.21948e-06
-1.48378e-06
-2.0111e-06
-1.36463e-06
-2.90509e-06
-1.22679e-06
-3.94156e-06
-1.08514e-06
-5.16362e-06
-9.18488e-07
-6.83659e-06
-6.59496e-07
-9.07465e-06
-1.0963e-05
-2.74641e-07
5.98055e-06
-5.20865e-07
7.25511e-06
-6.95154e-07
7.18335e-06
-7.93586e-07
6.30669e-06
-8.57759e-07
5.10767e-06
-9.00042e-07
4.00966e-06
-9.34868e-07
3.05491e-06
-9.58315e-07
2.23107e-06
-9.72453e-07
1.49503e-06
-9.77412e-07
8.15124e-07
-9.72398e-07
1.54594e-07
-9.56025e-07
-5.22637e-07
-9.26338e-07
-1.24917e-06
-8.79746e-07
-2.05769e-06
-8.18466e-07
-2.96637e-06
-7.43358e-07
-4.01667e-06
-6.82872e-07
-5.22411e-06
-6.12068e-07
-6.90739e-06
-5.14235e-07
-9.17248e-06
-1.14773e-05
2.04148e-08
5.96014e-06
-7.2683e-08
7.34821e-06
-1.29134e-07
7.2398e-06
-1.69278e-07
6.34683e-06
-1.9896e-07
5.13735e-06
-2.30268e-07
4.04097e-06
-2.5765e-07
3.08229e-06
-2.7864e-07
2.25206e-06
-2.94409e-07
1.5108e-06
-3.05889e-07
8.26603e-07
-3.14248e-07
1.62953e-07
-3.19956e-07
-5.16928e-07
-3.23781e-07
-1.24534e-06
-3.24422e-07
-2.05705e-06
-3.22725e-07
-2.96806e-06
-3.22825e-07
-4.01657e-06
-3.52819e-07
-5.19411e-06
-3.70252e-07
-6.88996e-06
-3.64103e-07
-9.17863e-06
-1.18414e-05
2.5584e-07
5.7043e-06
3.70702e-07
7.23335e-06
4.51673e-07
7.15883e-06
4.47693e-07
6.35081e-06
4.33372e-07
5.15168e-06
4.14088e-07
4.06025e-06
3.94321e-07
3.10206e-06
3.77114e-07
2.26927e-06
3.60463e-07
1.52745e-06
3.42585e-07
8.44482e-07
3.2059e-07
1.84948e-07
2.92408e-07
-4.88746e-07
2.5555e-07
-1.20849e-06
2.07567e-07
-2.00906e-06
1.52803e-07
-2.9133e-06
5.14025e-08
-3.91517e-06
-2.3069e-09
-5.1404e-06
-1.66018e-07
-6.72625e-06
-2.77684e-07
-9.06696e-06
-1.21191e-05
5.10978e-07
5.19332e-06
8.07383e-07
6.93695e-06
9.97661e-07
6.96855e-06
1.03786e-06
6.31062e-06
1.04649e-06
5.14304e-06
1.04636e-06
4.06038e-06
1.04218e-06
3.10624e-06
1.03436e-06
2.27709e-06
1.02002e-06
1.54179e-06
9.97042e-07
8.67458e-07
9.61389e-07
2.206e-07
9.09648e-07
-4.37004e-07
8.37065e-07
-1.1359e-06
7.41679e-07
-1.91368e-06
6.10694e-07
-2.78231e-06
4.65588e-07
-3.77006e-06
2.60886e-07
-4.9357e-06
-8.15269e-09
-6.45721e-06
-1.50397e-07
-8.92472e-06
-1.22695e-05
7.4164e-07
4.45168e-06
1.1968e-06
6.48179e-06
1.5183e-06
6.64704e-06
1.65734e-06
6.17158e-06
1.69934e-06
5.10105e-06
1.72294e-06
4.03678e-06
1.73437e-06
3.09481e-06
1.73486e-06
2.2766e-06
1.72173e-06
1.55491e-06
1.69248e-06
8.96713e-07
1.64156e-06
2.71516e-07
1.56396e-06
-3.59405e-07
1.45288e-06
-1.02482e-06
1.30347e-06
-1.76427e-06
1.10701e-06
-2.58586e-06
8.79617e-07
-3.54267e-06
5.61535e-07
-4.61762e-06
2.39297e-07
-6.13497e-06
-4.3411e-09
-8.68108e-06
-1.22738e-05
9.72676e-07
3.47901e-06
1.5958e-06
5.85866e-06
1.99594e-06
6.24691e-06
2.24022e-06
5.9273e-06
2.34243e-06
4.99883e-06
2.41052e-06
3.96869e-06
2.45594e-06
3.0494e-06
2.48003e-06
2.25251e-06
2.47959e-06
1.55536e-06
2.45162e-06
9.24679e-07
2.38864e-06
3.34491e-07
2.28468e-06
-2.55444e-07
2.13207e-06
-8.72204e-07
1.92537e-06
-1.55757e-06
1.65398e-06
-2.31447e-06
1.3242e-06
-3.21288e-06
8.95472e-07
-4.18889e-06
4.79927e-07
-5.71943e-06
1.28004e-07
-8.32916e-06
-1.21458e-05
1.10745e-06
2.37155e-06
1.86024e-06
5.10587e-06
2.41361e-06
5.69354e-06
2.83631e-06
5.5046e-06
3.07136e-06
4.76378e-06
3.20872e-06
3.83133e-06
3.29341e-06
2.96471e-06
3.34006e-06
2.20586e-06
3.34844e-06
1.54697e-06
3.31725e-06
9.55876e-07
3.23787e-06
4.13873e-07
3.10149e-06
-1.19074e-07
2.90189e-06
-6.72596e-07
2.63074e-06
-1.28641e-06
2.27083e-06
-1.95457e-06
1.82592e-06
-2.76797e-06
1.27271e-06
-3.63569e-06
7.34967e-07
-5.18168e-06
2.64942e-07
-7.85913e-06
-1.18808e-05
1.11485e-06
1.2567e-06
1.94978e-06
4.27095e-06
2.63485e-06
5.00847e-06
3.2425e-06
4.89696e-06
3.67649e-06
4.32979e-06
3.95924e-06
3.54857e-06
4.1399e-06
2.78405e-06
4.2476e-06
2.09815e-06
4.29054e-06
1.50403e-06
4.27259e-06
9.73832e-07
4.18646e-06
4.99999e-07
4.0318e-06
3.55897e-08
3.78578e-06
-4.26583e-07
3.44752e-06
-9.4815e-07
2.9879e-06
-1.49495e-06
2.41335e-06
-2.19341e-06
1.71799e-06
-2.94033e-06
1.03243e-06
-4.49612e-06
4.40151e-07
-7.26685e-06
-1.14407e-05
6.16771e-07
6.39926e-07
1.72381e-06
3.16391e-06
2.71677e-06
4.0155e-06
3.57686e-06
4.03687e-06
4.26473e-06
3.64192e-06
4.75577e-06
3.05753e-06
5.08857e-06
2.45125e-06
5.29458e-06
1.89214e-06
5.39491e-06
1.4037e-06
5.40442e-06
9.64321e-07
5.31859e-06
5.8583e-07
5.13675e-06
2.17432e-07
4.83468e-06
-1.2451e-07
4.42484e-06
-5.38313e-07
3.85719e-06
-9.27301e-07
3.15424e-06
-1.49047e-06
2.31817e-06
-2.10426e-06
1.45946e-06
-3.63741e-06
6.51601e-07
-6.45899e-06
-1.07891e-05
1.4035e-08
6.25891e-07
9.82167e-07
2.19578e-06
2.1493e-06
2.84837e-06
3.33048e-06
2.8557e-06
4.34461e-06
2.62779e-06
5.13782e-06
2.26433e-06
5.71368e-06
1.87539e-06
6.10868e-06
1.49715e-06
6.3412e-06
1.17118e-06
6.4377e-06
8.67814e-07
6.39804e-06
6.25494e-07
6.24954e-06
3.65928e-07
5.97043e-06
1.54604e-07
5.55897e-06
-1.26856e-07
4.97264e-06
-3.4097e-07
4.24933e-06
-7.67154e-07
3.36405e-06
-1.21898e-06
2.37223e-06
-2.64559e-06
1.14066e-06
-5.22742e-06
-9.64844e-06
-1.06245e-06
1.68834e-06
-1.65773e-07
1.2991e-06
1.37727e-06
1.30532e-06
2.8926e-06
1.34036e-06
4.18952e-06
1.33088e-06
5.24555e-06
1.20829e-06
6.07289e-06
1.04805e-06
6.69832e-06
8.71719e-07
7.14286e-06
7.26642e-07
7.42589e-06
5.84787e-07
7.58314e-06
4.68245e-07
7.60481e-06
3.44253e-07
7.51475e-06
2.44662e-07
7.27264e-06
1.15257e-07
6.9199e-06
1.17728e-08
6.40378e-06
-2.51037e-07
5.72481e-06
-5.40011e-07
4.67245e-06
-1.59323e-06
2.63934e-06
-3.1943e-06
-7.0091e-06
1.68834e-06
2.98744e-06
4.29277e-06
5.63313e-06
6.96401e-06
8.1723e-06
9.22035e-06
1.00921e-05
1.08187e-05
1.14035e-05
1.18717e-05
1.2216e-05
1.24607e-05
1.25759e-05
1.25877e-05
1.23366e-05
1.17966e-05
1.02034e-05
7.0091e-06
)
;

boundaryField
{
    movingWall
    {
        type            calculated;
        value           uniform 0;
    }
    fixedWalls
    {
        type            calculated;
        value           uniform 0;
    }
    frontAndBack
    {
        type            empty;
        value           nonuniform 0();
    }
}


// ************************************************************************* //
