/*--------------------------------*- C++ -*----------------------------------*\
| =========                 |                                                 |
| \\      /  F ield         | OpenFOAM: The Open Source CFD Toolbox           |
|  \\    /   O peration     | Version:  3.0.0                                 |
|   \\  /    A nd           | Web:      www.OpenFOAM.org                      |
|    \\/     M anipulation  |                                                 |
\*---------------------------------------------------------------------------*/
FoamFile
{
    version     2.0;
    format      ascii;
    class       volVectorField;
    location    "7";
    object      U;
}
// * * * * * * * * * * * * * * * * * * * * * * * * * * * * * * * * * * * * * //

dimensions      [0 1 -1 0 0 0 0];

internalField   nonuniform List<vector> 
400
(
(0.00284976 -0.00347714 0)
(0.00669412 -0.00137746 0)
(0.000279739 0.00122722 0)
(-0.010308 0.00653635 0)
(-0.0431611 0.0157823 0)
(-0.0826485 0.0165535 0)
(-0.108696 0.0131019 0)
(-0.133553 0.0114385 0)
(-0.148471 0.00852699 0)
(-0.161907 0.00653405 0)
(-0.168347 0.00387396 0)
(-0.171686 0.00231371 0)
(-0.171369 -0.00135798 0)
(-0.164345 -0.00333803 0)
(-0.153323 -0.00745751 0)
(-0.134309 -0.0101589 0)
(-0.109369 -0.0143786 0)
(-0.0763813 -0.016174 0)
(-0.0416726 -0.0164519 0)
(-0.00775899 -0.00343101 0)
(0.000835543 -0.0075463 0)
(-0.00625278 0.00399268 0)
(-0.025703 0.0196485 0)
(-0.0633219 0.0420888 0)
(-0.0974436 0.0472057 0)
(-0.121011 0.0417026 0)
(-0.140175 0.035592 0)
(-0.154023 0.0279616 0)
(-0.166114 0.019487 0)
(-0.173454 0.0128721 0)
(-0.177975 0.00596654 0)
(-0.178287 7.21668e-05 0)
(-0.175308 -0.00684761 0)
(-0.168553 -0.0139948 0)
(-0.157595 -0.0232847 0)
(-0.14138 -0.0340251 0)
(-0.119487 -0.0469209 0)
(-0.0912668 -0.0586251 0)
(-0.0578177 -0.0608308 0)
(-0.0172105 -0.037129 0)
(-0.00586936 0.00344813 0)
(-0.0262113 0.0297229 0)
(-0.057499 0.0563141 0)
(-0.0891622 0.0700973 0)
(-0.109317 0.0672994 0)
(-0.124311 0.0591585 0)
(-0.135448 0.0478172 0)
(-0.144052 0.0359332 0)
(-0.148123 0.0264977 0)
(-0.149391 0.0165738 0)
(-0.149525 0.00775582 0)
(-0.147921 -0.00132495 0)
(-0.145546 -0.0104013 0)
(-0.139599 -0.0206564 0)
(-0.131853 -0.0326991 0)
(-0.120128 -0.0476534 0)
(-0.104831 -0.0660057 0)
(-0.0836653 -0.0865778 0)
(-0.0566841 -0.101005 0)
(-0.0212815 -0.0860078 0)
(-0.00934027 0.0260747 0)
(-0.0378807 0.0589212 0)
(-0.0696178 0.0832865 0)
(-0.0901005 0.0884857 0)
(-0.102469 0.0812689 0)
(-0.110759 0.0691268 0)
(-0.114774 0.0551189 0)
(-0.116284 0.0413016 0)
(-0.116685 0.0286572 0)
(-0.117655 0.0170657 0)
(-0.117155 0.00677499 0)
(-0.115931 -0.00339331 0)
(-0.113096 -0.0137615 0)
(-0.108652 -0.0254948 0)
(-0.102417 -0.0393068 0)
(-0.0942808 -0.0564407 0)
(-0.0834602 -0.0779396 0)
(-0.0681545 -0.103818 0)
(-0.0477468 -0.126723 0)
(-0.0184272 -0.123959 0)
(-0.0108331 0.050296 0)
(-0.0413533 0.0845912 0)
(-0.0642773 0.102069 0)
(-0.0782783 0.102227 0)
(-0.0851633 0.0901175 0)
(-0.0884031 0.0746351 0)
(-0.0894112 0.0579743 0)
(-0.0903283 0.042768 0)
(-0.0909054 0.0292788 0)
(-0.0911148 0.0170533 0)
(-0.0904427 0.00576595 0)
(-0.08902 -0.00542059 0)
(-0.0864137 -0.0170337 0)
(-0.0825944 -0.0299974 0)
(-0.0775238 -0.045151 0)
(-0.0713024 -0.0636556 0)
(-0.0637574 -0.0870578 0)
(-0.0521707 -0.117544 0)
(-0.0380291 -0.148675 0)
(-0.0158041 -0.154961 0)
(-0.00909028 0.0733694 0)
(-0.0363412 0.107025 0)
(-0.0517741 0.117367 0)
(-0.0622439 0.111678 0)
(-0.0654701 0.0951193 0)
(-0.0670086 0.0768588 0)
(-0.0676909 0.0588778 0)
(-0.0686003 0.043254 0)
(-0.0690047 0.0293984 0)
(-0.0690151 0.0167566 0)
(-0.0683995 0.00476978 0)
(-0.0671105 -0.00725896 0)
(-0.0649177 -0.0198846 0)
(-0.0617471 -0.0338705 0)
(-0.0575968 -0.0499821 0)
(-0.0526301 -0.0692014 0)
(-0.0473845 -0.092872 0)
(-0.038566 -0.12432 0)
(-0.0318064 -0.163411 0)
(-0.00869954 -0.179201 0)
(-0.00757084 0.0938885 0)
(-0.0281987 0.122836 0)
(-0.037708 0.128065 0)
(-0.0459212 0.11795 0)
(-0.0469618 0.0979339 0)
(-0.0483176 0.0779981 0)
(-0.0490617 0.0594617 0)
(-0.0499147 0.0435907 0)
(-0.0502461 0.0294208 0)
(-0.0503127 0.0163995 0)
(-0.049912 0.00387936 0)
(-0.0489773 -0.00882488 0)
(-0.0473324 -0.0223055 0)
(-0.0449047 -0.0372231 0)
(-0.0416938 -0.0542585 0)
(-0.0376193 -0.0743541 0)
(-0.0343058 -0.0986281 0)
(-0.0265394 -0.131417 0)
(-0.0253064 -0.17305 0)
(-0.0064702 -0.198611 0)
(-0.00399315 0.108207 0)
(-0.0184854 0.135589 0)
(-0.0247505 0.137167 0)
(-0.0307253 0.122559 0)
(-0.0306292 0.100164 0)
(-0.0320285 0.0789973 0)
(-0.0327686 0.0601293 0)
(-0.0335494 0.0439903 0)
(-0.0339035 0.029552 0)
(-0.0340744 0.0162338 0)
(-0.0339102 0.00333493 0)
(-0.0333597 -0.0098419 0)
(-0.0322974 -0.0239179 0)
(-0.0306655 -0.0394983 0)
(-0.0285631 -0.0571126 0)
(-0.0253114 -0.077648 0)
(-0.0241984 -0.101884 0)
(-0.0174578 -0.135266 0)
(-0.0206931 -0.179121 0)
(-0.0020802 -0.213459 0)
(-0.00157603 0.117661 0)
(-0.0100735 0.142309 0)
(-0.0129928 0.14166 0)
(-0.0167813 0.125057 0)
(-0.0161597 0.101397 0)
(-0.0175458 0.0797575 0)
(-0.0182038 0.0607808 0)
(-0.0188911 0.0444213 0)
(-0.0192681 0.02978 0)
(-0.0195207 0.0162449 0)
(-0.0195634 0.00309015 0)
(-0.0193645 -0.0103952 0)
(-0.018869 -0.024861 0)
(-0.0180136 -0.0409375 0)
(-0.0171832 -0.059036 0)
(-0.0146387 -0.0799689 0)
(-0.015921 -0.104221 0)
(-0.00956401 -0.138022 0)
(-0.0168226 -0.182671 0)
(-0.000607567 -0.225121 0)
(0.00241494 0.120419 0)
(-0.00169578 0.147387 0)
(-0.00204198 0.145404 0)
(-0.00407417 0.127062 0)
(-0.00324192 0.102908 0)
(-0.0043268 0.0807244 0)
(-0.00477459 0.0614723 0)
(-0.00532384 0.0448742 0)
(-0.00568688 0.0300696 0)
(-0.00599783 0.0164007 0)
(-0.00622616 0.00312489 0)
(-0.00636059 -0.0104904 0)
(-0.00644165 -0.025098 0)
(-0.00631132 -0.0413617 0)
(-0.00687334 -0.0596338 0)
(-0.0050714 -0.0805282 0)
(-0.00904125 -0.104693 0)
(-0.00303992 -0.138103 0)
(-0.0141077 -0.183638 0)
(0.00245714 -0.233651 0)
(0.0051233 0.118108 0)
(0.00494975 0.14682 0)
(0.00825081 0.144489 0)
(0.00806301 0.126823 0)
(0.00920723 0.102648 0)
(0.00850205 0.0808413 0)
(0.00819149 0.0617751 0)
(0.00777607 0.0451846 0)
(0.00743476 0.0303611 0)
(0.00706628 0.0166776 0)
(0.00664563 0.00341948 0)
(0.00618049 -0.01016 0)
(0.00548921 -0.0247019 0)
(0.00494201 -0.0408993 0)
(0.00309316 -0.059119 0)
(0.00390206 -0.0796724 0)
(-0.00260405 -0.103927 0)
(0.0031602 -0.136205 0)
(-0.0120611 -0.183206 0)
(0.00400223 -0.23979 0)
(0.0073288 0.111242 0)
(0.0124878 0.144408 0)
(0.0178428 0.143213 0)
(0.0196153 0.127661 0)
(0.0210982 0.103651 0)
(0.0210139 0.0815652 0)
(0.0210102 0.0622466 0)
(0.0208551 0.0455257 0)
(0.0206268 0.0306972 0)
(0.0202478 0.0170878 0)
(0.0196339 0.00399178 0)
(0.0188493 -0.00936227 0)
(0.0174968 -0.0236055 0)
(0.0162531 -0.0394544 0)
(0.0132524 -0.0572544 0)
(0.0125729 -0.077294 0)
(0.00404598 -0.101075 0)
(0.00910893 -0.132236 0)
(-0.0106266 -0.180331 0)
(0.00733102 -0.243376 0)
(0.00985963 0.0999737 0)
(0.0184527 0.135916 0)
(0.0271755 0.136674 0)
(0.0309893 0.125186 0)
(0.0337892 0.101696 0)
(0.0343795 0.0805157 0)
(0.034695 0.0617923 0)
(0.0347782 0.0454356 0)
(0.0346559 0.0309133 0)
(0.0342648 0.0176042 0)
(0.0334137 0.00487581 0)
(0.0323063 -0.00803599 0)
(0.0302015 -0.0217164 0)
(0.0282609 -0.0369492 0)
(0.0238954 -0.0539402 0)
(0.0218215 -0.0735258 0)
(0.0112595 -0.095856 0)
(0.0149726 -0.126435 0)
(-0.00890815 -0.176112 0)
(0.0103044 -0.245191 0)
(0.0122761 0.0817803 0)
(0.0248549 0.127139 0)
(0.0365701 0.131107 0)
(0.0414149 0.122984 0)
(0.0458142 0.102394 0)
(0.0476212 0.080706 0)
(0.0487373 0.0618059 0)
(0.0494476 0.0455152 0)
(0.049698 0.0312405 0)
(0.049507 0.0182939 0)
(0.0485044 0.00608679 0)
(0.0471338 -0.00616538 0)
(0.0442033 -0.0189983 0)
(0.041515 -0.0332788 0)
(0.0355724 -0.0491475 0)
(0.0320896 -0.0677741 0)
(0.0191026 -0.0884404 0)
(0.0210618 -0.119176 0)
(-0.00680948 -0.170554 0)
(0.0148943 -0.245387 0)
(0.0137601 0.0611703 0)
(0.0286929 0.110349 0)
(0.043629 0.119714 0)
(0.0519502 0.11431 0)
(0.0586244 0.0979486 0)
(0.0626296 0.0779955 0)
(0.0649791 0.0600305 0)
(0.0664215 0.0445071 0)
(0.0669918 0.0310054 0)
(0.0669434 0.0188299 0)
(0.0656525 0.00748954 0)
(0.0639678 -0.00381366 0)
(0.0600375 -0.0154333 0)
(0.056559 -0.028394 0)
(0.0487598 -0.0426821 0)
(0.043816 -0.059893 0)
(0.0278627 -0.0785704 0)
(0.0278567 -0.109641 0)
(-0.00448505 -0.163159 0)
(0.0194457 -0.245046 0)
(0.0138568 0.0351739 0)
(0.0315511 0.0966091 0)
(0.0471749 0.110055 0)
(0.0585137 0.107335 0)
(0.0682796 0.0941791 0)
(0.0757396 0.0763073 0)
(0.0807483 0.0590933 0)
(0.0839744 0.0440715 0)
(0.0854857 0.0312388 0)
(0.086096 0.0198661 0)
(0.0846597 0.0095528 0)
(0.0829846 -0.000591126 0)
(0.0780861 -0.0107312 0)
(0.0739601 -0.0220814 0)
(0.06407 -0.0343099 0)
(0.0574786 -0.0495364 0)
(0.0380834 -0.0659584 0)
(0.0360146 -0.0977677 0)
(-0.0019375 -0.154348 0)
(0.0255226 -0.242364 0)
(0.000734082 0.0109375 0)
(0.0258928 0.0696608 0)
(0.0465784 0.0891134 0)
(0.0625588 0.0903731 0)
(0.0771468 0.0815764 0)
(0.0891516 0.0681034 0)
(0.0978073 0.0541107 0)
(0.103928 0.0409023 0)
(0.106876 0.0294006 0)
(0.108739 0.0192815 0)
(0.107165 0.0104782 0)
(0.105676 0.00198033 0)
(0.0994892 -0.00610634 0)
(0.094598 -0.0151399 0)
(0.0824057 -0.0243396 0)
(0.0739881 -0.0367402 0)
(0.0513827 -0.0504151 0)
(0.0470847 -0.082934 0)
(0.00190142 -0.142297 0)
(0.0331748 -0.233257 0)
(-0.00998387 0.0188076 0)
(0.0107793 0.0614543 0)
(0.0327149 0.0756984 0)
(0.0545256 0.075913 0)
(0.0752259 0.0690933 0)
(0.0938681 0.0587088 0)
(0.107758 0.0479404 0)
(0.118543 0.0383547 0)
(0.124146 0.0296675 0)
(0.128771 0.0215475 0)
(0.128206 0.0146398 0)
(0.12791 0.00780042 0)
(0.121742 0.00193501 0)
(0.117238 -0.00491029 0)
(0.104561 -0.0110344 0)
(0.0956501 -0.0211226 0)
(0.0724766 -0.0325296 0)
(0.0665343 -0.0645255 0)
(0.0142204 -0.122519 0)
(0.0481575 -0.205654 0)
(-0.0204691 -0.000383678 0)
(-0.0171007 0.0149896 0)
(0.0122818 0.0304848 0)
(0.0426067 0.0352853 0)
(0.0696623 0.035471 0)
(0.0939606 0.0321557 0)
(0.112473 0.0274664 0)
(0.128203 0.0218769 0)
(0.138313 0.0174883 0)
(0.146605 0.013088 0)
(0.150162 0.00985571 0)
(0.152789 0.0059697 0)
(0.151101 0.00347974 0)
(0.148778 -0.000971711 0)
(0.140959 -0.00382192 0)
(0.134763 -0.0106633 0)
(0.116836 -0.0182527 0)
(0.1102 -0.0441837 0)
(0.0563709 -0.0879969 0)
(0.0817979 -0.152738 0)
(0.0396673 0.0793049 0)
(0.0402012 0.0491314 0)
(0.0705841 0.030182 0)
(0.0992908 0.0231281 0)
(0.125157 0.0207128 0)
(0.15077 0.0186552 0)
(0.172933 0.0167395 0)
(0.193106 0.0149145 0)
(0.209101 0.013214 0)
(0.222881 0.0117791 0)
(0.232935 0.0102725 0)
(0.241476 0.0091675 0)
(0.246638 0.00762316 0)
(0.250679 0.00664116 0)
(0.251233 0.00467651 0)
(0.24874 0.00229266 0)
(0.240202 0.00110728 0)
(0.225027 -0.0081133 0)
(0.171614 -0.0172116 0)
(0.157272 -0.0940892 0)
)
;

boundaryField
{
    movingWall
    {
        type            fixedValue;
        value           uniform (1 0 0);
    }
    fixedWalls
    {
        type            fixedValue;
        value           uniform (0 0 0);
    }
    frontAndBack
    {
        type            empty;
    }
}


// ************************************************************************* //
