/*--------------------------------*- C++ -*----------------------------------*\
| =========                 |                                                 |
| \\      /  F ield         | OpenFOAM: The Open Source CFD Toolbox           |
|  \\    /   O peration     | Version:  3.0.0                                 |
|   \\  /    A nd           | Web:      www.OpenFOAM.org                      |
|    \\/     M anipulation  |                                                 |
\*---------------------------------------------------------------------------*/
FoamFile
{
    version     2.0;
    format      ascii;
    class       volScalarField;
    location    "6.75";
    object      p;
}
// * * * * * * * * * * * * * * * * * * * * * * * * * * * * * * * * * * * * * //

dimensions      [0 2 -2 0 0 0 0];

internalField   nonuniform List<scalar> 
4096
(
-0.0283468
-0.0286898
-0.0217931
-0.0141737
-0.00984665
-0.0126876
-0.0233571
-0.0365372
-0.0443569
-0.043125
-0.0366766
-0.0309361
-0.0282448
-0.0279837
-0.0286635
-0.0241726
-0.0294594
-0.03531
-0.0340349
-0.0298707
-0.0260801
-0.0266516
-0.0332493
-0.0428613
-0.0497387
-0.0504514
-0.0464776
-0.0402705
-0.0324211
-0.0250622
-0.0213123
-0.0186368
-0.00383538
-0.0090581
-0.00859462
-0.0062797
-0.00522694
-0.00900351
-0.0190089
-0.0322977
-0.0432311
-0.0470608
-0.043434
-0.0344444
-0.0220029
-0.0096641
-0.00199452
0.00292317
0.0227359
0.017123
0.0168602
0.0178073
0.0169172
0.0110806
-0.000897049
-0.0160394
-0.0293064
-0.0355725
-0.0326876
-0.0215361
-0.0047919
0.0116877
0.0217687
0.0275835
0.0456327
0.0388557
0.0380093
0.0381861
0.0363906
0.0299041
0.0179227
0.00283297
-0.0109213
-0.0185695
-0.016768
-0.00461539
0.0152073
0.0344769
0.0452524
0.050292
0.0614302
0.0532298
0.0523333
0.052619
0.0510931
0.0453825
0.0348243
0.0213202
0.00852078
0.000552259
0.00125834
0.0131886
0.0342215
0.0541415
0.0636974
0.0672244
0.067468
0.0578108
0.0577131
0.05925
0.0592956
0.0556832
0.0476974
0.0367755
0.0257985
0.0182047
0.0178435
0.0286159
0.0488967
0.067226
0.0737594
0.0752389
0.0634559
0.0526017
0.0542796
0.058267
0.061123
0.0606544
0.0558225
0.0477658
0.0387637
0.0316899
0.030169
0.0393081
0.0571771
0.071968
0.0741448
0.0733601
0.0514626
0.0396878
0.0439859
0.0513063
0.0576819
0.0606297
0.0589826
0.053458
0.0460502
0.0393398
0.0370594
0.0439695
0.0583661
0.0683699
0.0654836
0.0629953
0.0347814
0.0220841
0.0291862
0.0398972
0.0497115
0.0557731
0.0566423
0.0529083
0.0465295
0.040086
0.0372801
0.0423123
0.0529906
0.0578766
0.0499968
0.0467181
0.0162301
0.00257548
0.0117413
0.0249444
0.0372709
0.0455025
0.0479272
0.045263
0.039695
0.033875
0.0313407
0.0352937
0.0425796
0.0426588
0.030689
0.0272096
-0.00257925
-0.0165196
-0.00667691
0.00746355
0.0208862
0.0300874
0.033069
0.0309036
0.02628
0.0220329
0.0209905
0.0246924
0.0290727
0.0251475
0.0106116
0.00682106
-0.0203966
-0.0333125
-0.024397
-0.010912
0.00222412
0.0112695
0.0140953
0.0121422
0.00885376
0.00717407
0.00858223
0.0124859
0.014449
0.0078506
-0.00742145
-0.0118864
-0.0363862
-0.0476096
-0.0410018
-0.0291358
-0.0171471
-0.00885908
-0.00629319
-0.00800558
-0.00969453
-0.00851091
-0.00471564
-0.000746981
-0.000463013
-0.00779046
-0.0217328
-0.0269452
-0.0478905
-0.0572322
-0.0524255
-0.0429326
-0.0326503
-0.02564
-0.0241703
-0.0263033
-0.0273091
-0.0244998
-0.0196052
-0.0158919
-0.0158616
-0.0215021
-0.0320778
-0.0369355
-0.0337703
-0.0345067
-0.0270218
-0.018624
-0.0128575
-0.0132679
-0.0209298
-0.0318615
-0.0389166
-0.037554
-0.030549
-0.0249078
-0.0246154
-0.0288182
-0.0340881
-0.0318277
-0.00717083
-0.0140605
-0.0116664
-0.00788693
-0.00459537
-0.00511598
-0.0116379
-0.0217007
-0.0292234
-0.0302545
-0.0263684
-0.0213625
-0.0171248
-0.0141472
-0.0122322
-0.00270429
-0.0134874
-0.0231952
-0.0241576
-0.0222048
-0.0190413
-0.0181028
-0.0220041
-0.0294124
-0.0355559
-0.0369018
-0.0339562
-0.0280285
-0.0197135
-0.0117356
-0.00735928
-0.00143618
0.00831115
-0.000510777
-0.00308898
-0.00410988
-0.00491187
-0.00809705
-0.0154586
-0.025473
-0.0336156
-0.035969
-0.032278
-0.0239913
-0.0120157
0.000230665
0.00846276
0.0161462
0.0296245
0.0211048
0.0175688
0.0146079
0.011013
0.00486682
-0.00488671
-0.0164938
-0.0258303
-0.0288733
-0.0245204
-0.0139026
0.00139254
0.0167854
0.0270387
0.0351255
0.0461751
0.0376201
0.0339549
0.0304324
0.0257333
0.018399
0.00791967
-0.00392485
-0.0135201
-0.0170676
-0.012586
-0.000474946
0.0170408
0.0339532
0.0441663
0.0511373
0.0554017
0.0467766
0.0440408
0.0415279
0.0375849
0.0309417
0.0213488
0.0104248
0.0012635
-0.00271266
0.00118596
0.0133858
0.0315038
0.0480357
0.0561762
0.0610748
0.0554707
0.0469192
0.0461663
0.0461785
0.0447516
0.0405053
0.0331662
0.0240474
0.01571
0.0112426
0.0137509
0.0248854
0.0419373
0.0561771
0.0607078
0.0627268
0.0470177
0.0386281
0.0407664
0.0444492
0.0467328
0.0459117
0.0416068
0.0346595
0.0272544
0.0222528
0.0231976
0.032152
0.046785
0.0573171
0.0573002
0.0561594
0.0330327
0.0246122
0.0300312
0.0377879
0.0441554
0.0470495
0.0456496
0.0406487
0.033964
0.0283243
0.027401
0.0342392
0.0458709
0.0520402
0.0472065
0.0437976
0.0176336
0.00851242
0.0168648
0.0281783
0.0380244
0.0439066
0.0447112
0.041042
0.0347769
0.0286768
0.0265793
0.0316067
0.0402343
0.0422566
0.0331261
0.0289011
0.00408578
-0.00663236
0.0035317
0.0170947
0.0291702
0.0368771
0.0388454
0.035766
0.0297583
0.0237787
0.0216085
0.025718
0.0318753
0.0304848
0.0178905
0.0143338
-0.0067505
-0.0192193
-0.00881012
0.00533589
0.0182228
0.0266171
0.0288415
0.0258113
0.0202097
0.0153217
0.0143826
0.0184358
0.0225986
0.0183565
0.00430407
0.00162776
-0.0157882
-0.0289907
-0.0198568
-0.00661379
0.0059717
0.0143034
0.0162914
0.0131235
0.00829464
0.00541255
0.00660103
0.0110207
0.0135647
0.00762859
-0.00651881
-0.00849712
-0.02458
-0.0374452
-0.0305238
-0.0189576
-0.00712223
0.00104284
0.00281049
-0.000332126
-0.00414758
-0.00484865
-0.00173153
0.00286406
0.00433812
-0.00173748
-0.0143637
-0.0161841
-0.0317401
-0.0434006
-0.0385852
-0.0289845
-0.018292
-0.0107377
-0.00933002
-0.0127391
-0.0161393
-0.0157218
-0.0118611
-0.00749304
-0.005953
-0.0101907
-0.0197144
-0.0212303
-0.0139347
-0.0204149
-0.0165591
-0.01076
-0.00546577
-0.00405148
-0.00887107
-0.0177717
-0.0247971
-0.0253289
-0.0204989
-0.0153303
-0.0131859
-0.0144537
-0.0173212
-0.011667
0.0101219
-0.00174175
-0.00100074
0.00216376
0.0062021
0.00736861
0.00235578
-0.0073871
-0.0158804
-0.0184707
-0.0151926
-0.00921345
-0.00290258
0.00189088
0.00437422
0.0153101
0.00340236
-0.00745742
-0.00759899
-0.00520367
-0.00188359
-0.00113851
-0.0059506
-0.015153
-0.0234603
-0.0262251
-0.0229524
-0.0153855
-0.0056464
0.00271334
0.00678488
0.0143941
0.0195885
0.00971955
0.00702938
0.00562437
0.00451768
0.00117278
-0.00650473
-0.0172306
-0.0262103
-0.0292576
-0.0252135
-0.0155562
-0.00235473
0.0102847
0.0183849
0.027118
0.0334454
0.0242827
0.0200431
0.0160769
0.0117075
0.00524402
-0.00449351
-0.0160315
-0.025201
-0.0279885
-0.0231717
-0.0116685
0.00432505
0.0199114
0.0301589
0.0388958
0.0415806
0.0330437
0.0284673
0.0236174
0.0178147
0.00996633
-0.000407454
-0.011708
-0.0204697
-0.0231415
-0.0179843
-0.00541822
0.0121619
0.0287952
0.0390735
0.0464957
0.0425148
0.0348262
0.0312867
0.0274332
0.0222756
0.0149908
0.00547071
-0.00477732
-0.0128803
-0.0157572
-0.0112513
0.00123315
0.018745
0.0345253
0.0428543
0.0477288
0.0356602
0.0291098
0.0279743
0.0269209
0.0243731
0.019437
0.0120482
0.0034576
-0.00396794
-0.00743211
-0.00430977
0.00662307
0.0224381
0.0355081
0.0402228
0.0419859
0.022534
0.0172569
0.0195616
0.022605
0.0240038
0.022555
0.0180252
0.011328
0.00443862
7.27617e-06
0.00111319
0.00972365
0.0225918
0.0316367
0.0315723
0.0304985
0.00659939
0.00228746
0.00837478
0.0159389
0.0216874
0.0239971
0.0223431
0.0173638
0.0107679
0.00518767
0.00411014
0.0100278
0.0196959
0.0243697
0.019711
0.0158034
-0.00756952
-0.0120874
-0.00282444
0.00864848
0.0181783
0.0236759
0.0243187
0.0205637
0.0140439
0.00752851
0.00486198
0.00866358
0.015423
0.0161529
0.00730316
0.00210343
-0.0164458
-0.0229502
-0.011993
0.00191248
0.0139885
0.021646
0.0237073
0.0205862
0.0141248
0.00740732
0.00437559
0.00715187
0.0117377
0.00976136
-0.00305173
-0.00763276
-0.0195475
-0.0292549
-0.0184095
-0.00388866
0.00930969
0.0180691
0.0207285
0.0177944
0.0116662
0.00585573
0.00389777
0.00676297
0.00971583
0.00506232
-0.00845531
-0.0121196
-0.0192359
-0.0317351
-0.0224511
-0.00880728
0.0043487
0.0134074
0.0160763
0.0130535
0.00758796
0.00363707
0.00377518
0.00728969
0.00918761
0.00321752
-0.0104193
-0.0126298
-0.0190748
-0.0326952
-0.0254619
-0.0133624
-0.000756872
0.00816688
0.0105101
0.00715507
0.00232588
0.000323179
0.00250823
0.00664075
0.00806245
0.0021686
-0.0102327
-0.0114236
-0.0192388
-0.0322167
-0.0266853
-0.0161872
-0.00451462
0.00375204
0.0051934
0.000845963
-0.00414526
-0.0052133
-0.00192166
0.00275748
0.00473162
0.000563162
-0.00921582
-0.00954214
0.000367064
-0.011052
-0.00905439
-0.00347083
0.00342076
0.00747884
0.0048647
-0.00308568
-0.0104287
-0.0119571
-0.00786082
-0.00220119
0.00147078
0.00157946
-0.00124656
0.00450275
0.0211138
0.00538327
0.00428962
0.0077948
0.0139634
0.017758
0.0146727
0.00574193
-0.00297241
-0.00590643
-0.0023453
0.00495926
0.0129669
0.0185583
0.0200002
0.0277222
0.0177509
0.0060762
0.00524381
0.0071136
0.010072
0.0106216
0.00537531
-0.00453458
-0.0134369
-0.0162539
-0.0119266
-0.00267388
0.00820255
0.0166186
0.0201352
0.026736
0.0279153
0.0178373
0.0144848
0.0125438
0.0110512
0.00727783
-0.00106085
-0.0125852
-0.0221736
-0.0248568
-0.0196461
-0.00827078
0.00613028
0.0190424
0.0268131
0.0344971
0.0337657
0.0251108
0.0203314
0.0157686
0.0108231
0.00368856
-0.00679991
-0.019174
-0.0285702
-0.0311185
-0.0252606
-0.0123606
0.00462207
0.0205562
0.0306793
0.0386208
0.0330682
0.0258629
0.0210225
0.0155824
0.0090197
0.000266613
-0.0110238
-0.023027
-0.0319817
-0.0344044
-0.0286371
-0.0152665
0.00278083
0.0196311
0.0302477
0.0370898
0.0255946
0.0200083
0.0165398
0.0121793
0.00618719
-0.00211122
-0.0126022
-0.0235763
-0.0319388
-0.0347149
-0.0299367
-0.0174448
-9.31586e-05
0.0156668
0.0246095
0.0296603
0.0118348
0.00817347
0.00745805
0.006016
0.00262233
-0.00335116
-0.0117061
-0.021013
-0.0288338
-0.0324754
-0.0295757
-0.0192222
-0.00423831
0.00853628
0.0141549
0.0164522
-0.0060025
-0.00764133
-0.00461147
-0.00181595
-0.00119354
-0.00357375
-0.00892695
-0.0162558
-0.0236416
-0.0285313
-0.0281158
-0.0208738
-0.00922604
-0.000733105
0.000455193
-0.000339417
-0.0241186
-0.0241929
-0.0171558
-0.00962868
-0.00443312
-0.00276529
-0.00490762
-0.0103105
-0.0174346
-0.023697
-0.0257733
-0.0215401
-0.0137689
-0.0099666
-0.0135362
-0.0172427
-0.0377442
-0.0376752
-0.0273761
-0.0156151
-0.00617906
-0.000783786
-0.000118525
-0.00399654
-0.0110202
-0.0183655
-0.0222823
-0.0204252
-0.0159555
-0.0163047
-0.0240885
-0.0299911
-0.0430853
-0.0451109
-0.033256
-0.0186755
-0.00602172
0.00228183
0.00499998
0.00210402
-0.00480168
-0.0124164
-0.0168464
-0.0161016
-0.0139061
-0.0173197
-0.0285593
-0.0352984
-0.0393865
-0.0456867
-0.0343306
-0.0188258
-0.00431262
0.00592255
0.00989581
0.00752704
0.00105017
-0.00571627
-0.00906792
-0.00814699
-0.00723855
-0.0128112
-0.0259114
-0.0323495
-0.029901
-0.0408481
-0.0315691
-0.0168406
-0.00177157
0.00946816
0.0139666
0.011726
0.0058963
0.000913745
-0.000259086
0.00172456
0.0022429
-0.00437747
-0.0181283
-0.0233152
-0.0197826
-0.033634
-0.0267988
-0.0137755
0.000809747
0.0121704
0.0164956
0.0138484
0.00855395
0.00544734
0.00655454
0.00981752
0.0105291
0.00420451
-0.0086997
-0.0123565
-0.0112175
-0.0254637
-0.0205419
-0.00947527
0.0038284
0.0139088
0.0170956
0.0132302
0.00779822
0.00581156
0.00857615
0.0131666
0.0149724
0.0103648
-0.000223719
-0.0022779
0.00907799
-0.00614569
-0.00548487
0.00141248
0.0117636
0.0198407
0.0194463
0.0122414
0.0043637
0.00210987
0.00606639
0.0125783
0.0174623
0.0179762
0.0137345
0.0159983
0.029722
0.0132121
0.0105402
0.0149565
0.0236611
0.0302367
0.029083
0.0211021
0.012631
0.00957213
0.0133602
0.0214516
0.030019
0.0352272
0.0348788
0.0363198
0.0297125
0.0181698
0.0153924
0.0162855
0.0192136
0.0202138
0.0156262
0.00645863
-0.00194614
-0.00439058
0.000530472
0.0104465
0.0214706
0.0295628
0.0325777
0.036021
0.0341152
0.0248125
0.0204287
0.0180378
0.0165423
0.0127176
0.00410474
-0.00751014
-0.0168173
-0.0190201
-0.0128957
-0.000539299
0.0142252
0.0268056
0.0340971
0.0392836
0.0323386
0.025076
0.0200458
0.0154073
0.0103514
0.00269938
-0.00869074
-0.0215484
-0.0310117
-0.0330263
-0.0262728
-0.0124389
0.00481314
0.020346
0.0302447
0.0364038
0.0235538
0.018349
0.0138837
0.00858182
0.00175679
-0.00785144
-0.0203407
-0.0332867
-0.0425548
-0.0446106
-0.0381521
-0.0242125
-0.00620933
0.0101948
0.0207517
0.0268186
0.00868708
0.00565891
0.00300365
-0.00113663
-0.00753983
-0.0168853
-0.028655
-0.0409405
-0.0497184
-0.0524002
-0.0473157
-0.034804
-0.0179824
-0.00280095
0.00647672
0.0115039
-0.0107678
-0.011434
-0.0111396
-0.012457
-0.0164484
-0.023551
-0.0331939
-0.0435737
-0.0519638
-0.0557783
-0.0530278
-0.0433464
-0.0294113
-0.0173586
-0.0110292
-0.00809553
-0.0322383
-0.0305674
-0.026523
-0.0237847
-0.0238862
-0.0272742
-0.0335954
-0.0416796
-0.0495746
-0.0548164
-0.0549316
-0.0488198
-0.0389625
-0.0313925
-0.0292747
-0.0290972
-0.0519187
-0.0484742
-0.0404899
-0.0330853
-0.0284951
-0.0274312
-0.0299786
-0.0356916
-0.0431622
-0.0498654
-0.0527793
-0.0502426
-0.0447431
-0.0420899
-0.0447187
-0.0477378
-0.0650875
-0.0613659
-0.0501502
-0.0382907
-0.0289588
-0.0234563
-0.022478
-0.0261816
-0.0333661
-0.0411827
-0.0461224
-0.0463392
-0.0445286
-0.0463297
-0.0534539
-0.0595444
-0.0677412
-0.0661127
-0.0534916
-0.0382754
-0.0248623
-0.015499
-0.0116911
-0.0139741
-0.0208826
-0.0290055
-0.0345644
-0.03612
-0.0367858
-0.0419129
-0.052762
-0.0613188
-0.058949
-0.0619191
-0.0501294
-0.0334069
-0.0171125
-0.00479086
0.00100631
-0.000392044
-0.00685387
-0.0142265
-0.0188214
-0.0201613
-0.0220371
-0.0291037
-0.042456
-0.0524061
-0.0418752
-0.0505699
-0.041426
-0.02518
-0.00745406
0.00673751
0.0136206
0.0125491
0.00670264
0.000942359
-0.00155891
-0.0014928
-0.00286694
-0.0110142
-0.0254894
-0.0354393
-0.0225725
-0.0356724
-0.0298467
-0.0155839
0.00192575
0.0166799
0.0236589
0.0223415
0.016993
0.0130129
0.0128631
0.0147344
0.0140587
0.00670547
-0.00711159
-0.0158039
-0.00522672
-0.020032
-0.0170704
-0.00563518
0.00999618
0.0236276
0.0293342
0.0269443
0.02156
0.0188621
0.0207231
0.0244524
0.0254367
0.0201145
0.0087073
0.00217914
0.0164905
-0.000160197
-0.000678324
0.00812126
0.0223449
0.0338574
0.0356273
0.028807
0.0206467
0.0178248
0.0216228
0.0285898
0.0340155
0.0342112
0.0281535
0.0244401
0.0397205
0.0244651
0.0207594
0.0263133
0.0374655
0.046105
0.046079
0.0386418
0.0303823
0.0272707
0.0311247
0.0393353
0.0475742
0.0517103
0.0496408
0.0453043
0.0404427
0.0295051
0.0251911
0.0256383
0.0292329
0.0313107
0.027711
0.0193261
0.0113893
0.00902666
0.0138414
0.0234929
0.0339882
0.0414696
0.0440059
0.0445804
0.0395624
0.0312775
0.0264232
0.024477
0.023814
0.0204411
0.0117565
4.36995e-05
-0.00908961
-0.0109585
-0.00446661
0.00803149
0.022368
0.0340651
0.0405016
0.0436464
0.0312025
0.0252401
0.020808
0.0171431
0.0128897
0.00523955
-0.00681999
-0.0202413
-0.0297402
-0.0312811
-0.0239566
-0.00988351
0.00681515
0.0211469
0.0300011
0.0348204
0.015879
0.0124203
0.00918359
0.00504604
-0.00117135
-0.0111292
-0.0246142
-0.0383597
-0.0477426
-0.0493723
-0.0423604
-0.0283665
-0.0112114
0.00379099
0.0132949
0.0188061
-0.00437462
-0.00524777
-0.00642204
-0.00953258
-0.0156669
-0.0256514
-0.0386011
-0.0515296
-0.060553
-0.0628685
-0.0573948
-0.0451656
-0.0295965
-0.0159274
-0.0073704
-0.0023745
-0.0272323
-0.0256325
-0.0240222
-0.024785
-0.028977
-0.036875
-0.0474767
-0.0584581
-0.0669198
-0.0704085
-0.0674851
-0.0584283
-0.0461345
-0.0356017
-0.0296164
-0.0261413
-0.050161
-0.0463345
-0.0414222
-0.0387687
-0.0394951
-0.0436321
-0.0505177
-0.0588052
-0.0665498
-0.0714618
-0.0715803
-0.066421
-0.0584705
-0.0523646
-0.0502526
-0.0491328
-0.0696506
-0.0642765
-0.0559173
-0.0490995
-0.0452822
-0.044644
-0.0471767
-0.0525975
-0.0596472
-0.0659484
-0.0689332
-0.0675927
-0.0641823
-0.0630382
-0.0656056
-0.067911
-0.0813218
-0.075988
-0.064484
-0.0534187
-0.0445849
-0.0388992
-0.0372467
-0.0401849
-0.046699
-0.0540203
-0.0590438
-0.0606251
-0.0610909
-0.0645618
-0.0718198
-0.0777598
-0.0811961
-0.0780079
-0.0655222
-0.0506393
-0.0369873
-0.026624
-0.0214951
-0.022635
-0.0287269
-0.0363466
-0.0420905
-0.0451106
-0.0481326
-0.0551308
-0.0664766
-0.0761926
-0.0685082
-0.0698402
-0.0584241
-0.0414266
-0.0239392
-0.00973761
-0.00207716
-0.00212475
-0.00777625
-0.0148031
-0.0198081
-0.0226548
-0.0266583
-0.0357051
-0.0498878
-0.0627062
-0.0461635
-0.053319
-0.0449774
-0.0279232
-0.00812311
0.00870026
0.0178068
0.0181094
0.0128796
0.007118
0.00391384
0.00249896
-0.00103124
-0.0105437
-0.0259156
-0.0403003
-0.0204394
-0.0325531
-0.0283119
-0.0131974
0.00687695
0.0246938
0.0340903
0.0341256
0.029178
0.0248423
0.0237349
0.0241987
0.0220153
0.01362
-0.000917471
-0.0148001
0.00307889
-0.0115821
-0.011244
0.000545179
0.0185059
0.035192
0.0435364
0.0426758
0.0376263
0.0344184
0.0351664
0.0376385
0.0375543
0.031669
0.0199475
0.00852227
0.0259273
0.00954111
0.00775818
0.0182369
0.0361417
0.0503528
0.0533323
0.0464732
0.0380948
0.0348798
0.0383585
0.0452139
0.0504104
0.0499083
0.042487
0.0331131
0.0517309
0.0369515
0.033767
0.0405984
0.0531809
0.0624745
0.0622542
0.0544752
0.0460281
0.042861
0.0464237
0.0543125
0.0618946
0.0649922
0.0616471
0.0570162
0.0508146
0.0392858
0.0349296
0.0359281
0.0404975
0.0434083
0.0400605
0.0316296
0.0235976
0.0211081
0.0256614
0.0349397
0.0448849
0.0516393
0.0531188
0.0545809
0.0451933
0.0361668
0.0324395
0.0320467
0.0328445
0.0300295
0.0210158
0.00883995
-0.000418981
-0.00214463
0.00446827
0.0167491
0.0303029
0.040693
0.0455761
0.0493218
0.0319734
0.0256362
0.0228763
0.0212719
0.0186402
0.0114238
-0.00113796
-0.015087
-0.0246036
-0.0257527
-0.0180818
-0.00423362
0.0113102
0.0237236
0.0306895
0.0357479
0.0124958
0.00914558
0.00780784
0.00577711
0.00101037
-0.00865722
-0.0226369
-0.0367733
-0.0459774
-0.0470248
-0.0395776
-0.0259521
-0.0103184
0.00247674
0.00997263
0.0152648
-0.010336
-0.0107484
-0.010168
-0.011607
-0.0167688
-0.0266858
-0.0400388
-0.0530851
-0.0617053
-0.063283
-0.0573458
-0.0456528
-0.0317127
-0.0202526
-0.0136196
-0.00895899
-0.0338407
-0.0317565
-0.0289966
-0.0289651
-0.0328807
-0.0409119
-0.0516803
-0.0624437
-0.0702243
-0.0728211
-0.0693314
-0.0607065
-0.0500012
-0.0414454
-0.0369721
-0.0336795
-0.0554752
-0.0516916
-0.0465356
-0.0442144
-0.0453663
-0.0497095
-0.0564038
-0.0640604
-0.0708321
-0.0745979
-0.0739202
-0.0690336
-0.062416
-0.0578495
-0.0567668
-0.0556482
-0.0721806
-0.0676632
-0.0602704
-0.0547052
-0.0517843
-0.0512375
-0.053172
-0.057562
-0.0633091
-0.0682003
-0.0701264
-0.0687885
-0.0663803
-0.0663542
-0.0695658
-0.0715045
-0.0806752
-0.0766625
-0.0671872
-0.0578408
-0.0500035
-0.0441284
-0.0414813
-0.0430507
-0.0479899
-0.0536608
-0.0574759
-0.0588727
-0.0600942
-0.0644139
-0.0721926
-0.0778784
-0.077305
-0.0758496
-0.0655171
-0.0525154
-0.0396216
-0.02868
-0.0222393
-0.0218231
-0.0262333
-0.0321864
-0.0367936
-0.0396378
-0.0433215
-0.0510379
-0.0629213
-0.0725456
-0.0618558
-0.0646541
-0.0553445
-0.039786
-0.0225262
-0.00734347
0.00178554
0.00326739
-0.000848454
-0.00650601
-0.0107433
-0.0137058
-0.0184177
-0.0280985
-0.0426568
-0.055849
-0.0371465
-0.0450991
-0.0384967
-0.0223154
-0.00212096
0.0159827
0.0264704
0.0280502
0.0239459
0.0189776
0.0159131
0.0139304
0.0095668
-0.000402106
-0.0159075
-0.0309362
-0.00910796
-0.0216312
-0.0188091
-0.00407667
0.0169014
0.0361705
0.046772
0.0476637
0.0433094
0.0391141
0.0374961
0.0370314
0.0340301
0.0253988
0.0110438
-0.00355642
0.0162542
0.0010905
6.24369e-05
0.0113863
0.0305499
0.0488728
0.0584114
0.0580933
0.0533335
0.0497219
0.0495424
0.0509561
0.0502008
0.0443234
0.0329706
0.0211754
0.0378111
0.0213709
0.0196281
0.0316731
0.0516396
0.0671069
0.0698844
0.0625668
0.0537167
0.050093
0.0529454
0.0590706
0.0635403
0.0623856
0.0543293
0.0445761
0.0611934
0.0445606
0.0442893
0.0525706
0.0653383
0.0735597
0.0716601
0.0625149
0.0533204
0.0497516
0.0530035
0.0604087
0.067475
0.0700756
0.0654121
0.0672255
0.0586622
0.0438119
0.0416084
0.0440136
0.0493435
0.0520856
0.0477772
0.0383671
0.0299364
0.0275801
0.0324973
0.0419563
0.0517928
0.0580942
0.0573239
0.0635575
0.0501387
0.0377297
0.036291
0.0381304
0.0404254
0.037851
0.0280756
0.0151584
0.00577236
0.00441128
0.0114224
0.0236699
0.0365219
0.0455166
0.0479656
0.0551792
0.0343892
0.0253375
0.0248252
0.0258224
0.025124
0.0185331
0.00563141
-0.0086485
-0.0179719
-0.018567
-0.0104988
0.00305347
0.0173982
0.0279305
0.0319362
0.0388288
0.0135915
0.00830954
0.00900032
0.00947909
0.00665265
-0.00219457
-0.0160911
-0.0300954
-0.0387635
-0.0390783
-0.0312091
-0.0180061
-0.00390294
0.00658369
0.011088
0.0167541
-0.00892803
-0.0107331
-0.00865499
-0.00812017
-0.0117984
-0.0209323
-0.0338758
-0.0463716
-0.0541429
-0.0547977
-0.0482721
-0.0367918
-0.0244267
-0.0152783
-0.0113344
-0.00727817
-0.0303448
-0.0297409
-0.0264254
-0.0254553
-0.0285852
-0.035981
-0.0460822
-0.0559479
-0.0626022
-0.0641179
-0.0595741
-0.0508942
-0.0412029
-0.0343644
-0.0321084
-0.0297974
-0.048418
-0.0468456
-0.0425312
-0.0404942
-0.0416138
-0.0454671
-0.0512828
-0.0577707
-0.0631139
-0.0653521
-0.0633613
-0.0578483
-0.0514762
-0.047773
-0.0481822
-0.0479096
-0.0608601
-0.0596925
-0.0543944
-0.0503795
-0.0480859
-0.0471539
-0.0480496
-0.0510524
-0.0551753
-0.0581376
-0.0584112
-0.0559519
-0.0530744
-0.0530193
-0.0569312
-0.0591165
-0.0652385
-0.0656384
-0.0592172
-0.0523348
-0.0456072
-0.0394281
-0.0356593
-0.0357132
-0.0388416
-0.042499
-0.044498
-0.0445699
-0.0448908
-0.0484926
-0.056325
-0.0612329
-0.0594242
-0.0625395
-0.0553615
-0.0452681
-0.033756
-0.0226213
-0.0151231
-0.013214
-0.0158436
-0.0199283
-0.022965
-0.024736
-0.0274965
-0.0341196
-0.0456935
-0.053129
-0.043444
-0.0502343
-0.0431875
-0.0304757
-0.0146562
0.0005377
0.0104545
0.013158
0.0105111
0.00625609
0.00293625
0.000452032
-0.0036686
-0.0122511
-0.0263428
-0.0356572
-0.0199876
-0.0308158
-0.0252001
-0.0110343
0.00789097
0.025736
0.0365049
0.038766
0.0356039
0.0313286
0.0283764
0.0261444
0.0218872
0.0127705
-0.00202957
-0.0118297
0.00608554
-0.00834885
-0.00508464
0.00860982
0.028616
0.0473455
0.0576308
0.0584446
0.0544331
0.0502906
0.048197
0.0470537
0.0438894
0.0358943
0.0221388
0.0137975
0.0297385
0.0126175
0.0129518
0.0241009
0.042682
0.0604602
0.0692923
0.0680794
0.0632911
0.0594622
0.0587611
0.0596357
0.0588441
0.0534792
0.0422039
0.0369603
0.0484426
0.0300302
0.0307322
0.0441119
0.0645164
0.0792094
0.0803735
0.0718833
0.0624638
0.0585187
0.0607405
0.066028
0.0698655
0.0684713
0.059545
0.0566537
0.0612037
0.0418357
0.0452442
0.0547231
0.0666593
0.0728451
0.0687196
0.0581025
0.0484131
0.0448789
0.0481314
0.0551783
0.0618594
0.0640268
0.0587251
0.0682739
0.0588787
0.0396381
0.0401374
0.0441352
0.0497606
0.0515405
0.0455329
0.034906
0.0263901
0.0248039
0.0305742
0.0405154
0.0502909
0.0557204
0.0536019
0.0653718
0.0504376
0.0334984
0.0342827
0.0380745
0.0414282
0.0387086
0.0280572
0.0145838
0.00545993
0.00492561
0.0126919
0.0250899
0.0373505
0.044949
0.0451158
0.0564682
0.0356219
0.022564
0.0238823
0.0270847
0.0280282
0.0220451
0.00905747
-0.00519613
-0.014023
-0.013865
-0.0052835
0.00807308
0.0213487
0.0299235
0.0313409
0.040551
0.0167985
0.0083485
0.0105048
0.01315
0.0121901
0.00441927
-0.0089484
-0.0224585
-0.0304605
-0.0301068
-0.0218919
-0.00904172
0.00384481
0.0122578
0.0140508
0.0202701
-0.00274151
-0.00708637
-0.00403264
-0.00175231
-0.00375121
-0.0116445
-0.0236813
-0.0353775
-0.042373
-0.0423036
-0.0354191
-0.0241918
-0.012736
-0.00531184
-0.00392003
-0.000576064
-0.0204288
-0.0223567
-0.0188695
-0.0168236
-0.0187182
-0.024908
-0.0339291
-0.0428334
-0.0485756
-0.0490103
-0.0441655
-0.0352648
-0.0258769
-0.0200116
-0.0198559
-0.0188442
-0.0344727
-0.0360412
-0.0325839
-0.0303802
-0.0307455
-0.0335128
-0.0382158
-0.0436834
-0.0480417
-0.0493146
-0.0464367
-0.0401448
-0.0333108
-0.0296755
-0.0313316
-0.032332
-0.043346
-0.0461227
-0.0426877
-0.0394161
-0.0368676
-0.0350308
-0.0348654
-0.0368314
-0.0398108
-0.0418239
-0.0409733
-0.0373949
-0.0334445
-0.0325908
-0.0367867
-0.0395427
-0.0454807
-0.0503039
-0.0463844
-0.0410091
-0.0345401
-0.0277248
-0.0230197
-0.0220854
-0.0241325
-0.0267745
-0.0277493
-0.0267563
-0.0257816
-0.0279982
-0.0352727
-0.039365
-0.0397051
-0.0470749
-0.0421648
-0.0340099
-0.0232615
-0.0118764
-0.0037038
-0.000943684
-0.00261017
-0.0059044
-0.00835229
-0.009537
-0.011239
-0.0163164
-0.026758
-0.0314742
-0.0262318
-0.0363969
-0.0305782
-0.019732
-0.00510909
0.00979081
0.0199483
0.0231972
0.0212629
0.0173552
0.0139705
0.011343
0.00775235
0.000697495
-0.0125007
-0.0167676
-0.00701962
-0.0200922
-0.0140123
-0.00126083
0.0161659
0.0330912
0.0434642
0.0457568
0.0428875
0.0385445
0.0349337
0.0319004
0.0275911
0.0195122
0.00567689
0.00270848
0.0145472
-0.00146635
0.00391942
0.0169727
0.0353958
0.052609
0.0618547
0.0619618
0.0578329
0.0534147
0.0504384
0.0482871
0.044806
0.0374338
0.0242903
0.0239577
0.0347602
0.0156551
0.0191583
0.030513
0.047767
0.0636626
0.0704064
0.0684396
0.0631791
0.0592142
0.0581237
0.0584607
0.0575222
0.0524676
0.0411144
0.0441324
0.0512962
0.0300434
0.0340066
0.0480662
0.067441
0.0801467
0.0792549
0.0697536
0.0604196
0.0566927
0.0587742
0.0635313
0.0669479
0.0651823
0.0558007
0.0615256
0.0481602
0.0272313
0.0323147
0.0417808
0.0523042
0.0567688
0.0513845
0.0405353
0.0316733
0.0293254
0.0334056
0.0406202
0.0470621
0.0487687
0.0428899
0.0561587
0.0474964
0.0254228
0.0273874
0.032122
0.0374785
0.0380779
0.0307952
0.0194268
0.0114798
0.0111596
0.0179915
0.0282797
0.0378173
0.0425576
0.0394075
0.0543814
0.0425624
0.0220834
0.0237489
0.0282813
0.0318697
0.0287891
0.0176039
0.00412058
-0.00428921
-0.00368471
0.00500659
0.0176479
0.0295128
0.0362367
0.0348976
0.0487387
0.0322061
0.0157529
0.0176558
0.021822
0.0235702
0.0179741
0.0051248
-0.00882736
-0.0170567
-0.0161688
-0.00707105
0.00627106
0.0189852
0.0265519
0.0263666
0.0369836
0.0185644
0.00731652
0.0099088
0.013723
0.0139761
0.00711931
-0.00566392
-0.0187633
-0.0264495
-0.0258444
-0.0175344
-0.00487627
0.00747172
0.0149856
0.0152968
0.0218378
0.00420815
-0.00237407
0.000973061
0.00445384
0.00385731
-0.0028476
-0.0140828
-0.0253832
-0.0323259
-0.0324022
-0.025653
-0.0145689
-0.00333076
0.00359067
0.00371595
0.00653701
-0.00904827
-0.0129829
-0.00943246
-0.00626604
-0.00670994
-0.0116116
-0.0198061
-0.0284483
-0.0343592
-0.0352006
-0.0303686
-0.0213448
-0.0117075
-0.00574825
-0.00667832
-0.00664128
-0.0199204
-0.0236103
-0.02041
-0.017239
-0.0161712
-0.0176622
-0.0216382
-0.0269686
-0.031575
-0.0331398
-0.0302907
-0.0236403
-0.016127
-0.0119717
-0.014005
-0.0162925
-0.0273962
-0.0323697
-0.029515
-0.0255072
-0.0216334
-0.0186217
-0.0178394
-0.0197396
-0.022997
-0.0252186
-0.0243951
-0.0204027
-0.0155542
-0.0137764
-0.0178666
-0.0217016
-0.0301056
-0.0369958
-0.0338496
-0.0280481
-0.0205269
-0.0127338
-0.00753653
-0.00651474
-0.00873911
-0.011643
-0.0128289
-0.0116715
-0.00993194
-0.0110858
-0.0177558
-0.0222759
-0.027224
-0.0360265
-0.0317898
-0.0235416
-0.0121876
-0.000187127
0.00833911
0.0112174
0.00944167
0.00578077
0.00277107
0.00123589
-0.000157716
-0.00435046
-0.0137138
-0.0178549
-0.0187867
-0.0293873
-0.0237118
-0.0129903
0.00167621
0.0166924
0.0269277
0.0302643
0.0282345
0.0238438
0.0195106
0.0159423
0.012059
0.00543064
-0.0061704
-0.0088096
-0.00574665
-0.0183271
-0.0115425
0.000983612
0.0178527
0.0342444
0.044326
0.0466026
0.0436576
0.038778
0.0340005
0.0296264
0.0245937
0.0168287
0.00400598
0.00398435
0.00992928
-0.00524236
0.00174127
0.0146154
0.0320242
0.0480965
0.0563871
0.056355
0.0521463
0.0472349
0.0432795
0.0397615
0.0353662
0.0280451
0.0156752
0.0191076
0.0256083
0.00688263
0.01263
0.0242209
0.0403485
0.0545814
0.0599847
0.0572706
0.0519478
0.0479819
0.0463557
0.0456576
0.0437881
0.038692
0.0275985
0.0348109
0.0410621
0.0183997
0.0239957
0.0375424
0.0551145
0.0659861
0.0641524
0.0548758
0.0467297
0.044091
0.0466222
0.0511447
0.0541755
0.0516956
0.0415713
0.0518277
0.0238053
0.00275134
0.00651228
0.0142195
0.0231073
0.0266998
0.0217783
0.0125847
0.00613916
0.00625397
0.0120867
0.0199713
0.0261564
0.0272051
0.0208795
0.0324365
0.0256753
0.00307224
0.00438922
0.0084132
0.0128985
0.0124389
0.00431166
-0.0063839
-0.0129747
-0.0117241
-0.00381284
0.00674712
0.0160956
0.0206665
0.0176375
0.0322725
0.0262753
0.00447813
0.00516192
0.00885752
0.0116832
0.00803899
-0.00331532
-0.0162951
-0.0235491
-0.0216409
-0.0119078
0.00121015
0.0131576
0.0198937
0.0185074
0.0320829
0.0230271
0.00504217
0.00595083
0.00953445
0.0109438
0.00523662
-0.00751972
-0.0211932
-0.028961
-0.0274597
-0.0177242
-0.00389809
0.00918457
0.0171154
0.0170404
0.0273487
0.0171139
0.00453909
0.0063272
0.00999481
0.0104395
0.00385994
-0.00878869
-0.0220227
-0.0300212
-0.029656
-0.0212991
-0.00826202
0.00473769
0.0130517
0.0138163
0.0200083
0.00973731
0.00209027
0.00494124
0.0087585
0.008859
0.00272846
-0.0084151
-0.0202345
-0.0281099
-0.0290864
-0.0227617
-0.0113989
0.000753221
0.00880442
0.00971688
0.0120858
0.00153237
-0.00317866
0.000189228
0.00421854
0.00492865
0.000788548
-0.00742231
-0.0168637
-0.0240575
-0.026162
-0.0219936
-0.0127529
-0.00207235
0.00511677
0.00529187
0.00457955
-0.00692261
-0.0109859
-0.00763467
-0.00313573
-0.000561295
-0.00117325
-0.00524097
-0.0114984
-0.0174679
-0.0203516
-0.0182775
-0.011501
-0.00297646
0.00245837
0.00122076
-0.00204956
-0.0144115
-0.019444
-0.0162216
-0.0106017
-0.00499929
-0.00108316
-0.000420823
-0.00318281
-0.00766764
-0.0110996
-0.0110992
-0.00716998
-0.00157383
0.0012309
-0.00222687
-0.00740741
-0.0197404
-0.0261442
-0.0226033
-0.0151571
-0.00592524
0.00272526
0.00786313
0.00823802
0.00507182
0.00112636
-0.000949522
-0.000164691
0.00187597
0.0013607
-0.00470404
-0.0109617
-0.0216833
-0.0293597
-0.0248833
-0.015247
-0.00245405
0.0102799
0.0188431
0.0213735
0.0190009
0.0144957
0.0105162
0.00824407
0.00662512
0.00263339
-0.00611435
-0.0122145
-0.0200075
-0.0286295
-0.0229146
-0.0112743
0.00435486
0.0198624
0.0302192
0.0335205