/*--------------------------------*- C++ -*----------------------------------*\
| =========                 |                                                 |
| \\      /  F ield         | OpenFOAM: The Open Source CFD Toolbox           |
|  \\    /   O peration     | Version:  3.0.0                                 |
|   \\  /    A nd           | Web:      www.OpenFOAM.org                      |
|    \\/     M anipulation  |                                                 |
\*---------------------------------------------------------------------------*/
FoamFile
{
    version     2.0;
    format      ascii;
    class       surfaceScalarField;
    location    "6.75";
    object      phi;
}
// * * * * * * * * * * * * * * * * * * * * * * * * * * * * * * * * * * * * * //

dimensions      [0 3 -1 0 0 0 0];

internalField   nonuniform List<scalar> 
11520
(
-0.000333652
-0.000696929
0.000196295
-0.000355691
-0.000813106
0.000325666
-0.000331457
-0.000877069
0.000440404
-0.000256545
-0.000888892
0.000515189
-0.000138521
-0.000849992
0.000530644
2.09833e-06
-0.000760445
0.000479303
0.000133604
-0.000619367
0.000370679
0.000218958
-0.000426261
0.000230417
0.000231253
-0.000185004
9.08053e-05
0.000172064
7.73742e-05
-1.95213e-05
7.45165e-05
0.000292205
-8.57055e-05
-2.19392e-05
0.00037937
-0.000112564
-9.99465e-05
0.000306556
-0.000113301
-0.000164065
0.000103594
-9.24858e-05
-0.000223647
-0.000158805
-4.50917e-05
-0.000401416
2.68099e-05
-0.000271501
-0.000729468
0.000163088
-0.000313646
-0.000825818
0.000288761
-0.000307454
-0.000875287
0.000400329
-0.000250227
-0.000880327
0.000480352
-0.000148768
-0.00084217
0.000513546
-1.97006e-05
-0.000760706
0.000492228
0.000113109
-0.000634459
0.000419888
0.000222547
-0.000461211
0.000311008
0.000285192
-0.000240925
0.000184273
0.000286138
7.85129e-06
5.93501e-05
0.00022882
0.000219557
-4.30076e-05
0.000139898
0.000300941
-0.000107703
4.85825e-05
0.000213077
-0.000132927
-3.67167e-05
2.22085e-07
-0.000120633
-0.00011951
-0.000254789
-7.11347e-05
-0.000478424
8.07347e-06
-0.000266263
-0.000698183
0.000114914
-0.000320938
-0.000777106
0.000244484
-0.000317773
-0.000816785
0.000364036
-0.000257636
-0.000819547
0.000457556
-0.000150209
-0.000786581
0.000510191
-1.30338e-05
-0.000717883
0.000513142
0.000131759
-0.000611957
0.000466641
0.000261856
-0.000465818
0.000379963
0.000358661
-0.000276713
0.000265494
0.000405457
-5.25569e-05
0.000136262
0.000388345
0.000155868
1.01199e-05
0.000313165
0.000249119
-8.98762e-05
0.000204111
0.00016863
-0.000145806
8.025e-05
-3.95756e-05
-0.0001522
-4.8117e-05
-0.000280479
-0.000110265
-0.00048368
-2.99476e-05
-0.000283558
-0.000609662
5.43538e-05
-0.000343897
-0.000677486
0.000180672
-0.000336327
-0.000713172
0.000302408
-0.000266202
-0.000717879
0.000404602
-0.00014663
-0.000692681
0.000472718
3.27064e-06
-0.000637819
0.000496895
0.000162065
-0.000552214
0.000474586
0.000309459
-0.000432872
0.000410907
0.000430078
-0.000276296
0.000314265
0.000509172
-8.24386e-05
0.000193238
0.000525474
0.000117199
5.89995e-05
0.000464965
0.000229799
-6.5639e-05
0.00033918
0.000174741
-0.000150865
0.000173873
-1.38392e-05
-0.000178924
-2.66813e-06
-0.000236295
-0.000149376
-0.000420864
-7.51459e-05
-0.000311271
-0.000474552
-1.42375e-05
-0.000371454
-0.000538103
9.85462e-05
-0.000354941
-0.000574933
0.000212183
-0.000271864
-0.000584756
0.000313874
-0.000138599
-0.0005686
0.00039017
2.44712e-05
-0.000527099
0.000430605
0.000195832
-0.000459506
0.000430332
0.000356647
-0.000363633
0.000390566
0.000492714
-0.000236145
0.000316534
0.000591017
-7.24896e-05
0.000213969
0.000629134
0.000113147
8.80686e-05
0.00057984
0.000244099
-4.51377e-05
0.000439814
0.00022481
-0.000150327
0.000237589
6.70577e-05
-0.000197009
1.78354e-05
-0.000133114
-0.000181762
-0.000303649
-0.000120054
-0.000344921
-0.000308486
-8.55014e-05
-0.00039956
-0.000374679
3.68847e-06
-0.000370645
-0.000417327
9.85888e-05
-0.000272897
-0.000434815
0.000189467
-0.000125655
-0.000428276
0.000265045
4.95811e-05
-0.00039879
0.000315058
0.000231601
-0.000346101
0.000332894
0.00040209
-0.000268868
0.000316645
0.000546943
-0.00016455
0.000268496
0.000653581
-2.65638e-05
0.000191947
0.000700509
0.000143632
8.78063e-05
0.000654634
0.000288637
-3.63315e-05
0.000501102
0.00030844
-0.000147261
0.000268351
0.00018864
-0.000205847
1.54069e-05
1.1809e-05
-0.000204416
-0.000149806
-0.00015966
-0.000383053
-0.000130956
-0.000153662
-0.000427567
-0.000207277
-9.43749e-05
-0.000383613
-0.000260342
-2.67534e-05
-0.000270067
-0.000287942
4.44009e-05
-0.000108755
-0.000291415
0.000110736
7.78951e-05
-0.000272319
0.000163039
0.000268765
-0.00023091
0.000193817
0.00044574
-0.000166833
0.000198967
0.000594183
-7.86232e-05
0.00017814
0.000700648
4.1152e-05
0.000132545
0.000743997
0.000199623
5.95602e-05
0.000691083
0.000356375
-4.17821e-05
0.000521835
0.000414311
-0.000143995
0.000265243
0.000334266
-0.000205968
-9.56171e-06
0.000178849
-0.000216375
1.98874e-05
-0.000190056
-0.000426071
3.56781e-05
-0.000211293
-0.000456397
-5.88249e-05
-0.000182744
-0.00039561
-0.000127322
-0.000145302
-0.00026565
-0.00016738
-9.91277e-05
-9.03135e-05
-0.000180776
-4.85874e-05
0.000107196
-0.00016967
-1.23357e-06
0.000305455
-0.000135353
3.61612e-05
0.000486007
-7.86353e-05
5.86426e-05
0.000633347
1.17815e-06
6.36093e-05
0.000732204
0.000112183
5.03828e-05
0.000760653
0.000267098
1.32499e-05
0.000689838
0.000437838
-5.78351e-05
0.000501522
0.000531047
-0.000141047
0.000227862
0.000487336
-0.000199011
-5.74123e-05
0.0003482
-0.000217948
0.000183524
-0.000208568
-0.000474255
0.000167414
-0.000249142
-0.000486761
4.65235e-05
-0.000244799
-0.000408137
-4.19136e-05
-0.000234439
-0.000262082
-9.56807e-05
-0.000213412
-7.35381e-05
-0.000117655
-0.00018204
0.000133379
-0.000111202
-0.000144942
0.000336785
-7.87803e-05
-0.000108276
0.000517535
-2.25417e-05
-7.65677e-05
0.000658498
5.73882e-05
-5.16982e-05
0.000741943
0.000170617
-3.6151e-05
0.000745745
0.000333226
-4.06366e-05
0.000647646
0.000522971
-7.82036e-05
0.000438644
0.000647238
-0.000138126
0.00015603
0.000631508
-0.000187178
-0.00012735
0.000499909
-0.000210452
0.000320591
-0.000213127
-0.00052408
0.000239716
-0.000256238
-0.000515864
8.64185e-05
-0.000263548
-0.000420271
-2.39285e-05
-0.000270931
-0.000261042
-8.9938e-05
-0.00027065
-6.27544e-05
-0.00011641
-0.000259547
0.000150159
-0.000108611
-0.000238974
0.000354957
-7.10721e-05
-0.000212288
0.000530983
-7.80792e-06
-0.000181427
0.000658764
8.10993e-05
-0.000146355
0.000718008
0.000207887
-0.000110391
0.000689049
0.000389938
-8.82454e-05
0.000558647
0.000602578
-9.83349e-05
0.000331885
0.000750884
-0.000135579
5.08707e-05
0.000750611
-0.000172867
-0.000216698
0.00061439
-0.000195217
0.000412643
-0.000202195
-0.000562584
0.00023223
-0.000223707
-0.000533421
4.70815e-05
-0.000229032
-0.00042623
-8.16889e-05
-0.00024223
-0.000261478
-0.000154754
-0.000255179
-6.11617e-05
-0.000179064
-0.000263127
0.000151018
-0.000162362
-0.000264145
0.000351062
-0.000111675
-0.000257156
0.00051571
-3.29404e-05
-0.000239154
0.000622156
7.42566e-05
-0.000206397
0.00064861
0.000224643
-0.000162403
0.000581061
0.000433494
-0.000125248
0.000420255
0.000667734
-0.000116147
0.000185929
0.000827661
-0.000133963
-7.75193e-05
0.00082614
-0.0001574
-0.000313743
0.000672554
-0.000172129
0.000444022
-0.000175436
-0.000568111
0.000138471
-0.000153758
-0.000523958
-6.70994e-05
-0.000148003
-0.000416101
-0.000204666
-0.000156404
-0.000258668
-0.000276788
-0.000173766
-6.83055e-05
-0.000292013
-0.000196414
0.000133462
-0.000259728
-0.000220551
0.00032103
-0.000189066
-0.000240178
0.000466837
-8.73294e-05
-0.000245716
0.000543594
4.65556e-05
-0.000228102
0.00053042
0.000227709
-0.000189741
0.000424075
0.000463484
-0.000150032
0.000242692
0.000708249
-0.000130349
1.85779e-05
0.000860071
-0.000131944
-0.000207212
0.00083803
-0.000139318
-0.000394781
0.000656705
-0.000141434
0.000403007
-0.000135417
-0.00052746
-2.5272e-05
-6.41393e-05
-0.000480216
-0.000231245
-4.32423e-05
-0.000385263
-0.000364577
-3.94871e-05
-0.000248459
-0.000428082
-5.27456e-05
-8.00557e-05
-0.00042989
-8.27396e-05
0.000101528
-0.000379331
-0.000125967
0.000269422
-0.000285973
-0.000172867
0.000390809
-0.000156769
-0.000207657
0.000433627
9.4219e-06
-0.000215304
0.000380365
0.000223444
-0.000194806
0.000242747
0.000477816
-0.000163103
5.7131e-05
0.000713075
-0.000139475
-0.000136398
0.000832487
-0.000127725
-0.000306608
0.000772118
-0.000118882
-0.000433587
0.000558485
-0.000105749
0.000287716
-8.84487e-05
-0.00045328
-0.000223211
2.20306e-05
-0.000414856
-0.000410629
5.99849e-05
-0.000341991
-0.000529243
8.01487e-05
-0.000232501
-0.000578652
7.79758e-05
-9.20318e-05
-0.00056652
4.92305e-05
6.41149e-05
-0.000499774
-4.00609e-06
0.000209461
-0.000385468
-7.30227e-05
0.000306764
-0.000229894
-0.000136286
0.000320989
-3.20415e-05
-0.000174603
0.00023891
0.000210372
-0.000181392
8.57129e-05
0.000470414
-0.000166747
-8.81823e-05
0.000675597
-0.000145864
-0.000239669
0.000741476
-0.000125268
-0.00035032
0.00063144
-0.000102258
-0.000419944
0.000388986
-7.35445e-05
0.00011364
-4.32178e-05
-0.000377176
-0.000417764
8.89639e-05
-0.000353649
-0.00057836
0.000147104
-0.000301596
-0.000676593
0.000187934
-0.000216426
-0.000711317
0.000201993
-0.000100184
-0.000686749
0.00018186
3.40483e-05
-0.00060723
0.000126262
0.000160065
-0.000477545
4.5196e-05
0.000241186
-0.000301949
-4.111e-05
0.000242948
-8.07515e-05
-0.000110599
0.000155294
0.000178761
-0.000150973
7.42086e-06
0.000432088
-0.00016323
-0.000146461
0.000595948
-0.000155117
-0.000263355
0.000600629
-0.000132887
-0.000333136
0.000441452
-9.89266e-05
-0.000367897
0.000180783
-5.49744e-05
-8.71179e-05
-8.70338e-06
-0.000319247
0.000122416
-0.000304998
0.000199386
-0.000264121
0.000260937
-0.000192644
0.000295141
-9.22489e-05
0.000291992
2.57436e-05
0.000247197
0.000138289
0.000167296
0.000213071
6.98713e-05
0.000219369
-2.37354e-05
0.000148618
-9.71999e-05
2.66709e-05
-0.000141318
-0.000101425
-0.000154369
-0.000201743
-0.00014014
-0.000265976
-0.000104181
-0.000302219
-5.18192e-05
6.79318e-06
-0.000484536
-0.000741631
0.000369153
-0.0005153
-0.000796119
0.000425441
-0.000487383
-0.000805018
0.00046264
-0.000395815
-0.000766202
0.000459277
-0.00024836
-0.000685574
0.00040858
-6.91854e-05
-0.000572569
0.000319186
0.000101517
-0.000438285
0.000215227
0.000216957
-0.000288237
0.000127031
0.000244134
-0.000118171
7.42344e-05
0.000185214
6.47935e-05
5.71123e-05
7.78757e-05
0.000211224
6.24299e-05
-3.5421e-05
0.000252772
7.72502e-05
-0.000136062
0.000160747
9.64462e-05
-0.000226936
-3.50573e-05
0.000124213
-0.000315839
-0.00026684
0.000166868
-0.000458421
0.000214952
-0.000408656
-0.000738577
0.000264568
-0.000457777
-0.000776437
0.0003182
-0.000448412
-0.000772413
0.000358359
-0.000377369
-0.000728652
0.000371759
-0.000250606
-0.000650744
0.000351952
-8.67099e-05
-0.000546343
0.000302106
8.27836e-05
-0.000424017
0.000236127
0.000220444
-0.000287902
0.000173012
0.000295024
-0.000133553
0.000125075
0.000292259
3.51214e-05
9.17866e-05
0.000222347
0.000170572
6.75562e-05
0.000117213
0.000197524
5.26785e-05
5.89562e-06
8.74614e-05
5.16757e-05
-0.000103089
-0.000115728
6.90218e-05
-0.000210837
-0.000335714
0.000105488
-0.000507578
0.000150515
-0.000380334
-0.000669435
0.000164426
-0.000438199
-0.000692638
0.00021855
-0.000431644
-0.000680201
0.00026527
-0.000360857
-0.000635876
0.000293993
-0.000233984
-0.000565159
0.000297732
-6.89497e-05
-0.000474697
0.000276462
0.000106987
-0.000371399
0.000238087
0.000263077
-0.000258327
0.000194299
0.000372723
-0.000130291
0.000152587
0.000416191
1.57252e-05
0.00011219
0.000384061
0.000143614
6.92083e-05
0.000288664
0.000173144
2.99013e-05
0.000158164
6.46547e-05
7.50052e-06
1.31248e-05
-0.000132991
1.01033e-05
-0.000133363
-0.000336222
3.67313e-05
-0.000486669
7.74597e-05
-0.000366769
-0.000546722
6.19029e-05
-0.000426896
-0.000559951
0.000108112
-0.000415843
-0.000543116
0.000154269
-0.000337838
-0.000501155
0.000191876
-0.000203888
-0.000439791
0.0002134
-3.23904e-05
-0.000365214
0.000215915
0.000151865
-0.00028316
0.000202091
0.000322424
-0.000195778
0.000177798
0.000456704
-9.76446e-05
0.000147338
0.000534931
2.05484e-05
0.000110188
0.00053556
0.000139108
6.28756e-05
0.000450304
0.000181756
1.10045e-05
0.00029942
9.16525e-05
-2.69786e-05
0.000114678
-8.86981e-05
-3.84756e-05
-7.38124e-05
-0.000272295
-2.48124e-05
-0.000404089
4.96771e-06
-0.000359587
-0.000385753
-3.70006e-05
-0.000417571
-0.000394564
-8.85629e-06
-0.000398021
-0.000377473
2.69901e-05
-0.000309513
-0.000340443
6.46539e-05
-0.000165979
-0.000289691
9.65366e-05
1.34904e-05
-0.000231238
0.000117159
0.000205769
-0.000169833
0.000124726
0.000387169
-0.000106796
0.000120184
0.000537568
-3.68989e-05
0.000105389
0.000638357
5.29476e-05
8.07807e-05
0.000662886
0.000159577
4.30716e-05
0.000586371
0.000219222
-6.08873e-06
0.000417209
0.000159147
-4.8659e-05
0.000195785
5.74635e-06
-7.00301e-05
-3.04551e-05
-0.000156872
-7.09444e-05
-0.000274629
-5.85877e-05
-0.000358249
-0.000205394
-0.000124041
-0.000410336
-0.000216256
-0.000122533
-0.000379517
-0.000203605
-0.000106098
-0.000278676
-0.000174371
-7.74458e-05
-0.000124468
-0.000135321
-4.35329e-05
6.33606e-05
-9.24149e-05
-1.15943e-05
0.000262886
-4.95535e-05
1.30892e-05
0.00045222
-7.28143e-06
2.7797e-05
0.00061228
3.92761e-05
3.22603e-05
0.000724891
0.000105064
2.72203e-05
0.000762221
0.000200159
9.89434e-06
0.00068919
0.000277209
-2.12876e-05
0.000503563
0.000254273
-5.6759e-05
0.000251287
0.000134334
-8.21592e-05
-4.97489e-06
-7.52524e-06
-9.75018e-05
-0.000116613
-0.000106221
-0.000364816
-2.66477e-05
-0.000191625
-0.000407416
-4.7057e-05
-0.000220973
-0.000363046
-4.45962e-05
-0.000230132
-0.00024847
-2.6646e-05
-0.000217901
-8.28127e-05
-5.72613e-07
-0.00018967
0.000113524
2.76712e-05
-0.000153383
0.00031945
5.47929e-05
-0.000116455
0.000514242
8.08629e-05
-8.39694e-05
0.000678819
0.000110785
-5.79456e-05
0.000794121
0.00016043
-3.8124e-05
0.000831938
0.000249131
-2.72297e-05
0.000754063
0.000345684
-3.23815e-05
0.000552222
0.000363532
-5.14133e-05
0.000275628
0.000280413
-7.54532e-05
-1.99033e-06
0.000156763
-0.000103045
4.89785e-05
-0.000133605
-0.00038215
0.000128221
-0.000231758
-0.000411525
8.98543e-05
-0.00029028
-0.000351144
7.6176e-05
-0.000326456
-0.000221386
7.94381e-05
-0.000334969
-4.35851e-05
9.1577e-05
-0.000318538
0.000161014
0.000106406
-0.000284567
0.00037182
0.000121315
-0.000241167
0.000568818
0.000136893
-0.000194386
0.000732278
0.000158103
-0.000147169
0.000841268
0.000202192
-0.000100369
0.000867556
0.000294814
-5.87215e-05
0.000774819
0.000414927
-3.43414e-05
0.000556247
0.000474277
-3.32188e-05
0.000263339
0.000426822
-5.25115e-05
-2.52579e-05
0.000316279
-8.88673e-05
0.00020045
-0.000137551
-0.000413256
0.000236537
-0.000235896
-0.000425215
0.000172136
-0.000315122
-0.000346584
0.00013748
-0.000374374
-0.000200592
0.00012464
-0.000404605
-1.06555e-05
0.000124344
-0.000404743
0.000201172
0.000129598
-0.000379962
0.00041423
0.000137563
-0.000337581
0.00060856
0.000148976
-0.000282981
0.000763719
0.000169767
-0.000218522
0.00085656
0.000219639
-0.000146439
0.000858766
0.000327715
-7.57427e-05
0.000742451
0.000477032
-2.39943e-05
0.000508064
0.00057513
-4.59275e-06
0.000208807
0.000556829
-1.79283e-05
-7.79476e-05
0.000451089
-5.85073e-05
0.000317452
-0.000116384
-0.000458851
0.000277173
-0.000195805
-0.00044989
0.000181612
-0.000281986
-0.000352489
0.00012482
-0.000355672
-0.000191143
9.84873e-05
-0.000405844
9.43912e-06
9.11835e-05
-0.000426968
0.000226059
9.38796e-05
-0.000419876
0.000437391
0.000102488
-0.000388544
0.000622892
0.000117461
-0.000335413
0.000760778
0.000146483
-0.000260957
0.000826139
0.00021306
-0.000169173
0.000793839
0.000346981
-7.52121e-05
0.00064851
0.000527121
-3.09465e-06
0.0004026
0.000655489
2.99728e-05
0.000109287
0.000654196
2.30778e-05
-0.000161716
0.000542391
-1.55176e-05
0.000382636
-7.13121e-05
-0.000510355
0.000235246
-0.000108104
-0.000480453
0.000110268
-0.00018759
-0.000368685
3.5905e-05
-0.000265083
-0.000197532
3.10087e-06
-0.000330945
8.95596e-06
-2.31083e-06
-0.000376121
0.000226441
7.64425e-06
-0.000395394
0.000431678
2.64028e-05
-0.000386308
0.000601907
5.36512e-05
-0.000345573
0.000712995
9.96001e-05
-0.000270601
0.000740004
0.00019169
-0.000168041
0.000665959
0.000356123
-6.03449e-05
0.000492476
0.000561208
2.32498e-05
0.000244757
0.000704004
6.5241e-05
-2.73197e-05
0.000703004
6.58694e-05
-0.000266932
0.000572503
3.73708e-05
0.000384145
-7.19883e-06
-0.000546195
0.000110132
1.56031e-05
-0.000502254
-3.2707e-05
-4.89691e-05
-0.000387456
-0.000114663
-0.000120634
-0.000218199
-0.000144794
-0.000195128
-1.48928e-05
-0.000139122
-0.000262909
0.000197678
-0.000112361
-0.000313117
0.000392642
-7.41208e-05
-0.000334619
0.000542321
-2.59158e-05
-0.000315828
0.000618979
4.5019e-05
-0.000250179
0.000600682
0.000167746
-0.0001475
0.000484531
0.000359063
-3.68213e-05
0.000291815
0.000573496
5.00781e-05
5.83767e-05
0.000707793
9.77065e-05
-0.000173715
0.00068695
0.000108826
-0.00036707
0.000529604
9.48209e-05
0.000316542
6.70643e-05
-0.000545945
-7.71338e-05
0.000144904
-0.00050122
-0.000219564
9.889e-05
-0.000398723
-0.000296998
4.03505e-05
-0.000245795
-0.000316927
-3.35407e-05
-5.69637e-05
-0.000294604
-0.000116088
0.000143924
-0.00024552
-0.000193695
0.00032534
-0.000181507
-0.000246897
0.000452368
-0.00010573
-0.00025487
0.00049299
-4.28087e-06
-0.000206625
0.000431349
0.000148938
-0.000114357
0.000282531
0.000355472
-1.06938e-05
8.66266e-05
0.000556672
7.32541e-05
-0.000115059
0.000657045
0.000124708
-0.000293027
0.00059901
0.000147027
-0.000430436
0.000411572
0.000149692
0.000184377
0.000137448
-0.000511167
-0.000287956
0.000246815
-0.000479017
-0.000413253
0.000221524
-0.000399983
-0.000477288
0.000181404
-0.000273216
-0.000483117
0.000117399
-0.000106993
-0.000443184
3.15875e-05
7.74216e-05
-0.000371419
-6.25218e-05
0.000244436
-0.000281029
-0.000140516
0.000352447
-0.000176042
-0.000173985
0.000365655
-4.38852e-05
-0.000148207
0.000275207
0.000133515
-7.55212e-05
0.000111816
0.00033977
1.23456e-05
-7.1139e-05
0.000506375
8.7388e-05
-0.00023189
0.000552942
0.000139586
-0.00035461
0.000448238
0.000171233
-0.000441037
0.000235489
0.000188965
6.72688e-06
0.000190601
-0.000465105
-0.000483968
0.000305534
-0.000450629
-0.000584566
0.000303941
-0.000395952
-0.000630304
0.000286272
-0.000295211
-0.000621148
0.000239283
-0.000151831
-0.000565732
0.000161028
1.5563e-05
-0.000475418
6.28675e-05
0.00017115
-0.000362581
-2.88389e-05
0.000269484
-0.000232984
-8.25011e-05
0.000273605
-7.73595e-05
-8.12465e-05
0.000178697
0.000112784
-3.53337e-05
2.16018e-05
0.000305364
2.82704e-05
-0.000140777
0.000426196
8.74403e-05
-0.000268405
0.000412957
0.000134726
-0.000354009
0.000263625
0.000171291
-0.000410014
3.57113e-05
0.000200808
-0.00018383
0.000216386
-0.000416143
0.000313823
-0.000412035
0.000337821
-0.000373075
0.000346539
-0.000292494
0.000323958
-0.000170352
0.000264301
-2.04921e-05
0.000175429
0.000125263
8.19944e-05
0.000223265
1.50674e-05
0.000237085
-7.34962e-06
0.000160935
9.22778e-06
2.77376e-05
4.52212e-05
-0.000113151
8.34273e-05
-0.000227504
0.000117317
-0.000307681
0.000148853
-0.000362102
0.000182096
0.000209379
-0.000561974
-0.000675863
0.000507609
-0.000584238
-0.000646661
0.000478896
-0.000545582
-0.000577582
0.000431873
-0.000444393
-0.000475252
0.000347789
-0.000290615
-0.000355567
0.00023171
-0.000110791
-0.000238216
0.000108218
5.48187e-05
-0.000140369
1.32357e-05
0.000164059
-6.50218e-05
-2.05209e-05
0.000191947
4.06775e-06
1.26946e-05
0.000141431
7.90093e-05
9.08423e-05
4.30205e-05
0.000134146
0.000175969
-6.86885e-05
0.000118839
0.000244141
-0.000175983
8.87609e-06
0.000293087
-0.000278075
-0.000167273
0.00033205
-0.000378249
-0.000349489
0.000368085
-0.000470501
0.000389282
-0.000481284
-0.000643603
0.000337678
-0.000525935
-0.00060285
0.000319039
-0.000511038
-0.000524084
0.000289965
-0.000434636
-0.00041806
0.000238165
-0.000303513
-0.000299526
0.000164788
-0.000138189
-0.000185551
8.41184e-05
2.77399e-05
-9.16867e-05
2.15144e-05
0.000157682
-2.20208e-05
6.97026e-08
0.000225793
3.56953e-05
2.53367e-05
0.000223329
9.30343e-05
8.02254e-05
0.000160773
0.000126686
0.000137572
6.31963e-05
8.738e-05
0.000181714
-4.69793e-05
-4.27227e-05
0.00021345
-0.000160551
-0.000224159
0.00023948
-0.000274596
-0.000392082
0.000262125
-0.000492998
0.000274331
-0.000430095
-0.000551488
0.00018639
-0.00048391
-0.000501004
0.000170519
-0.000476856
-0.000416884
0.000151016
-0.000408742
-0.000311945
0.000119763
-0.000286327
-0.000200346
7.61375e-05
-0.000127109
-9.74737e-05
2.9166e-05
4.11264e-05
-1.69449e-05
-4.89001e-06
0.000187785
3.74158e-05
-1.17962e-05
0.000289311
7.66237e-05
1.01324e-05
0.000329585
0.000113967
5.09834e-05
0.000302004
0.00013394
8.95352e-05
0.000215694
8.74418e-05
0.00011615
9.21912e-05
-4.57419e-05
0.000134022
-4.87711e-05
-0.000221356
0.000148263
-0.00019111
-0.000371829
0.000158817
-0.000452888
0.000162256
-0.000388325
-0.000415385
4.61395e-05
-0.000444502
-0.000358847
2.21323e-05
-0.000437163
-0.000272994
3.04045e-06
-0.000368872
-0.000172497
-1.58635e-05
-0.000247607
-7.15304e-05
-3.66804e-05
-8.93753e-05
1.57541e-05
-5.55446e-05
8.22825e-05
7.77367e-05
-6.42482e-05
0.000241563
0.000111906
-5.5972e-05
0.000367232
0.000128978
-3.06852e-05
0.000441329
0.000145988
4.06983e-06
0.000443999
0.000157227
3.69188e-05
0.000367074
0.000117163
5.82086e-05
0.000227079
-3.26414e-06
7.05383e-05
5.4641e-05
-0.00016353
7.61362e-05
-0.000119501
-0.000295346
7.28476e-05
-0.000360077
6.06407e-05
-0.000352938
-0.000252183
-7.53555e-05
-0.000407515
-0.000194569
-0.000118558
-0.000394999
-0.000111451
-0.000147069
-0.000321357
-1.90469e-05
-0.000162437
-0.0001964
6.82277e-05
-0.000168178
-3.54438e-05
0.000137193
-0.000165236
0.000140761
0.000178609
-0.000152352
0.000309844
0.000191614
-0.000128607
0.000452338
0.000187068
-9.51941e-05
0.000549448
0.00018501
-5.53521e-05
0.000574737
0.000191472
-1.64614e-05
0.000504746
0.000167653
1.34125e-05
0.000348427
7.32826e-05
3.11131e-05
0.000145065
-6.28805e-05
3.26829e-05
-5.93325e-05
-0.000175837
1.39428e-05
-0.000228823
-2.10832e-05
-0.00032605
-8.0039e-05
-0.000169045
-0.000375932
-2.74758e-05
-0.000239745
-0.000354737
4.74065e-05
-0.000286151
-0.00027199
0.000127406
-0.000306645
-0.000139534
0.000197905
-0.000305667
2.73702e-05
0.00024687
-0.000288175
0.000209802
0.000267371
-0.000258104
0.00038731
0.00026052
-0.000218617
0.000540943
0.000237644
-0.00017195
0.000651252
0.000220937
-0.000119015
0.000688621
0.000227062
-6.30652e-05
0.000620728
0.000227647
-1.33895e-05
0.000447955
0.000170432
1.88651e-05
0.000216512
6.53945e-05
2.1009e-05
-1.40222e-05
-2.95647e-05
-1.32394e-05
-7.68253e-05
-7.33309e-05
-0.00031053
8.22555e-05
-0.000227287
-0.00035239
0.000122557
-0.000329146
-0.000319197
0.000182942
-0.00039886
-0.000224054
0.000245777
-0.000431415
-8.09707e-05
0.000296446
-0.000431294
9.4443e-05
0.000324247
-0.000406175
0.000284183
0.000324653
-0.000363478
0.000468637
0.000300884
-0.000308786
0.000628278
0.000265084
-0.000245026
0.000742286
0.000241235
-0.00017243
0.000780334
0.000254543
-9.27583e-05
0.000706421
0.000286262
-1.70838e-05
0.000516691
0.000274358
3.43908e-05
0.000261631
0.000205012
3.99899e-05
1.09476e-05
0.000125631
-7.55682e-06
7.69193e-05
-9.25036e-05
-0.000309135
0.000214996
-0.000243134
-0.000338467
0.000235327
-0.000373719
-0.000289263
0.000275451
-0.000468169
-0.000178425
0.000317489
-0.000517519
-2.24463e-05
0.00034674
-0.000524812
0.000162293
0.000353788
-0.000498847
0.000358153
0.000336495
-0.000448868
0.000545835
0.000300192
-0.000381376
0.000704847
0.000258226
-0.000299324
0.000812497
0.000236616
-0.0002034
0.000838613
0.000266665
-9.69598e-05
0.000749872
0.000336009
4.65255e-06
0.000542957
0.000372773
7.52803e-05
0.000271142
0.000339335
8.49803e-05
9.23884e-06
0.000270473
2.81938e-05
0.000212042
-7.56643e-05
-0.000325833
0.000297668
-0.00020961
-0.000337086
0.000291598
-0.00036014
-0.000267606
0.000308286
-0.000476689
-0.000138207
0.00032961
-0.000546125
3.16318e-05
0.000339952
-0.000567794
0.000224361
0.000330343
-0.000549247
0.000422443
0.000300411
-0.000499579
0.000606792
0.000257384
-0.000424521
0.000756109
0.000216482
-0.000326095
0.000845969
0.000206609
-0.000206292
0.000847793
0.000262513
-7.34152e-05
0.000735865
0.000372534
5.14088e-05
0.000513596
0.000455057
0.000135392
0.000234601
0.000451776
0.000148626
-2.80924e-05
0.000386175
8.84827e-05
0.000307958
-2.35163e-05
-0.000365003
0.000311858
-0.000121607
-0.000353615
0.000276791
-0.000278567
-0.000261565
0.000271553
-0.000410989
-0.000112643
0.000277687
-0.000502843
7.05315e-05
0.000277238
-0.000547429
0.000268621
0.000259837
-0.000547459
0.000463745
0.000225534
-0.000508791
0.000636841
0.000183058
-0.000434183
0.000765904
0.000150381
-0.000323919
0.00082574
0.000160278
-0.000182677
0.000792243
0.000247734
-2.69364e-05
0.000651976
0.000395355
0.000114352
0.00041914
0.000512233
0.000205633
0.000145687
0.000526183
0.000222123
-0.000103603
0.000453955
0.000165993
0.000347869
6.17883e-05
-0.000423876
0.000246595
1.89227e-05
-0.000389672
0.000186596
-0.000131598
-0.000278261
0.000166522
-0.000271463
-0.000113353
0.000167635
-0.0003858
8.04337e-05
0.000168756
-0.000461426
0.000281121
0.000156137
-0.000492382
0.000469047
0.00012828
-0.00047698
0.000623979
9.4755e-05
-0.000412201
0.00072294
7.71458e-05
-0.000296328
0.000741956
0.000112167
-0.000138946
0.000665949
0.000230879
3.2517e-05
0.000497715
0.000404344
0.000182495
0.000263111
0.000535962
0.000276117
7.75068e-06
0.00054998
0.000297433
-0.00021171
0.000457621
0.000253165
0.00032288
0.000168192
-0.000484413
0.00010524
0.000192609
-0.000434909
3.24078e-05
5.57148e-05
-0.000315207
8.93091e-06
-8.27444e-05
-0.000144393
1.64711e-05
-0.000214778
5.36944e-05
3.16654e-05
-0.000323907
0.000253904
3.66892e-05
-0.000393878
0.000432306
2.65391e-05
-0.000411281
0.000565034
1.05933e-05
-0.000364394
0.000627672
1.40592e-05
-0.000249731
0.000600643
7.56137e-05
-8.39175e-05
0.00048241
0.000217227
9.50636e-05
0.000294824
0.000396765
0.000245243
7.29743e-05
0.000517215
0.000338304
-0.000144752
0.000510035
0.000366497
-0.000325427
0.000392476
0.000340642
0.000234494
0.000278785
-0.000521829
-8.86213e-05
0.000357538
-0.000471706
-0.000157446
0.00023862
-0.000360154
-0.000172706
0.000110436
-0.000197989
-0.000149947
-2.92867e-05
-5.22791e-06
-0.000112464
-0.00016472
0.000190558
-8.07671e-05
-0.000272025
0.000358921
-6.44535e-05
-0.000324268
0.000469719
-5.58207e-05
-0.000299254
0.000496878
-2.76477e-05
-0.000192077
0.000428312
5.68548e-05
-2.70323e-05
0.000279134
0.000206448
0.000149263
8.79462e-05
0.000367624
0.000293582
-0.000105991
0.000451574
0.000384285
-0.000276526
0.000407318
0.000420279
-0.000409772
0.000262314
0.000413099
9.36839e-05
0.000371543
-0.000526611
-0.000295318
0.000470802
-0.000490763
-0.000345897
0.000374128
-0.000401205
-0.000345168
0.000264309
-0.000260261
-0.000303551
0.000130058
-8.19796e-05
-0.000241536
-1.76225e-05
0.0001055
-0.000180419
-0.00015035
0.000265175
-0.000134042
-0.000230602
0.000359788
-9.79824e-05
-0.000226436
0.000361973
-4.59761e-05
-0.000132063
0.00026801
5.2905e-05
2.23917e-05
0.00010742
0.000193011
0.000186372
-7.07539e-05
0.000314415
0.000318771
-0.000228224
0.000344274
0.000404356
-0.000351487
0.000256097
0.000445717
-0.000442912
8.92553e-05
0.000453449
-7.70467e-05
0.000427739
-0.000510152
-0.000476223
0.000514787
-0.000494867
-0.00050204
0.000444799
-0.000431733
-0.000481074
0.000359044
-0.000316573
-0.000420087
0.00024066
-0.000157426
-0.000335795
9.61391e-05
1.95643e-05
-0.000248425
-4.61171e-05
0.000173686
-0.000174651
-0.000142352
0.000262373
-0.000114628
-0.000154542
0.000257742
-4.55492e-05
-7.70431e-05
0.000161434
5.58208e-05
5.80593e-05
9.45393e-06
0.000172465
0.000200797
-0.000147144
0.00024341
0.000315044
-0.0002736
0.000214898
0.000390557
-0.000364552
8.61885e-05
0.000432152
-0.000431248
-9.29001e-05
0.00044966
-0.000248341
0.000438237
-0.000471594
0.000490848
-0.000472472
0.000452129
-0.000432899
0.000395585
-0.000344726
0.000301249
-0.000209037
0.000171477
-4.58773e-05
3.32041e-05
0.000104592
-6.63744e-05
0.000197497
-8.91324e-05
0.000204135
-2.99525e-05
0.000126535
8.04249e-05
-2.43888e-06
0.000197385
-0.000138224
0.000288602
-0.000250569
0.000346337
-0.00033338
0.000379379
-0.000395135
0.000399399
0.00040155
-0.000538197
-0.000529449
0.000588228
-0.000542561
-0.00042854
0.000482608
-0.000495453
-0.000294448
0.000360734
-0.000398489
-0.000147387
0.00020873
-0.000262922
-1.31852e-05
4.24865e-05
-0.000117069
8.56745e-05
-0.000101572
3.23817e-06
0.000129588
-0.000179832
7.13157e-05
0.000125986
-0.000165935
7.88133e-05
0.00010028
-6.5379e-05
3.57761e-05
7.51143e-05
8.6054e-05
-3.91038e-05
4.37117e-05
0.000240626
-0.000127378
-2.35094e-05
0.000364934
-0.000217292
-0.000140845
0.000451033
-0.000305984
-0.000282837
0.0005048
-0.000392179
-0.000400389
0.00053229
-0.000444049
0.000526543
-0.00046459
-0.000483232
0.000374083
-0.000496525
-0.000373198
0.000295633
-0.000478092
-0.000229943
0.000207026
-0.000408591
-7.64143e-05
9.76916e-05
-0.000297146
6.30849e-05
-2.29267e-05
-0.00016471
0.000164627
-0.00012727
-4.24885e-05
0.000211133
-0.000182251
4.48979e-05
0.000205275
-0.000166605
8.63141e-05
0.000168613
-8.44126e-05
8.31674e-05
0.000121995
3.64911e-05
4.26677e-05
6.23176e-05
0.000159466
-2.4235e-05
-3.36505e-05
0.000258758
-0.000107411
-0.000171059
0.00032684
-0.000199453
-0.000316602
0.000365287
-0.000294567
-0.00042042
0.00037727
-0.000445655
0.000363337
-0.000400012
-0.000388117
0.000182417
-0.000445374
-0.000271108
0.000113792
-0.000442527
-0.000123563
4.17891e-05
-0.000390222
3.04399e-05
-3.93964e-05
-0.000294467
0.000167053
-0.000123585
-0.000172046
0.000262945
-0.000191573
-4.76632e-05
0.000302018
-0.000220158
5.66891e-05
0.000285904
-0.000196778
0.000127902
0.000233997
-0.000126465
0.000160728
0.00016896
-2.88077e-05
0.00015034
9.17446e-05
7.04966e-05
9.71315e-05
-1.65914e-05
0.000152299
1.00839e-05
-0.000158799
0.00020881
-9.70755e-05
-0.000298329
0.000237149
-0.000208881
-0.00038625
0.000236453
-0.000395072
0.000211661
-0.000342913
-0.000260679