/*--------------------------------*- C++ -*----------------------------------*\
| =========                 |                                                 |
| \\      /  F ield         | OpenFOAM: The Open Source CFD Toolbox           |
|  \\    /   O peration     | Version:  3.0.0                                 |
|   \\  /    A nd           | Web:      www.OpenFOAM.org                      |
|    \\/     M anipulation  |                                                 |
\*---------------------------------------------------------------------------*/
FoamFile
{
    version     2.0;
    format      ascii;
    class       volVectorField;
    location    "6.75";
    object      U;
}
// * * * * * * * * * * * * * * * * * * * * * * * * * * * * * * * * * * * * * //

dimensions      [0 1 -1 0 0 0 0];

internalField   nonuniform List<vector> 
4096
(
(-0.08167 -0.18121 0.0281825)
(-0.0898834 -0.217263 0.0677344)
(-0.0908739 -0.238625 0.103358)
(-0.0780002 -0.24391 0.129035)
(-0.052546 -0.233076 0.139529)
(-0.018238 -0.20632 0.131669)
(0.0183541 -0.164356 0.105818)
(0.0484424 -0.108804 0.0665908)
(0.062913 -0.0427126 0.022215)
(0.0563115 0.0256297 -0.0171417)
(0.0330116 0.0798414 -0.0433586)
(0.00560447 0.103448 -0.0554879)
(-0.0169745 0.0890851 -0.0575186)
(-0.0345124 0.0407955 -0.0520588)
(-0.0507705 -0.0270776 -0.0384176)
(-0.0609275 -0.0940269 -0.0161631)
(-0.0623484 -0.182301 0.0274522)
(-0.0771153 -0.208142 0.0663848)
(-0.082586 -0.221512 0.101015)
(-0.0741588 -0.223155 0.127096)
(-0.0531382 -0.213477 0.140625)
(-0.0226585 -0.192363 0.138883)
(0.0120915 -0.159229 0.12147)
(0.0446739 -0.113283 0.0906832)
(0.0685674 -0.0544898 0.0509144)
(0.0777821 0.0114507 0.00873992)
(0.0692344 0.0663173 -0.0270855)
(0.0480301 0.0869567 -0.0499704)
(0.0240205 0.064739 -0.0593137)
(0.00147992 0.010142 -0.0564548)
(-0.0208121 -0.0562538 -0.0416404)
(-0.0379023 -0.115146 -0.0162168)
(-0.0590081 -0.186024 0.0212007)
(-0.0781822 -0.208065 0.062135)
(-0.0853262 -0.219054 0.0994481)
(-0.0767252 -0.219743 0.128944)
(-0.0544463 -0.21047 0.14672)
(-0.0221457 -0.191204 0.150082)
(0.015006 -0.161505 0.138374)
(0.0513224 -0.120601 0.113274)
(0.0817653 -0.0679843 0.0777102)
(0.101814 -0.00694673 0.0356903)
(0.106227 0.0471532 -0.00628101)
(0.093002 0.0687923 -0.0394842)
(0.0680649 0.04595 -0.0584178)
(0.0373538 -0.00897776 -0.0614733)
(0.0033123 -0.0727155 -0.0485834)
(-0.0262508 -0.127239 -0.0223075)
(-0.0623814 -0.170486 0.0110048)
(-0.0840824 -0.188906 0.0523669)
(-0.0911041 -0.198247 0.0911396)
(-0.0804502 -0.198999 0.123165)
(-0.0551905 -0.191449 0.144608)
(-0.0196418 -0.175618 0.152716)
(0.0208961 -0.151159 0.146571)
(0.0610324 -0.117276 0.127232)
(0.0963463 -0.0731029 0.0968839)
(0.123414 -0.0194605 0.0579864)
(0.137473 0.0331434 0.0142759)
(0.132145 0.0593712 -0.0266571)
(0.107135 0.0412029 -0.0553222)
(0.0677705 -0.0103923 -0.0656071)
(0.0207862 -0.0698983 -0.056212)
(-0.0212818 -0.119372 -0.0309002)
(-0.0693196 -0.140924 -0.00229765)
(-0.0917461 -0.157332 0.0369364)
(-0.0973724 -0.16634 0.0747008)
(-0.0837133 -0.168055 0.107173)
(-0.0549027 -0.16273 0.130757)
(-0.0158868 -0.150467 0.142692)
(0.0279482 -0.131022 0.141745)
(0.0713906 -0.103722 0.128349)
(0.110208 -0.0676546 0.104044)
(0.141355 -0.0220592 0.070435)
(0.161061 0.0274896 0.0289975)
(0.161646 0.0589273 -0.0153563)
(0.136965 0.0490481 -0.0514507)
(0.0898616 0.0041119 -0.0683955)
(0.0311446 -0.050098 -0.0630573)
(-0.0212353 -0.0952804 -0.0403059)
(-0.0786532 -0.101444 -0.0179819)
(-0.100021 -0.117623 0.0164365)
(-0.10321 -0.127531 0.0503536)
(-0.0859082 -0.130895 0.0806805)
(-0.0533029 -0.12797 0.104323)
(-0.0108879 -0.118968 0.118659)
(0.0358806 -0.103752 0.122173)
(0.0819234 -0.0818666 0.114676)
(0.123064 -0.0525554 0.0970366)
(0.156148 -0.0143048 0.0702708)
(0.177941 0.0311758 0.0343349)
(0.181216 0.0667382 -0.00875448)
(0.156125 0.0667691 -0.0483172)
(0.102367 0.0309518 -0.0699001)
(0.0340444 -0.0173288 -0.0684356)
(-0.0254889 -0.0594988 -0.0494921)
(-0.0899862 -0.0563851 -0.0349604)
(-0.10861 -0.0741499 -0.0074757)
(-0.108559 -0.0860951 0.0200791)
(-0.0871716 -0.0916998 0.0457632)
(-0.0506289 -0.0912626 0.0672647)
(-0.0049021 -0.0851132 0.0822881)
(0.0444774 -0.0732495 0.089156)
(0.0924991 -0.0554512 0.0871606)
(0.13497 -0.0312139 0.0765269)
(0.168413 0.00127163 0.0576998)
(0.189486 0.0429505 0.0295477)
(0.191848 0.0815559 -0.00836524)
(0.164431 0.0916069 -0.0470371)
(0.104814 0.0660349 -0.0704595)
(0.0294991 0.0236647 -0.072156)
(-0.0336527 -0.0169489 -0.0576583)
(-0.103424 -0.011038 -0.051586)
(-0.117664 -0.0323598 -0.0318247)
(-0.113769 -0.0475617 -0.012039)
(-0.088035 -0.0560226 0.00729375)
(-0.0475005 -0.0581349 0.0248596)
(0.00145985 -0.0543598 0.0388553)
(0.0531996 -0.044883 0.047604)
(0.10266 -0.0297687 0.0501304)
(0.145538 -0.00874601 0.0461873)
(0.177922 0.0201424 0.0356699)
(0.195934 0.0595781 0.0164885)
(0.193946 0.101194 -0.0136946)
(0.161797 0.120685 -0.0478883)
(0.0969948 0.105139 -0.0704364)
(0.0175723 0.067812 -0.0742471)
(-0.0456232 0.0268951 -0.0641625)
(-0.119112 0.02868 -0.0654114)
(-0.12727 0.00164533 -0.0522885)
(-0.119108 -0.0181065 -0.0399356)
(-0.0890037 -0.0299957 -0.0273083)
(-0.0446525 -0.0345892 -0.0147022)
(0.00723752 -0.0325625 -0.00331074)
(0.0608818 -0.0243605 0.00546604)
(0.111092 -0.0103349 0.0106775)
(0.153306 0.00954586 0.0120327)
(0.183039 0.0374869 0.00903987)
(0.195782 0.0773091 -0.00129564)
(0.186509 0.123018 -0.0228864)
(0.14763 0.151103 -0.0505129)
(0.0787533 0.144087 -0.0701456)
(-0.00167187 0.110027 -0.0748826)
(-0.0614373 0.0665686 -0.0683575)
(-0.136226 0.0564452 -0.0731516)
(-0.136561 0.0215882 -0.0638323)
(-0.124053 -0.00375349 -0.0567797)
(-0.0901742 -0.0192188 -0.0497667)
(-0.0428787 -0.0257092 -0.0422893)
(0.0110416 -0.024297 -0.0348895)
(0.0656898 -0.0158279 -0.0284081)
(0.115593 -0.00106819 -0.0232347)
(0.155696 0.0199116 -0.0192125)
(0.180787 0.0498612 -0.0169642)
(0.185949 0.0932494 -0.0202747)
(0.167368 0.144546 -0.0339489)
(0.121114 0.179964 -0.0543886)
(0.0502982 0.178797 -0.0698223)
(-0.0275413 0.145284 -0.0740771)
(-0.0804666 0.0970138 -0.0694813)
(-0.150906 0.0659092 -0.0715768)
(-0.14258 0.0221351 -0.0626783)
(-0.126507 -0.00884259 -0.0578201)
(-0.0906825 -0.0270817 -0.0542966)
(-0.0425237 -0.0340437 -0.051335)
(0.0115477 -0.03141 -0.0489532)
(0.0655965 -0.0206481 -0.0471744)
(0.113652 -0.00303201 -0.0453108)
(0.149807 0.0214422 -0.0421933)
(0.167981 0.0562954 -0.0382224)
(0.163447 0.106028 -0.0375482)
(0.134761 0.163604 -0.0452281)
(0.0826568 0.204072 -0.0588965)
(0.013561 0.204975 -0.0693274)
(-0.0572272 0.168631 -0.0714335)
(-0.0998908 0.113738 -0.0667865)
(-0.155997 0.0526957 -0.0598871)
(-0.140844 0.00156039 -0.0490341)
(-0.123282 -0.0333344 -0.043476)
(-0.088706 -0.0524979 -0.0409925)
(-0.0429986 -0.0579831 -0.0411683)
(0.00840825 -0.0520798 -0.0439169)
(0.0596856 -0.0369344 -0.0485167)
(0.104084 -0.0142855 -0.0528949)
(0.134326 0.0160741 -0.0544357)
(0.143404 0.0582095 -0.0526828)
(0.127861 0.115456 -0.0514398)
(0.0901396 0.177878 -0.0553365)
(0.0360136 0.219277 -0.06297)
(-0.0260225 0.217477 -0.0678369)
(-0.0844407 0.175106 -0.0665)
(-0.114101 0.113038 -0.0601098)
(-0.146384 0.0180338 -0.0412638)
(-0.129169 -0.0359309 -0.0274097)
(-0.113052 -0.0715333 -0.0191596)
(-0.0831783 -0.089409 -0.0155566)
(-0.0432436 -0.0918164 -0.0170054)
(0.00266088 -0.0812976 -0.0238012)
(0.0490079 -0.0603904 -0.0348595)
(0.0881923 -0.0310084 -0.047017)
(0.111282 0.00721525 -0.0561082)
(0.110437 0.0579635 -0.0600787)
(0.084442 0.121635 -0.061159)
(0.0407698 0.184641 -0.06302)
(-0.010158 0.220921 -0.0654557)
(-0.0596401 0.211306 -0.0648762)
(-0.101371 0.160795 -0.0594231)
(-0.117402 0.0928988 -0.0503793)
(-0.125221 -0.0313999 -0.0207835)
(-0.111006 -0.0828517 -0.00337058)
(-0.098689 -0.115849 0.00864758)
(-0.0754002 -0.130591 0.0148278)
(-0.0428292 -0.129192 0.0138821)
(-0.00388917 -0.11384 0.00495426)
(0.0363984 -0.0868042 -0.0110293)
(0.069938 -0.0498881 -0.0306849)
(0.0865336 -0.0027612 -0.0486932)
(0.0778818 0.0563624 -0.0609101)
(0.0449538 0.123177 -0.0667383)
(-0.000279195 0.180657 -0.0683771)
(-0.0440551 0.205372 -0.0670188)
(-0.0788487 0.183989 -0.0617108)
(-0.103699 0.125134 -0.0519579)
(-0.108561 0.0541415 -0.0394895)
(-0.102175 -0.0870316 -0.00279345)
(-0.0935722 -0.132899 0.0188967)
(-0.0855241 -0.161533 0.0354778)
(-0.0680898 -0.172483 0.045363)
(-0.0418739 -0.167225 0.0465207)
(-0.00895557 -0.14727 0.037448)
(0.0259797 -0.11432 0.0186082)
(0.0549841 -0.070014 -0.00679392)
(0.0679433 -0.0146174 -0.033318)
(0.0568259 0.0506825 -0.0551289)
(0.0233691 0.116513 -0.0685008)
(-0.0190657 0.163565 -0.0730621)
(-0.0555064 0.172778 -0.0701497)
(-0.0794803 0.13839 -0.0608872)
(-0.0933088 0.0731547 -0.0465595)
(-0.092573 0.00207941 -0.0297707)
(-0.0846823 -0.120094 0.00876299)
(-0.0802529 -0.153468 0.0340547)
(-0.07439 -0.173524 0.0546349)
(-0.0600965 -0.180114 0.0682527)
(-0.0377954 -0.173922 0.0726464)
(-0.00920986 -0.155374 0.0660231)
(0.0215934 -0.124781 0.0481841)
(0.0477298 -0.0822407 0.0212679)
(0.0604122 -0.0268764 -0.010368)
(0.0525027 0.0398132 -0.0406525)
(0.0250591 0.104519 -0.0631464)
(-0.0105906 0.142262 -0.0736427)
(-0.0415257 0.135116 -0.0719954)
(-0.0624873 0.0872828 -0.0608443)
(-0.0754901 0.0195496 -0.0433818)
(-0.0768276 -0.0443543 -0.0230517)
(-0.120587 -0.199056 0.074485)
(-0.129898 -0.217217 0.100017)
(-0.132316 -0.222416 0.12108)
(-0.116829 -0.212803 0.131335)
(-0.0851205 -0.19014 0.127269)
(-0.0415579 -0.157555 0.109009)
(0.00566169 -0.1189 0.0809977)
(0.0450745 -0.0765565 0.0506637)
(0.0651987 -0.03007 0.0248637)
(0.0601325 0.0183715 0.00738913)
(0.0354752 0.0569938 -0.00141049)
(0.00476463 0.0705228 -0.00372417)
(-0.0228076 0.0512 -0.00192105)
(-0.0468945 0.00327153 0.0039957)
(-0.0710745 -0.0586277 0.0155926)
(-0.0862784 -0.113736 0.0314958)
(-0.0972514 -0.188941 0.0569703)
(-0.113302 -0.199915 0.0809119)
(-0.119882 -0.200003 0.10129)
(-0.109342 -0.189481 0.11401)
(-0.0831389 -0.169726 0.116224)
(-0.0445951 -0.142663 0.107262)
(-5.48018e-05 -0.110493 0.0893038)
(0.0414696 -0.0742038 0.0666745)
(0.070665 -0.0325427 0.0434635)
(0.0805008 0.0128761 0.0222556)
(0.0694024 0.0488357 0.00517043)
(0.0445508 0.0565389 -0.00571179)
(0.0160201 0.0292746 -0.00954839)
(-0.0123648 -0.0226293 -0.00595694)
(-0.0414711 -0.0802531 0.00512008)
(-0.0625918 -0.12581 0.0213473)
(-0.08835 -0.183436 0.03806)
(-0.107878 -0.190983 0.0620663)
(-0.115505 -0.188618 0.0838648)
(-0.105204 -0.177178 0.0999586)
(-0.0789931 -0.158061 0.107535)
(-0.0404019 -0.133042 0.1054)
(0.00480694 -0.104035 0.0945188)
(0.0490467 -0.071907 0.0775564)
(0.0848237 -0.0353857 0.0570837)
(0.105967 0.00537571 0.0346905)
(0.107435 0.0391605 0.0122142)
(0.0893864 0.0455557 -0.00623938)
(0.0591162 0.0164285 -0.016669)
(0.0227328 -0.0356353 -0.0172326)
(-0.0167149 -0.0899862 -0.00830795)
(-0.0486143 -0.131055 0.00738365)
(-0.0841361 -0.158428 0.0168955)
(-0.105329 -0.16281 0.0390274)
(-0.112306 -0.158842 0.06061)
(-0.100332 -0.147659 0.0786352)
(-0.0722175 -0.130677 0.0902968)
(-0.0319276 -0.109512 0.0939075)
(0.0150118 -0.0857574 0.0894067)
(0.0618902 -0.0600706 0.0781557)
(0.102336 -0.0310695 0.0617611)
(0.131265 0.0029481 0.0412062)
(0.142871 0.0347404 0.0173856)
(0.131676 0.0436398 -0.00579344)
(0.0998421 0.017381 -0.0218593)
(0.0545303 -0.0316377 -0.0268378)
(0.00353707 -0.0812895 -0.0210599)
(-0.0391293 -0.117229 -0.00760489)
(-0.0821887 -0.12092 -0.00513062)
(-0.103735 -0.123379 0.0125463)
(-0.10903 -0.11877 0.0313428)
(-0.0944529 -0.108507 0.0489559)
(-0.0636875 -0.0941051 0.0627557)
(-0.021166 -0.0771118 0.070683)
(0.0277241 -0.0588541 0.0718184)
(0.076872 -0.0397712 0.0663735)
(0.120543 -0.0184911 0.055204)
(0.15426 0.00800619 0.0390129)
(0.172672 0.0369705 0.0178422)
(0.167224 0.0500295 -0.00589864)
(0.13427 0.0302572 -0.0249631)
(0.0806005 -0.013004 -0.0333901)
(0.0188678 -0.0573473 -0.0312007)
(-0.0328767 -0.0889868 -0.021616)
(-0.0823395 -0.0761619 -0.0261907)
(-0.103002 -0.0782383 -0.0151958)
(-0.105846 -0.0740908 -0.00164825)
(-0.0880884 -0.0653812 0.0130888)
(-0.0543031 -0.0537765 0.0267959)
(-0.00935634 -0.0408087 0.0372578)
(0.0414621 -0.0275827 0.0429047)
(0.0924776 -0.0143446 0.0430645)
(0.138316 0.000199767 0.0379068)
(0.174587 0.0197249 0.0278941)
(0.196445 0.0453521 0.0125524)
(0.194372 0.0627974 -0.00755709)
(0.160097 0.0518372 -0.0261696)
(0.0991458 0.0164712 -0.0364413)
(0.0283759 -0.0224445 -0.0377749)
(-0.0300509 -0.0511169 -0.0330842)
(-0.0851464 -0.0290753 -0.0443216)
(-0.103659 -0.0325461 -0.0412401)
(-0.103388 -0.0301877 -0.0346425)
(-0.0819942 -0.0238476 -0.0247774)
(-0.044914 -0.0153435 -0.0132202)
(0.00258171 -0.0062102 -0.00208226)
(0.0552569 0.0026279 0.00670487)
(0.107746 0.0111014 0.0118875)
(0.154872 0.0204487 0.0130785)
(0.191994 0.0346206 0.0103782)
(0.214244 0.0575918 0.00284625)
(0.212317 0.0795473 -0.0105406)
(0.175646 0.0786982 -0.0256736)
(0.108538 0.0525616 -0.0360594)
(0.031036 0.0187425 -0.040424)
(-0.0311984 -0.00856691 -0.0408823)
(-0.0914877 0.0148762 -0.0574345)
(-0.106385 0.00794858 -0.0619609)
(-0.102327 0.00695835 -0.0627241)
(-0.076817 0.00994959 -0.0587894)
(-0.0361636 0.0149554 -0.0508893)
(0.0139442 0.0204304 -0.0407718)
(0.0682703 0.0256274 -0.0304261)
(0.121638 0.0306305 -0.0213322)
(0.168964 0.0366713 -0.0141729)
(0.205201 0.0479309 -0.00926636)
(0.225026 0.0703393 -0.00824081)
(0.219749 0.0976343 -0.0135601)
(0.179053 0.107479 -0.0234988)
(0.107111 0.0909113 -0.0327069)
(0.0256825 0.0612809 -0.039289)
(-0.0371899 0.0332126 -0.0442163)
(-0.102372 0.0499624 -0.0631954)
(-0.111838 0.0373372 -0.0732493)
(-0.103336 0.0314685 -0.0802257)
(-0.0733163 0.0303222 -0.0821783)
(-0.0289455 0.0317192 -0.0788731)
(0.0236558 0.034031 -0.0714087)
(0.0791719 0.0366094 -0.0614331)
(0.132482 0.0396426 -0.0502351)
(0.178497 0.0444723 -0.0384282)
(0.211731 0.0557278 -0.0266914)
(0.226168 0.0805859 -0.0176445)
(0.214202 0.11471 -0.0152642)
(0.168127 0.135126 -0.0198192)
(0.093191 0.127231 -0.0271833)
(0.0110717 0.100111 -0.0349308)
(-0.0490205 0.0687777 -0.0425672)
(-0.118193 0.070466 -0.0591684)
(-0.120193 0.0501527 -0.0712899)
(-0.106973 0.0384344 -0.0820243)
(-0.0725647 0.033162 -0.0889043)
(-0.0247806 0.0317399 -0.0907522)
(0.0298313 0.0322066 -0.0876779)
(0.0857566 0.0337675 -0.0804878)
(0.137759 0.0366088 -0.0697272)
(0.180554 0.0424024 -0.0555172)
(0.208142 0.0566083 -0.0388591)
(0.214191 0.0870061 -0.0236221)
(0.193027 0.12922 -0.0152419)
(0.141198 0.158936 -0.015262)
(0.0659026 0.157351 -0.0204495)
(-0.0131696 0.13024 -0.0279038)
(-0.0669394 0.0931575 -0.0358536)
(-0.136342 0.0712293 -0.0438478)
(-0.129651 0.0424571 -0.0545384)
(-0.112549 0.0251911 -0.0660956)
(-0.0751898 0.0170589 -0.0763079)
(-0.0253517 0.0147789 -0.0834357)
(0.0302018 0.0156902 -0.086419)
(0.0855619 0.0185132 -0.0846363)
(0.13498 0.0233048 -0.0772267)
(0.172555 0.0323151 -0.0634326)
(0.191703 0.0521274 -0.0446278)
(0.18668 0.0902623 -0.0260028)
(0.155197 0.140283 -0.0139507)
(0.0989912 0.176276 -0.0105972)
(0.0270658 0.1772 -0.0132255)
(-0.0446306 0.146883 -0.0185663)
(-0.0885751 0.102401 -0.0245573)
(-0.149661 0.0493688 -0.0190596)
(-0.135789 0.0139044 -0.0261461)
(-0.117246 -0.00689566 -0.0359839)
(-0.080086 -0.0155874 -0.0474891)
(-0.0309643 -0.0161266 -0.0590848)
(0.0236661 -0.0120176 -0.0688322)
(0.0773254 -0.00531755 -0.0743734)
(0.123118 0.00377498 -0.0728886)
(0.153852 0.0182519 -0.0623971)
(0.162397 0.045605 -0.0445379)
(0.144948 0.0917382 -0.0254967)
(0.104156 0.146806 -0.011962)
(0.0470372 0.183937 -0.00603389)
(-0.0168432 0.182391 -0.00547394)
(-0.0764226 0.145959 -0.00746876)
(-0.107737 0.094109 -0.0101598)
(-0.15085 0.00736079 0.0090592)
(-0.134652 -0.0303908 0.00647237)
(-0.118101 -0.0515918 0.000149461)
(-0.0850415 -0.0584725 -0.0104104)
(-0.0400641 -0.0551724 -0.0245013)
(0.0113172 -0.0457152 -0.0400004)
(0.0620991 -0.0329383 -0.0530808)
(0.103725 -0.01741 -0.0588847)
(0.127136 0.00445566 -0.0540173)
(0.124844 0.0400845 -0.039972)
(0.0961866 0.0921219 -0.0230774)
(0.0495209 0.146962 -0.00963844)
(-0.00381391 0.178551 -0.00171194)
(-0.0551286 0.169342 0.0021981)
(-0.0991223 0.125177 0.00419234)
(-0.11745 0.0679996 0.0049481)
(-0.139896 -0.0471114 0.0334979)
(-0.126937 -0.0822432 0.0359357)
(-0.115116 -0.10089 0.0342696)
(-0.0887654 -0.104321 0.0266248)
(-0.0503005 -0.0961984 0.0125388)
(-0.00391646 -0.0804488 -0.00627213)
(0.0432262 -0.0604244 -0.0252527)
(0.0810326 -0.0370627 -0.0381397)
(0.0986342 -0.00678932 -0.0402693)
(0.0884466 0.0362518 -0.0323782)
(0.0529461 0.0901614 -0.0198424)
(0.00523186 0.138371 -0.00801295)
(-0.0407445 0.158051 0.00101501)
(-0.0781663 0.137465 0.00785062)
(-0.106993 0.0856782 0.0137185)
(-0.115122 0.0263697 0.0179107)
(-0.124399 -0.10498 0.0502418)
(-0.117439 -0.134657 0.0584454)
(-0.110842 -0.149036 0.0624835)
(-0.0911134 -0.148279 0.0593101)
(-0.0591471 -0.135171 0.047532)
(-0.017959 -0.113144 0.0281734)
(0.0256506 -0.0857186 0.00572039)
(0.0609704 -0.0543275 -0.0129641)
(0.0762146 -0.0162372 -0.0225104)
(0.0639562 0.0317174 -0.022494)
(0.0281353 0.083091 -0.0164969)
(-0.016406 0.119896 -0.00830351)
(-0.0550531 0.124194 0.000277462)
(-0.0824558 0.0913588 0.00904892)
(-0.101552 0.0338269 0.0182625)
(-0.104831 -0.0249897 0.0261647)
(-0.109639 -0.135582 0.0562514)
(-0.106446 -0.155505 0.0700682)
(-0.102781 -0.164205 0.0801976)
(-0.087721 -0.161001 0.0829151)
(-0.0613221 -0.147276 0.075997)
(-0.0253917 -0.125025 0.0595079)
(0.0144951 -0.0967789 0.0370713)
(0.0484105 -0.0637667 0.0150254)
(0.0649332 -0.0236476 -0.000998396)
(0.056701 0.0252708 -0.00909695)
(0.0267407 0.0730071 -0.0105559)
(-0.0118595 0.0985255 -0.00756989)
(-0.0459942 0.0872538 -0.00169757)
(-0.0708609 0.043575 0.00655079)
(-0.0887669 -0.0145346 0.0171204)
(-0.0932542 -0.0660979 0.0279215)
(-0.143251 -0.185386 0.115035)
(-0.148414 -0.179197 0.118464)
(-0.148639 -0.162135 0.117078)
(-0.13037 -0.135033 0.105551)
(-0.0963522 -0.102646 0.0837065)
(-0.0517276 -0.070719 0.055856)
(-0.00525194 -0.0440977 0.0300133)
(0.0320903 -0.0234017 0.0144781)
(0.0509477 -0.00410267 0.0128305)
(0.0473363 0.0173149 0.0214354)
(0.0257249 0.0346661 0.0331774)
(-0.00323151 0.0350679 0.0433486)
(-0.0315662 0.0107994 0.0515469)
(-0.0583679 -0.0336529 0.059864)
(-0.0862009 -0.0839294 0.0700285)
(-0.102508 -0.121006 0.0789746)
(-0.117587 -0.168647 0.0791772)
(-0.130988 -0.159603 0.0832234)
(-0.136618 -0.140869 0.0843509)
(-0.124683 -0.114621 0.0792176)
(-0.0970986 -0.0845473 0.0671098)
(-0.0576373 -0.0551347 0.0501733)
(-0.0133292 -0.0305139 0.033499)
(0.0264528 -0.0116745 0.022757)
(0.053323 0.00486872 0.0205196)
(0.0621698 0.0218672 0.0242438)
(0.0525367 0.0327642 0.0290594)
(0.0302128 0.0247172 0.0327103)
(0.00286917 -0.00705761 0.0362758)
(-0.0263521 -0.0532503 0.0415828)
(-0.0574449 -0.0975452 0.0490335)
(-0.0787337 -0.125045 0.056101)
(-0.102538 -0.155732 0.0465218)
(-0.119623 -0.143876 0.0506152)
(-0.126926 -0.122844 0.0534541)
(-0.117001 -0.0956935 0.0526854)
(-0.091718 -0.0660756 0.0473311)
(-0.0544046 -0.0380821 0.0384566)
(-0.0109146 -0.0154251 0.0291423)
(0.0310008 0.000828663 0.0228895)
(0.0642442 0.0135817 0.0211995)
(0.0836536 0.0258415 0.0222676)
(0.0854067 0.0323506 0.0226409)
(0.0696518 0.0204232 0.0213281)
(0.0416325 -0.0142902 0.0206336)
(0.00637356 -0.0605654 0.0226459)
(-0.0323704 -0.10136 0.0272477)
(-0.0621335 -0.124387 0.0324828)
(-0.0908754 -0.125921 0.0148398)
(-0.109742 -0.111973 0.0166283)
(-0.11687 -0.0899787 0.0191732)
(-0.106792 -0.0634904 0.0208963)
(-0.0816881 -0.0361128 0.0205805)
(-0.0448079 -0.0116058 0.0183005)
(-0.00123373 0.00683457 0.0154351)
(0.0425083 0.0183407 0.0137171)
(0.0803082 0.0256526 0.0138374)
(0.107457 0.0326458 0.0147845)
(0.118706 0.0364531 0.0140728)
(0.109095 0.0246954 0.0109133)
(0.0798733 -0.00867507 0.00789799)
(0.0373917 -0.0521905 0.00719848)
(-0.0102146 -0.0883824 0.00838442)
(-0.0484914 -0.106813 0.0101281)
(-0.0813798 -0.0864188 -0.014097)
(-0.100935 -0.0714723 -0.0172554)
(-0.106805 -0.0495396 -0.0174503)
(-0.0952641 -0.0246143 -0.0154599)
(-0.0690148 -0.000350577 -0.012664)
(-0.03141 0.019754 -0.00990376)
(0.0129499 0.0330557 -0.00725454)
(0.0583991 0.0390788 -0.00442875)
(0.0994743 0.040571 -0.00129001)
(0.13174 0.0423154 0.00180006)
(0.149684 0.044374 0.00332451)
(0.145098 0.0356932 0.00205993)
(0.114602 0.00740722 -0.000439536)
(0.0649051 -0.0310119 -0.00264599)
(0.00860284 -0.0623382 -0.00524967)
(-0.0371764 -0.077097 -0.00862882)
(-0.0745404 -0.0425194 -0.0379726)
(-0.0938317 -0.0279823 -0.0481329)
(-0.0976637 -0.00735343 -0.0532288)
(-0.0837243 0.0150479 -0.0531803)
(-0.055336 0.0354889 -0.0493757)
(-0.0160635 0.0507264 -0.0433688)
(0.0297709 0.0586744 -0.0363475)
(0.0770411 0.0593482 -0.0290589)
(0.120589 0.0555658 -0.0218332)
(0.155887 0.0527729 -0.0146672)
(0.177459 0.0539845 -0.0082979)
(0.175746 0.050528 -0.00448107)
(0.143515 0.0304795 -0.00372139)
(0.0870308 -0.000823692 -0.00609875)
(0.0229101 -0.0273871 -0.0124266)
(-0.0288951 -0.0398561 -0.0218828)
(-0.0711399 0.0012788 -0.0546545)
(-0.0891096 0.0136914 -0.0727451)
(-0.0901288 0.0314729 -0.0841314)
(-0.0729407 0.0501362 -0.0877904)
(-0.0415679 0.0659192 -0.0848893)
(0.000135274 0.0758835 -0.0774009)
(0.0479535 0.0785395 -0.0672359)
(0.0970389 0.0744257 -0.0557874)
(0.142292 0.0665219 -0.0437234)
(0.178804 0.0607496 -0.03103)
(0.200989 0.0626225 -0.0181555)
(0.199191 0.0662503 -0.00742273)
(0.16414 0.0569368 -0.00174215)
(0.101586 0.0343546 -0.00329281)
(0.0311325 0.0121778 -0.0128405)
(-0.0247007 0.00033984 -0.0282705)
(-0.0721495 0.0401672 -0.0621603)
(-0.0872888 0.0484827 -0.0875479)
(-0.084486 0.0617578 -0.105479)
(-0.0630945 0.0754397 -0.113921)
(-0.0279955 0.0857858 -0.113496)
(0.0165551 0.0902283 -0.106223)
(0.06633 0.0879155 -0.0943338)
(0.116612 0.079939 -0.0794832)
(0.162274 0.0695274 -0.0624736)
(0.197935 0.0630436 -0.0434905)
(0.217642 0.0678831 -0.0233871)
(0.212433 0.0803931 -0.00545093)
(0.173259 0.083437 0.00527)
(0.105832 0.0703376 0.00492894)
(0.0312856 0.0516699 -0.00694234)
(-0.0259552 0.0384983 -0.0270088)
(-0.0789663 0.0690054 -0.0584696)
(-0.0891898 0.0712606 -0.0888362)
(-0.0814224 0.0787157 -0.112348)
(-0.0548873 0.0867623 -0.126032)
(-0.0155324 0.0915844 -0.129539)
(0.031829 0.0909159 -0.124403)
(0.0828883 0.0844947 -0.112717)
(0.133019 0.0739436 -0.0959576)
(0.177082 0.0628612 -0.0747465)
(0.209293 0.0582015 -0.0496081)
(0.223316 0.0686052 -0.0225637)
(0.211484 0.0914363 0.001604)
(0.167138 0.107083 0.0163268)
(0.096743 0.102899 0.0171068)
(0.0212132 0.0862249 0.00423623)
(-0.0342347 0.0692961 -0.0178485)
(-0.092969 0.0826636 -0.0418484)
(-0.0959438 0.0774175 -0.0736246)
(-0.0825637 0.078682 -0.100714)
(-0.0504807 0.0817267 -0.119636)
(-0.00676227 0.082333 -0.12871)
(0.0430306 0.0781736 -0.128235)
(0.0943805 0.0693293 -0.119421)
(0.142686 0.0578728 -0.102979)
(0.182776 0.0479772 -0.0790664)
(0.208553 0.0474842 -0.0487769)
(0.21369 0.065578 -0.016004)
(0.192712 0.098968 0.0125261)
(0.142987 0.125482 0.0296417)
(0.0723689 0.127859 0.0314485)
(-0.000483873 0.110912 0.0193388)
(-0.0506894 0.0877158 -0.00148637)
(-0.11312 0.0768719 -0.0120878)
(-0.107294 0.0640373 -0.0418805)
(-0.0890548 0.0601609 -0.070066)
(-0.0524138 0.0603303 -0.0936433)
(-0.00509583 0.0595356 -0.109704)
(0.0465023 0.0547945 -0.116617)
(0.0973152 0.046069 -0.113727)
(0.142424 0.0357559 -0.10023)
(0.176395 0.0288716 -0.0756127)
(0.192928 0.0343676 -0.0419626)
(0.186551 0.0610323 -0.00554149)
(0.155255 0.103199 0.0251174)
(0.101361 0.13655 0.0432287)
(0.0340904 0.141438 0.046386)
(-0.0320679 0.121011 0.0370413)
(-0.073659 0.0901261 0.0202776)
(-0.133252 0.0498464 0.0266338)
(-0.119723 0.0316183 0.000815432)
(-0.0993041 0.0251521 -0.0261006)
(-0.0610386 0.0254896 -0.0527879)
(-0.0122575 0.0268074 -0.0759273)
(0.0400613 0.0250406 -0.091866)
(0.0898005 0.0194602 -0.0972471)
(0.131017 0.0125822 -0.088981)
(0.157545 0.0104485 -0.0657693)
(0.163103 0.0229209 -0.0310774)
(0.144249 0.0571073 0.00641974)
(0.103727 0.103875 0.0372102)
(0.0488249 0.137909 0.0556011)
(-0.0112114 0.140016 0.0607708)
(-0.066712 0.113464 0.0556177)
(-0.0968549 0.0754081 0.0439968)
(-0.144847 0.00479038 0.064888)
(-0.128223 -0.0145265 0.0439463)
(-0.109564 -0.0202838 0.020333)
(-0.073823 -0.0169275 -0.00693431)
(-0.0268063 -0.0106008 -0.0351711)
(0.0245663 -0.00634306 -0.0594188)
(0.0728276 -0.00600925 -0.0734886)
(0.110248 -0.00729852 -0.0715934)
(0.129432 -0.00331441 -0.0515973)
(0.124455 0.0159038 -0.0183512)
(0.0949975 0.0544383 0.0177263)
(0.0489406 0.0997053 0.0470954)
(-0.00264665 0.127336 0.0653857)
(-0.0516479 0.121526 0.0728445)
(-0.0939003 0.0877958 0.0721893)
(-0.112423 0.0451403 0.0651636)
(-0.144554 -0.0500949 0.0928291)
(-0.130728 -0.0660216 0.077533)
(-0.117158 -0.0682544 0.05883)
(-0.0873489 -0.0600871 0.0337737)
(-0.045037 -0.04725 0.00384541)
(0.00365364 -0.0352621 -0.0257197)
(0.0501568 -0.027199 -0.0466753)
(0.0847279 -0.0214068 -0.0508498)
(0.0985985 -0.0108119 -0.035374)
(0.0864701 0.0134544 -0.00594352)
(0.0512066 0.0516807 0.0264099)
(0.00473651 0.0889468 0.0529354)
(-0.0400258 0.104208 0.0704835)
(-0.0769735 0.0873124 0.0797219)
(-0.106671 0.0468129 0.0828414)
(-0.11632 0.00306344 0.0795764)
(-0.13676 -0.105194 0.106349)
(-0.129002 -0.114993 0.0975605)
(-0.121539 -0.111942 0.0849093)
(-0.0987166 -0.0981283 0.0642432)
(-0.0624119 -0.0784976 0.035914)
(-0.0174688 -0.0585659 0.00477292)
(0.0272589 -0.0423674 -0.0200626)
(0.060601 -0.0293114 -0.0290699)
(0.0727866 -0.0130086 -0.0189278)
(0.0590973 0.0134099 0.00466074)
(0.0241691 0.0467864 0.0312828)
(-0.0185389 0.0715693 0.0534248)
(-0.0560854 0.0715768 0.0689369)
(-0.0840909 0.0431443 0.0786821)
(-0.10568 -0.00236307 0.084416)
(-0.111188 -0.0447714 0.0846742)
(-0.12448 -0.132578 0.104443)
(-0.121249 -0.135447 0.102879)
(-0.118633 -0.128627 0.097478)
(-0.102539 -0.112421 0.0833663)
(-0.0730833 -0.090078 0.0597642)
(-0.0331228 -0.0662587 0.0306347)
(0.00941423 -0.045634 0.0050649)
(0.0429133 -0.0288401 -0.00733673)
(0.0571135 -0.0104667 -0.00282293)
(0.0474517 0.0148795 0.0138992)
(0.0181731 0.0415338 0.033976)
(-0.0187398 0.0533347 0.0506575)
(-0.0517019 0.0387826 0.0621085)
(-0.0767156 0.00173582 0.0698761)
(-0.0963463 -0.0432852 0.0761452)
(-0.102172 -0.0791981 0.0793989)
(-0.140838 -0.14701 0.14406)
(-0.139592 -0.120589 0.125516)
(-0.136141 -0.0860684 0.102745)
(-0.117123 -0.0482498 0.0713095)
(-0.0857847 -0.0138125 0.0339524)
(-0.0478939 0.0106605 -0.00131564)
(-0.0122497 0.0214225 -0.0238111)
(0.0127191 0.0207561 -0.0257216)
(0.0226166 0.0157454 -0.00680898)
(0.0175995 0.0124443 0.0245667)
(0.0012668 0.00893617 0.0565984)
(-0.0207471 -0.0034309 0.0815399)
(-0.0438237 -0.0303383 0.0985796)
(-0.0670639 -0.0669775 0.110255)
(-0.0917378 -0.100592 0.118369)
(-0.104888 -0.116536 0.119969)
(-0.116089 -0.130037 0.0936779)
(-0.124547 -0.103369 0.0799659)
(-0.128 -0.0682376 0.06391)
(-0.116417 -0.0299304 0.0424128)
(-0.0920541 0.00543913 0.0167404)
(-0.0593022 0.031329 -0.00773802)
(-0.0252655 0.0433523 -0.0231802)
(0.00247658 0.0424575 -0.0234752)
(0.0194411 0.0345678 -0.00825829)
(0.0245274 0.0251594 0.0162464)
(0.0185202 0.012837 0.0410318)
(0.00399269 -0.00899456 0.0602052)
(-0.0156701 -0.0423469 0.0730637)
(-0.0388389 -0.0792593 0.0810926)
(-0.0649174 -0.107053 0.0851779)
(-0.0821601 -0.115257 0.0842568)
(-0.0968009 -0.113696 0.0487339)
(-0.110103 -0.0845296 0.0364901)
(-0.116831 -0.0471357 0.0236338)
(-0.10952 -0.00756055 0.00835744)
(-0.0896707 0.0280977 -0.00871955)
(-0.0605682 0.0537846 -0.0240092)
(-0.0277807 0.0652097 -0.032272)
(0.00240194 0.0628002 -0.0297204)
(0.0255861 0.0516505 -0.0164901)
(0.0396697 0.0371834 0.00305619)
(0.0429969 0.0190161 0.0226162)
(0.0346355 -0.00812229 0.0377761)
(0.0160302 -0.0448018 0.0477968)
(-0.0101784 -0.0817405 0.0531761)
(-0.0405575 -0.106259 0.0539803)
(-0.0635771 -0.110351 0.0503764)
(-0.0805928 -0.0845493 0.00841332)
(-0.0965669 -0.053849 -0.00560491)
(-0.104442 -0.0157573 -0.0179348)
(-0.0989443 0.0233873 -0.0293453)
(-0.0812957 0.057502 -0.0397509)
(-0.0540647 0.0807439 -0.047231)
(-0.0216035 0.0892124 -0.0489688)
(0.0108518 0.0833192 -0.0432325)
(0.0391172 0.067993 -0.0305207)
(0.0603794 0.049177 -0.0134588)
(0.0712435 0.0279285 0.00392249)
(0.0676511 -0.000309644 0.0181488)
(0.0486261 -0.0363153 0.027675)
(0.0177834 -0.0706983 0.0314139)
(-0.0182885 -0.0911749 0.0285772)
(-0.0473091 -0.09151 0.0204831)
(-0.0674674 -0.0488344 -0.0250751)
(-0.0849408 -0.0175916 -0.0439248)
(-0.0926082 0.0199978 -0.0583213)
(-0.0870353 0.0573868 -0.0681713)
(-0.0695239 0.0884599 -0.0739297)
(-0.0422735 0.107659 -0.0752707)
(-0.0088747 0.111672 -0.0714688)
(0.0261771 0.101294 -0.0623324)
(0.0587328 0.0816325 -0.0485512)
(0.0853372 0.0593592 -0.0313839)
(0.101543 0.0373808 -0.0129443)
(0.101031 0.0117859 0.00372953)
(0.0804383 -0.0198161 0.0153839)
(0.043968 -0.0495496 0.018607)
(0.00145885 -0.0658449 0.0117699)
(-0.0333813 -0.06333 -0.00256364)
(-0.0577871 -0.0110282 -0.0494345)
(-0.0758737 0.0193818 -0.0753252)
(-0.0823488 0.0549863 -0.0939577)
(-0.075232 0.0890933 -0.104469)
(-0.0560932 0.115618 -0.107773)
(-0.0270349 0.129464 -0.104882)
(0.00871274 0.1281 -0.0966448)
(0.0469327 0.112955 -0.0838893)
(0.0832412 0.0894365 -0.0674478)
(0.113459 0.0650277 -0.0477106)
(0.132482 0.0445784 -0.0255216)
(0.132896 0.0250537 -0.00375501)
(0.109512 0.00139784 0.0120432)
(0.0668376 -0.0217668 0.0157193)
(0.0176442 -0.0339905 0.00487873)
(-0.0225348 -0.0298461 -0.016596)
(-0.0517853 0.0253177 -0.0628518)
(-0.0693382 0.0531461 -0.09673)
(-0.0734979 0.0849524 -0.120988)
(-0.0634732 0.113984 -0.133954)
(-0.0412731 0.134349 -0.136777)
(-0.00911445 0.14166 -0.131446)
(0.0298147 0.134373 -0.119861)
(0.0712536 0.114694 -0.103482)
(0.110397 0.0884181 -0.083125)
(0.142305 0.0637147 -0.058887)
(0.161444 0.04724 -0.0311405)
(0.160306 0.0368944 -0.00303108)
(0.132936 0.0242833 0.017692)
(0.0840676 0.00936623 0.0223035)
(0.0287857 0.000871548 0.00792787)
(-0.0156013 0.00517817 -0.0203024)
(-0.0498108 0.0563103 -0.0636876)
(-0.0650135 0.0796368 -0.10497)
(-0.065286 0.105892 -0.135335)
(-0.0508848 0.128284 -0.152111)
(-0.0245779 0.141239 -0.156248)
(0.011105 0.141297 -0.150263)
(0.052891 0.128075 -0.136653)
(0.0963943 0.104648 -0.11709)
(0.136456 0.077196 -0.0922843)