/*--------------------------------*- C++ -*----------------------------------*\
| =========                 |                                                 |
| \\      /  F ield         | OpenFOAM: The Open Source CFD Toolbox           |
|  \\    /   O peration     | Version:  3.0.0                                 |
|   \\  /    A nd           | Web:      www.OpenFOAM.org                      |
|    \\/     M anipulation  |                                                 |
\*---------------------------------------------------------------------------*/
FoamFile
{
    version     2.0;
    format      ascii;
    class       volScalarField;
    location    "5.5";
    object      k;
}
// * * * * * * * * * * * * * * * * * * * * * * * * * * * * * * * * * * * * * //

dimensions      [0 2 -2 0 0 0 0];

internalField   nonuniform List<scalar> 
400
(
7.96974e-07
1.39465e-06
3.92775e-06
4.45743e-05
0.000205347
0.000413401
0.000512034
0.000565137
0.000582667
0.000585801
0.000555193
0.000521899
0.000470194
0.000420532
0.000364217
0.000308102
0.000254678
0.000197801
0.000138168
8.2113e-05
2.31086e-06
8.00399e-06
3.25778e-05
0.000114767
0.000227726
0.000282038
0.000300494
0.000306536
0.000308603
0.000316002
0.000327469
0.000350613
0.000375768
0.000399633
0.000424069
0.000441469
0.000449799
0.000451404
0.000411987
0.000384233
5.4541e-06
3.52444e-05
9.71819e-05
0.000169903
0.000237922
0.000277953
0.000303996
0.000336708
0.000385172
0.00042429
0.00046268
0.000488595
0.000510087
0.000539842
0.000570489
0.000604127
0.000619759
0.00062774
0.000657359
0.000777748
2.00035e-05
7.75798e-05
0.000134082
0.00019687
0.000255937
0.000297154
0.000349506
0.000403233
0.000435039
0.000465228
0.000485477
0.000504205
0.000526069
0.000558151
0.000605362
0.000667463
0.000734313
0.000757313
0.000779607
0.00103446
4.64858e-05
0.000102361
0.000158813
0.000219747
0.000277131
0.000317602
0.000360316
0.000381757
0.00038669
0.000378031
0.00037232
0.00037608
0.000408418
0.000458398
0.000544085
0.000655842
0.000783082
0.000873102
0.000906824
0.00123615
7.45285e-05
0.000120399
0.000172398
0.000230346
0.000280797
0.000315058
0.000331591
0.000309133
0.000267433
0.000238658
0.000226196
0.000223719
0.000252366
0.000313985
0.00041777
0.000575869
0.00078872
0.000954601
0.0010166
0.00139031
0.000108315
0.000120855
0.000175161
0.000232677
0.000276903
0.00029346
0.000272273
0.000225306
0.000178001
0.000151825
0.000141151
0.000139965
0.000164893
0.000217591
0.000312762
0.000476904
0.000726933
0.00100055
0.00113165
0.0015254
0.000143421
0.000118893
0.000173085
0.000230849
0.000262406
0.00026033
0.000222571
0.000171188
0.000131135
0.000113036
0.000106905
0.000108841
0.000130822
0.000175787
0.000257572
0.000411559
0.000677477
0.00101786
0.00124184
0.00164166
0.000179731
0.000114946
0.000167891
0.000223692
0.000245256
0.000240063
0.000206856
0.000162418
0.000123922
0.000104552
9.85043e-05
0.000102209
0.000122051
0.000162025
0.000230942
0.000357682
0.000615446
0.00102091
0.00135139
0.00175465
0.000218114
0.000106118
0.000157668
0.000213506
0.000237303
0.000234526
0.00020843
0.0001685
0.000133489
0.00011496
0.000109169
0.000112151
0.000128388
0.000161185
0.000222583
0.000329912
0.000561021
0.00100407
0.00146024
0.00186447
0.000249567
0.000104159
0.00014473
0.000199215
0.000230291
0.000233918
0.000216524
0.000186903
0.000161681
0.000146762
0.000141246
0.000143162
0.000155978
0.000181488
0.000223123
0.000314808
0.00050934
0.000976481
0.00156023
0.00198224
0.00026636
0.000106254
0.00012786
0.000183981
0.000223358
0.000233055
0.000228187
0.000215671
0.000199234
0.00018718
0.000180331
0.000179723
0.00018741
0.000205444
0.00023739
0.000308011
0.000473947
0.000948485
0.00165786
0.0021109
0.000260614
0.000111685
0.00011653
0.000160287
0.000208645
0.000229213
0.000232208
0.000230461
0.000225981
0.000218783
0.000213062
0.000211583
0.00021606
0.000227936
0.000249576
0.000305695
0.000448443
0.000917868
0.00174205
0.0022623
0.00023576
0.000115277
0.000109467
0.000133844
0.000190073
0.000219652
0.000229552
0.000231789
0.00023311
0.000233457
0.000232723
0.000232553
0.000235387
0.000243362
0.000259431
0.000306881
0.000436777
0.000903615
0.00183573
0.0024451
0.000177447
0.000110003
0.000102575
0.000113749
0.00015142
0.000193208
0.000216504
0.000225889
0.000230331
0.000233582
0.000236559
0.000240334
0.000243256
0.00024958
0.000263762
0.000309708
0.000433227
0.000900201
0.00194214
0.0026801
8.74272e-05
9.20749e-05
9.36508e-05
0.000103393
0.000127702
0.000168854
0.00019465
0.00020924
0.00021743
0.000224467
0.000228422
0.000236019
0.00023914
0.000246767
0.00026482
0.000318816
0.000453348
0.000946821
0.00210553
0.00298976
2.0745e-05
5.348e-05
7.03314e-05
8.09927e-05
9.4522e-05
0.000117937
0.000141917
0.000159939
0.000171496
0.000181511
0.000187891
0.000197397
0.000207925
0.000230281
0.000267002
0.000354005
0.000533589
0.00107934
0.00234878
0.0034256
2.30341e-05
4.40226e-05
6.65576e-05
8.3398e-05
9.67243e-05
0.000118296
0.000134326
0.000152344
0.000162374
0.000180253
0.000194019
0.000221863
0.000250761
0.000309375
0.000393292
0.000581472
0.000843723
0.00148824
0.00291556
0.00409708
0.000133554
0.000310756
0.000379121
0.000419313
0.000447143
0.000484807
0.0005239
0.000585584
0.000645353
0.000740795
0.000831585
0.000980725
0.00111016
0.00134243
0.00151814
0.00188461
0.00226798
0.00304133
0.00458186
0.00532813
0.00296766
0.00584507
0.00684022
0.00697813
0.0069376
0.00685281
0.00679568
0.0067761
0.00677975
0.00679325
0.00681754
0.00685942
0.00690382
0.00696374
0.00703936
0.00712195
0.00721906
0.0073508
0.00784279
0.00681048
)
;

boundaryField
{
    movingWall
    {
        type            kqRWallFunction;
        value           nonuniform List<scalar> 
20
(
0.00296766
0.00584507
0.00684022
0.00697813
0.0069376
0.00685281
0.00679568
0.0067761
0.00677975
0.00679325
0.00681754
0.00685942
0.00690382
0.00696374
0.00703936
0.00712195
0.00721906
0.0073508
0.00784279
0.00681048
)
;
    }
    fixedWalls
    {
        type            kqRWallFunction;
        value           nonuniform List<scalar> 
60
(
7.96974e-07
2.31086e-06
5.4541e-06
2.00035e-05
4.64858e-05
7.45285e-05
0.000108315
0.000143421
0.000179731
0.000218114
0.000249567
0.00026636
0.000260614
0.00023576
0.000177447
8.74272e-05
2.0745e-05
2.30341e-05
0.000133554
0.00296766
8.2113e-05
0.000384233
0.000777748
0.00103446
0.00123615
0.00139031
0.0015254
0.00164166
0.00175465
0.00186447
0.00198224
0.0021109
0.0022623
0.0024451
0.0026801
0.00298976
0.0034256
0.00409708
0.00532813
0.00681048
7.96974e-07
1.39465e-06
3.92775e-06
4.45743e-05
0.000205347
0.000413401
0.000512034
0.000565137
0.000582667
0.000585801
0.000555193
0.000521899
0.000470194
0.000420532
0.000364217
0.000308102
0.000254678
0.000197801
0.000138168
8.2113e-05
)
;
    }
    frontAndBack
    {
        type            empty;
    }
}


// ************************************************************************* //
