/*--------------------------------*- C++ -*----------------------------------*\
| =========                 |                                                 |
| \\      /  F ield         | OpenFOAM: The Open Source CFD Toolbox           |
|  \\    /   O peration     | Version:  3.0.0                                 |
|   \\  /    A nd           | Web:      www.OpenFOAM.org                      |
|    \\/     M anipulation  |                                                 |
\*---------------------------------------------------------------------------*/
FoamFile
{
    version     2.0;
    format      ascii;
    class       volScalarField;
    location    "5.5";
    object      nut;
}
// * * * * * * * * * * * * * * * * * * * * * * * * * * * * * * * * * * * * * //

dimensions      [0 2 -1 0 0 0 0];

internalField   nonuniform List<scalar> 
400
(
6.22588e-09
1.08942e-08
3.0674e-08
3.4675e-07
1.57337e-06
3.10778e-06
3.81562e-06
4.19174e-06
4.31515e-06
4.33718e-06
4.12154e-06
3.88571e-06
3.51678e-06
3.15929e-06
2.75012e-06
2.33831e-06
1.94236e-06
1.51655e-06
1.06528e-06
6.3647e-07
1.80496e-08
1.9609e-07
5.0081e-07
1.43192e-06
2.75604e-06
3.81149e-06
4.7975e-06
5.82172e-06
7.084e-06
8.22549e-06
9.331e-06
1.02865e-05
1.09091e-05
1.07061e-05
1.05818e-05
9.68295e-06
8.44912e-06
6.81415e-06
4.5508e-06
2.89604e-06
4.25877e-08
8.06834e-07
1.79118e-06
3.01673e-06
4.89246e-06
7.54989e-06
1.02554e-05
1.36496e-05
1.72525e-05
1.99201e-05
2.2033e-05
2.28707e-05
2.24022e-05
2.18537e-05
2.02254e-05
1.79941e-05
1.45218e-05
1.08037e-05
7.41203e-06
5.66463e-06
1.55976e-07
1.80122e-06
2.99345e-06
4.85326e-06
8.50628e-06
1.32961e-05
1.87888e-05
2.51945e-05
2.9481e-05
3.3288e-05
3.54937e-05
3.69686e-05
3.65085e-05
3.52867e-05
3.28842e-05
2.89771e-05
2.35326e-05
1.62471e-05
9.73438e-06
7.37671e-06
3.6155e-07
2.52106e-06
4.28486e-06
7.36418e-06
1.35555e-05
1.99425e-05
2.698e-05
3.35271e-05
3.76353e-05
4.01615e-05
4.11727e-05
4.20661e-05
4.34194e-05
4.26259e-05
4.18985e-05
3.83426e-05
3.18619e-05
2.24362e-05
1.24939e-05
8.67503e-06
5.78105e-07
3.2398e-06
5.59488e-06
1.00648e-05
1.79584e-05
2.52931e-05
3.22906e-05
3.61096e-05
3.59771e-05
3.61573e-05
3.63055e-05
3.66218e-05
3.97302e-05
4.27187e-05
4.53456e-05
4.50187e-05
4.02376e-05
2.88706e-05
1.54569e-05
9.64147e-06
8.3749e-07
3.56815e-06
6.62086e-06
1.24551e-05
2.13248e-05
2.81071e-05
3.22485e-05
3.25456e-05
3.04001e-05
2.93076e-05
2.88203e-05
2.90651e-05
3.3056e-05
3.81727e-05
4.35879e-05
4.65091e-05
4.4092e-05
3.44021e-05
1.85888e-05
1.0471e-05
1.10526e-06
3.7154e-06
7.4459e-06
1.42595e-05
2.28815e-05
2.8083e-05
2.99114e-05
2.80326e-05
2.54172e-05
2.45874e-05
2.43991e-05
2.51257e-05
2.93553e-05
3.55353e-05
4.27117e-05
4.84385e-05
4.78537e-05
3.87282e-05
2.19299e-05
1.11723e-05
1.38037e-06
3.83541e-06
7.90583e-06
1.50732e-05
2.29489e-05
2.76876e-05
2.96891e-05
2.80397e-05
2.47897e-05
2.33389e-05
2.31273e-05
2.42639e-05
2.83627e-05
3.47495e-05
4.20135e-05
4.76304e-05
4.89666e-05
4.2061e-05
2.49394e-05
1.18434e-05
1.66917e-06
3.5607e-06
7.95405e-06
1.51595e-05
2.28276e-05
2.77368e-05
3.02555e-05
2.90268e-05
2.63618e-05
2.51117e-05
2.52291e-05
2.65291e-05
2.99335e-05
3.5134e-05
4.22249e-05
4.73809e-05
4.93211e-05
4.41629e-05
2.82822e-05
1.2486e-05
1.90433e-06
3.3015e-06
7.51437e-06
1.42627e-05
2.19808e-05
2.74248e-05
3.09671e-05
3.15561e-05
3.09839e-05
3.0775e-05
3.13655e-05
3.27525e-05
3.53234e-05
3.92595e-05
4.28345e-05
4.67728e-05
4.79007e-05
4.50125e-05
3.0975e-05
1.31648e-05
2.02933e-06
2.94598e-06
6.5278e-06
1.30224e-05
2.08008e-05
2.6621e-05
3.14892e-05
3.48323e-05
3.63062e-05
3.72697e-05
3.80534e-05
3.91818e-05
4.05118e-05
4.26374e-05
4.46904e-05
4.61724e-05
4.6074e-05
4.4973e-05
3.38719e-05
1.38947e-05
1.98661e-06
2.53351e-06
5.5961e-06
1.09826e-05
1.84439e-05
2.4776e-05
2.99449e-05
3.45833e-05
3.82828e-05
4.05827e-05
4.19474e-05
4.31102e-05
4.37081e-05
4.44446e-05
4.45076e-05
4.46314e-05
4.40403e-05
4.40194e-05
3.59645e-05
1.47387e-05
1.80128e-06
2.14003e-06
4.61941e-06
8.5836e-06
1.58727e-05
2.23045e-05
2.75873e-05
3.21678e-05
3.63115e-05
3.96504e-05
4.17907e-05
4.31123e-05
4.33357e-05
4.32991e-05
4.25833e-05
4.20009e-05
4.18677e-05
4.32509e-05
3.76081e-05
1.5737e-05
1.36313e-06
1.73332e-06
3.57215e-06
6.41177e-06
1.13801e-05
1.77443e-05
2.33712e-05
2.78985e-05
3.1708e-05
3.49514e-05
3.73616e-05
3.92044e-05
3.94736e-05
3.93087e-05
3.86482e-05
3.84001e-05
3.86545e-05
4.08307e-05
3.75969e-05
1.69891e-05
6.77327e-07
1.33434e-06
2.63453e-06
4.94388e-06
8.43369e-06
1.38331e-05
1.88331e-05
2.30759e-05
2.64619e-05
2.93793e-05
3.13426e-05
3.32669e-05
3.35364e-05
3.36132e-05
3.35816e-05
3.4281e-05
3.57103e-05
3.91736e-05
3.81843e-05
1.85885e-05
1.61746e-07
8.13932e-07
1.75238e-06
3.02124e-06
4.88618e-06
7.77069e-06
1.12794e-05
1.47362e-05
1.76441e-05
2.01335e-05
2.19591e-05
2.34854e-05
2.44886e-05
2.60025e-05
2.74976e-05
3.02943e-05
3.35404e-05
3.7237e-05
3.76419e-05
2.07509e-05
1.79554e-07
8.32925e-07
1.69003e-06
2.797e-06
4.12021e-06
6.11697e-06
8.14651e-06
1.05177e-05
1.24256e-05
1.47547e-05
1.649e-05
1.86927e-05
2.04456e-05
2.33589e-05
2.62505e-05
3.1208e-05
3.41612e-05
3.63281e-05
3.78043e-05
2.39016e-05
1.03016e-06
6.47565e-06
8.75467e-06
1.07237e-05
1.25619e-05
1.47353e-05
1.68297e-05
1.9348e-05
2.12422e-05
2.39331e-05
2.58801e-05
2.84133e-05
3.02031e-05
3.28479e-05
3.45454e-05
3.73458e-05
3.77868e-05
3.66606e-05
3.86109e-05
2.92027e-05
1.84765e-05
3.12762e-05
3.50504e-05
3.55524e-05
3.54047e-05
3.50947e-05
3.48849e-05
3.48129e-05
3.48263e-05
3.4876e-05
3.49654e-05
3.51189e-05
3.52814e-05
3.54996e-05
3.57741e-05
3.60719e-05
3.642e-05
3.68889e-05
3.86065e-05
3.49403e-05
)
;

boundaryField
{
    movingWall
    {
        type            nutkWallFunction;
        Cmu             0.09;
        kappa           0.41;
        E               9.8;
        value           nonuniform List<scalar> 
20
(
0
0
0
0
0
0
0
0
0
0
0
0
0
0
0
1.7569e-08
7.12143e-08
1.43329e-07
4.06244e-07
0
)
;
    }
    fixedWalls
    {
        type            nutkWallFunction;
        Cmu             0.09;
        kappa           0.41;
        E               9.8;
        value           uniform 0;
    }
    frontAndBack
    {
        type            empty;
    }
}


// ************************************************************************* //
