/*--------------------------------*- C++ -*----------------------------------*\
| =========                 |                                                 |
| \\      /  F ield         | OpenFOAM: The Open Source CFD Toolbox           |
|  \\    /   O peration     | Version:  3.0.0                                 |
|   \\  /    A nd           | Web:      www.OpenFOAM.org                      |
|    \\/     M anipulation  |                                                 |
\*---------------------------------------------------------------------------*/
FoamFile
{
    version     2.0;
    format      ascii;
    class       volScalarField;
    location    "5.5";
    object      omega;
}
// * * * * * * * * * * * * * * * * * * * * * * * * * * * * * * * * * * * * * //

dimensions      [0 0 -1 0 0 0 0];

internalField   nonuniform List<scalar> 
400
(
128.01
128.017
128.048
128.549
130.514
133.021
134.194
134.822
135.028
135.065
134.705
134.312
133.7
133.11
132.437
131.763
131.118
130.428
129.7
129.013
128.029
40.818
65.0501
80.1486
82.6277
73.997
62.6355
52.6538
43.5633
38.4174
35.0947
34.0849
34.4455
37.3274
40.0752
45.5924
53.2362
66.2451
90.5308
132.675
128.067
43.6824
54.2559
56.3203
48.6304
36.8155
29.6425
24.6679
22.3256
21.2995
20.9994
21.3634
22.7695
24.7025
28.2066
33.5736
42.6777
58.1042
88.6881
137.299
128.247
43.0708
44.7917
40.5646
30.0881
22.349
18.6018
16.0048
14.7566
13.9759
13.6778
13.6387
14.4095
15.8176
18.4089
23.0341
31.204
46.6122
80.088
140.233
128.574
40.6023
37.0638
29.84
20.4442
15.9258
13.3549
11.3865
10.2747
9.41278
9.04288
8.94021
9.40634
10.754
12.9858
17.1048
24.5774
38.9148
72.5813
142.496
128.919
37.1624
30.8135
22.8862
15.636
12.4563
10.269
8.56096
7.43343
6.60054
6.23035
6.10889
6.35201
7.35006
9.21304
12.7918
19.6015
33.0648
65.7695
144.201
129.333
33.8704
26.4559
18.6812
12.985
10.4408
8.44298
6.92277
5.85525
5.18041
4.89761
4.81557
4.9883
5.70018
7.17543
10.254
16.4867
29.0841
60.878
145.679
129.763
32.0001
23.2457
16.1891
11.468
9.27003
7.44103
6.10672
5.15929
4.59733
4.38154
4.33187
4.4565
4.94683
6.03048
8.49652
14.1573
26.2822
56.6276
146.939
130.205
29.9696
21.2363
14.8403
10.687
8.67041
6.9674
5.79244
4.99892
4.47974
4.25922
4.21242
4.30323
4.66266
5.49686
7.50953
12.5687
24.272
54.1869
148.154
130.672
29.8026
19.8224
14.084
10.3954
8.45539
6.889
5.80498
5.06375
4.57793
4.3271
4.2275
4.28911
4.58771
5.27135
6.96298
11.3749
22.7355
51.631
149.325
131.053
31.5491
19.2604
13.9675
10.4769
8.52942
6.99207
5.92289
5.21822
4.76888
4.50323
4.37103
4.41571
4.62279
5.20897
6.73057
10.6333
21.6936
50.3706
150.571
131.255
36.0674
19.587
14.1281
10.7379
8.75456
7.24652
6.19168
5.48759
5.0223
4.73889
4.58691
4.62607
4.8184
5.31188
6.6709
10.2866
21.0901
48.9451
151.921
131.185
44.0832
20.8235
14.5946
11.3124
9.25139
7.75452
6.66394
5.90295
5.39104
5.07927
4.90795
4.94324
5.12854
5.60749
6.84933
10.1826
20.8514
48.4381
153.494
130.885
53.8669
23.6971
15.593
11.9748
9.84788
8.32094
7.20562
6.41974
5.88788
5.56878
5.39411
5.43172
5.62048
6.09231
7.30653
10.4323
20.8924
48.8121
155.373
130.176
63.464
28.7152
17.7407
13.3056
10.8884
9.26368
8.09682
7.26415
6.68306
6.33161
6.13029
6.1625
6.34922
6.8247
8.0653
11.2077
22.0472
51.657
157.754
129.077
69.0039
35.5474
20.9134
15.1418
12.2065
10.3355
9.06748
8.21671
7.6403
7.2879
7.09472
7.13075
7.34138
7.88586
9.30007
12.6952
24.1699
55.1412
160.839
128.256
65.7057
40.1348
26.8077
19.3448
15.1771
12.5821
10.8535
9.71976
9.01537
8.55639
8.4051
8.49069
8.85612
9.70999
11.6855
15.9089
28.9857
62.398
165.082
128.285
52.8531
39.3824
29.817
23.4756
19.3391
16.4888
14.4846
13.0676
12.2166
11.7659
11.8689
12.2648
13.2444
14.9823
18.6321
24.6983
40.9667
77.1226
171.415
129.644
47.9885
43.305
39.1015
35.595
32.9011
31.1294
30.2659
30.3807
30.9528
32.1323
34.5164
36.7564
40.8682
43.9462
50.4638
60.0203
82.9589
118.668
182.453
160.618
186.885
195.154
196.277
195.951
195.266
194.803
194.644
194.673
194.783
194.98
195.32
195.679
196.164
196.773
197.438
198.217
199.268
203.147
194.917
)
;

boundaryField
{
    movingWall
    {
        Cmu             0.09;
        kappa           0.41;
        E               9.8;
        beta1           0.075;
        type            omegaWallFunction;
        value           nonuniform List<scalar> 
20
(
160.618
186.885
195.154
196.277
195.951
195.266
194.803
194.644
194.673
194.783
194.98
195.32
195.679
196.164
196.773
197.438
198.217
199.268
203.147
194.917
)
;
    }
    fixedWalls
    {
        Cmu             0.09;
        kappa           0.41;
        E               9.8;
        beta1           0.075;
        type            omegaWallFunction;
        value           nonuniform List<scalar> 
60
(
128.01
128.029
128.067
128.247
128.574
128.919
129.333
129.763
130.205
130.672
131.053
131.255
131.185
130.885
130.176
129.077
128.256
128.285
129.644
160.618
129.013
132.675
137.299
140.233
142.496
144.201
145.679
146.939
148.154
149.325
150.571
151.921
153.494
155.373
157.754
160.839
165.082
171.415
182.453
194.917
128.01
128.017
128.048
128.549
130.514
133.021
134.194
134.822
135.028
135.065
134.705
134.312
133.7
133.11
132.437
131.763
131.118
130.428
129.7
129.013
)
;
    }
    frontAndBack
    {
        type            empty;
    }
}


// ************************************************************************* //
