/*--------------------------------*- C++ -*----------------------------------*\
| =========                 |                                                 |
| \\      /  F ield         | OpenFOAM: The Open Source CFD Toolbox           |
|  \\    /   O peration     | Version:  3.0.0                                 |
|   \\  /    A nd           | Web:      www.OpenFOAM.org                      |
|    \\/     M anipulation  |                                                 |
\*---------------------------------------------------------------------------*/
FoamFile
{
    version     2.0;
    format      ascii;
    class       volScalarField;
    location    "5.5";
    object      p;
}
// * * * * * * * * * * * * * * * * * * * * * * * * * * * * * * * * * * * * * //

dimensions      [0 2 -2 0 0 0 0];

internalField   nonuniform List<scalar> 
400
(
2.13266e-07
-7.06344e-05
-0.000127933
-0.000196289
-0.000292383
-0.00115992
-0.00272287
-0.00439035
-0.00580366
-0.00678195
-0.00724325
-0.00710712
-0.00633317
-0.00490136
-0.00278681
-6.09994e-05
0.00306246
0.00597791
0.00785747
0.00830101
1.3723e-05
-5.05452e-05
-9.02452e-05
-0.000339821
-0.0010564
-0.00228279
-0.00383101
-0.00533872
-0.00664825
-0.00754098
-0.00795247
-0.00782668
-0.00715939
-0.00588556
-0.00398735
-0.0014745
0.00147241
0.00442476
0.00662688
0.0077201
0.000181373
6.4296e-06
-0.000391187
-0.0011715
-0.00241208
-0.00395039
-0.00550833
-0.00695658
-0.00814228
-0.00889563
-0.0092009
-0.00904199
-0.00841649
-0.00731769
-0.00573245
-0.00365359
-0.00113694
0.00163384
0.00418359
0.00575212
0.000280208
-0.0001242
-0.00102635
-0.00242332
-0.00410216
-0.00581404
-0.00736229
-0.00863036
-0.00954034
-0.0100978
-0.0102956
-0.0101247
-0.00958319
-0.00867319
-0.00739407
-0.00574147
-0.00370826
-0.0013302
0.00111192
0.00275228
-7.72349e-05
-0.000731244
-0.00206832
-0.00390325
-0.00579845
-0.0075082
-0.00890829
-0.00997418
-0.0107045
-0.0111291
-0.0112508
-0.0110733
-0.0105989
-0.00983942
-0.0088077
-0.00750896
-0.00592348
-0.0040184
-0.00192313
-0.000419233
-0.000998274
-0.00180358
-0.00341329
-0.00539156
-0.00730253
-0.00889618
-0.0101278
-0.0110316
-0.0116382
-0.011974
-0.0120467
-0.0118664
-0.011444
-0.0107991
-0.00995293
-0.00891971
-0.00769033
-0.0062203
-0.00464695
-0.00327552
-0.0023235
-0.00316968
-0.00483238
-0.00674788
-0.00854838
-0.00998453
-0.0110642
-0.0118434
-0.0123571
-0.0126299
-0.0126716
-0.0124941
-0.0121136
-0.0115559
-0.0108467
-0.010006
-0.00904565
-0.00791539
-0.00677952
-0.00562052
-0.00370579
-0.00451036
-0.00608796
-0.00786065
-0.0095103
-0.0107898
-0.0117439
-0.0124262
-0.0128688
-0.013096
-0.0131194
-0.0129503
-0.0126062
-0.0121153
-0.0115068
-0.0108013
-0.0100368
-0.00914992
-0.00834885
-0.00737936
-0.00482813
-0.00557638
-0.00702973
-0.00866531
-0.0101717
-0.0113191
-0.0121783
-0.0127902
-0.0131813
-0.0133761
-0.0133882
-0.0132298
-0.0129168
-0.012476
-0.0119393
-0.01132
-0.0106946
-0.00994224
-0.00939776
-0.00857802
-0.0055653
-0.00623502
-0.00757466
-0.00911394
-0.0105158
-0.0115774
-0.012379
-0.0129482
-0.013309
-0.0134847
-0.0134905
-0.0133406
-0.0130498
-0.0126419
-0.0121496
-0.0115669
-0.0110619
-0.0103246
-0.0100116
-0.00923108
-0.00585267
-0.00647118
-0.00771348
-0.00920201
-0.0105396
-0.0115754
-0.0123579
-0.0129143
-0.0132677
-0.013439
-0.0134439
-0.0132976
-0.0130162
-0.0126199
-0.012142
-0.0115465
-0.0111561
-0.0103107
-0.0102402
-0.00936456
-0.00568232
-0.00629827
-0.0074744
-0.00891615
-0.0102567
-0.0113145
-0.012118
-0.0126942
-0.0130644
-0.0132466
-0.0132566
-0.0131097
-0.0128231
-0.0124153
-0.0119166
-0.0113214
-0.0109024
-0.00997528
-0.0101236
-0.00898676
-0.00516589
-0.00579777
-0.0069321
-0.00829882
-0.00967926
-0.0107924
-0.0116538
-0.0122835
-0.0126965
-0.0129073
-0.0129306
-0.0127808
-0.0124767
-0.0120353
-0.0114922
-0.0108586
-0.0103443
-0.00938144
-0.00962568
-0.00816034
-0.00452008
-0.00511527
-0.0061577
-0.00740621
-0.00878498
-0.00998136
-0.0109454
-0.0116701
-0.0121584
-0.0124199
-0.0124687
-0.0123176
-0.011987
-0.0114935
-0.0108804
-0.0101653
-0.00952555
-0.00853811
-0.00874067
-0.00698371
-0.00398028
-0.0044391
-0.00526349
-0.00631443
-0.00759771
-0.0088777
-0.00998078
-0.0108431
-0.0114441
-0.011784
-0.0118759
-0.0117316
-0.0113716
-0.0108122
-0.0101038
-0.00926627
-0.00847045
-0.00741303
-0.00748638
-0.00549039
-0.00373739
-0.00387954
-0.00428795
-0.00503049
-0.00615594
-0.00749141
-0.00875638
-0.00979844
-0.0105561
-0.0110111
-0.0111726
-0.0110515
-0.010669
-0.0100379
-0.00921324
-0.00821398
-0.00720689
-0.00597249
-0.00581992
-0.00339559
-0.00379528
-0.00348152
-0.0032852
-0.00362476
-0.00455821
-0.00590898
-0.00732683
-0.0085704
-0.00952342
-0.0101351
-0.0104032
-0.0103325
-0.00994753
-0.00925063
-0.0082974
-0.00709174
-0.00577754
-0.00415423
-0.00340949
0.000503003
-0.00321517
-0.00282695
-0.00217886
-0.00215666
-0.00293545
-0.00430615
-0.00585494
-0.00727273
-0.00841232
-0.00919462
-0.00959276
-0.00959825
-0.00923721
-0.00851108
-0.00744596
-0.00599837
-0.00423134
-0.00182199
0.000533456
0.0086146
-0.00396125
-0.00269255
-0.00137297
-0.00102988
-0.00173736
-0.00312795
-0.00476629
-0.00631946
-0.00760065
-0.00851745
-0.00902898
-0.00912885
-0.00881145
-0.00807013
-0.00685707
-0.00508216
-0.00261253
0.00131938
0.00700673
0.0216741
-0.00200847
0.000789324
0.000854714
0.000227585
-0.000857456
-0.00235075
-0.00405201
-0.00569431
-0.00706259
-0.00804263
-0.00859148
-0.00869725
-0.00835204
-0.00753359
-0.00618904
-0.00412975
-0.000539362
0.00577794
0.0162324
0.0339395
)
;

boundaryField
{
    movingWall
    {
        type            zeroGradient;
    }
    fixedWalls
    {
        type            zeroGradient;
    }
    frontAndBack
    {
        type            empty;
    }
}


// ************************************************************************* //
