/*--------------------------------*- C++ -*----------------------------------*\
| =========                 |                                                 |
| \\      /  F ield         | OpenFOAM: The Open Source CFD Toolbox           |
|  \\    /   O peration     | Version:  3.0.0                                 |
|   \\  /    A nd           | Web:      www.OpenFOAM.org                      |
|    \\/     M anipulation  |                                                 |
\*---------------------------------------------------------------------------*/
FoamFile
{
    version     2.0;
    format      ascii;
    class       surfaceScalarField;
    location    "5.5";
    object      phi;
}
// * * * * * * * * * * * * * * * * * * * * * * * * * * * * * * * * * * * * * //

dimensions      [0 3 -1 0 0 0 0];

internalField   nonuniform List<scalar> 
760
(
2.21932e-07
-2.21953e-07
2.05515e-07
1.64158e-08
-1.24067e-07
3.29581e-07
-1.05793e-06
9.33864e-07
-2.58559e-06
1.52766e-06
-4.12674e-06
1.54115e-06
-5.38217e-06
1.25543e-06
-6.39802e-06
1.01586e-06
-7.09778e-06
6.99757e-07
-7.59702e-06
4.99243e-07
-7.84631e-06
2.49285e-07
-7.92574e-06
7.94324e-08
-7.77369e-06
-1.52057e-07
-7.4402e-06
-3.33489e-07
-6.82173e-06
-6.18464e-07
-5.90791e-06
-9.13826e-07
-4.59071e-06
-1.3172e-06
-2.91421e-06
-1.67651e-06
-1.07046e-06
-1.84375e-06
-1.07046e-06
-5.18093e-08
-1.70144e-07
-6.09724e-07
5.7433e-07
-1.88925e-06
1.6091e-06
-3.59372e-06
2.63833e-06
-4.93999e-06
2.87393e-06
-5.91852e-06
2.51968e-06
-6.77291e-06
2.10982e-06
-7.37347e-06
1.61641e-06
-7.86013e-06
1.18642e-06
-8.12993e-06
7.69048e-07
-8.25577e-06
3.75117e-07
-8.16214e-06
-1.41969e-08
-7.9732e-06
-3.40992e-07
-7.59738e-06
-7.09315e-07
-7.05481e-06
-1.16103e-06
-6.25604e-06
-1.7126e-06
-5.1584e-06
-2.41484e-06
-3.64056e-06
-3.19435e-06
-1.78035e-06
-3.70396e-06
-2.85081e-06
-6.18257e-07
4.48114e-07
-1.81485e-06
1.77092e-06
-3.3483e-06
3.14255e-06
-4.53376e-06
3.8238e-06
-5.35858e-06
3.69875e-06
-6.00953e-06
3.17063e-06
-6.47568e-06
2.57597e-06
-6.75531e-06
1.89604e-06
-6.90171e-06
1.33282e-06
-6.91151e-06
7.78852e-07
-6.85738e-06
3.20988e-07
-6.74888e-06
-1.22701e-07
-6.54868e-06
-5.41195e-07
-6.2466e-06
-1.01139e-06
-5.84559e-06
-1.56204e-06
-5.293e-06
-2.26518e-06
-4.53609e-06
-3.17175e-06
-3.45764e-06
-4.2728e-06
-1.95738e-06
-5.20421e-06
-4.80819e-06
-1.03365e-06
1.48176e-06
-2.44501e-06
3.18228e-06
-3.66248e-06
4.36003e-06
-4.45832e-06
4.61964e-06
-4.96674e-06
4.20716e-06
-5.27893e-06
3.48282e-06
-5.41298e-06
2.71002e-06
-5.47083e-06
1.9539e-06
-5.4757e-06
1.33768e-06
-5.45581e-06
7.58965e-07
-5.38523e-06
2.50412e-07
-5.26105e-06
-2.4688e-07
-5.06802e-06
-7.34234e-07
-4.81233e-06
-1.26708e-06
-4.49e-06
-1.88437e-06
-4.09416e-06
-2.66102e-06
-3.58969e-06
-3.67622e-06
-2.85376e-06
-5.00874e-06
-1.67518e-06
-6.38279e-06
-6.48337e-06
-1.20502e-06
2.68678e-06
-2.43249e-06
4.40975e-06
-3.28957e-06
5.21711e-06
-3.83737e-06
5.16744e-06
-4.11746e-06
4.48725e-06
-4.23983e-06
3.60518e-06
-4.28764e-06
2.75783e-06
-4.31852e-06
1.98478e-06
-4.30853e-06
1.32769e-06
-4.26732e-06
7.17758e-07
-4.18107e-06
1.64152e-07
-4.04891e-06
-3.79036e-07
-3.86386e-06
-9.19281e-07
-3.63386e-06
-1.49708e-06
-3.36349e-06
-2.15475e-06
-3.05659e-06
-2.96792e-06
-2.69866e-06
-4.03415e-06
-2.20984e-06
-5.49756e-06
-1.36854e-06
-7.22409e-06
-7.85191e-06
-1.07086e-06
3.75764e-06
-2.03455e-06
5.37344e-06
-2.66161e-06
5.84417e-06
-3.03924e-06
5.54507e-06
-3.20283e-06
4.65085e-06
-3.27487e-06
3.67722e-06
-3.3048e-06
2.78776e-06
-3.31964e-06
1.99962e-06
-3.30523e-06
1.31327e-06
-3.26224e-06
6.74763e-07
-3.17973e-06
8.16441e-08
-3.05722e-06
-5.01542e-07
-2.89364e-06
-1.08286e-06
-2.69621e-06
-1.69452e-06
-2.4736e-06
-2.37735e-06
-2.23634e-06
-3.20518e-06
-1.99206e-06
-4.27843e-06
-1.68114e-06
-5.80847e-06
-1.05641e-06
-7.84882e-06
-8.90832e-06
-8.34336e-07
4.59198e-06
-1.51687e-06
6.05598e-06
-1.97112e-06
6.29842e-06
-2.22724e-06
5.80119e-06
-2.34238e-06
4.76598e-06
-2.3962e-06
3.73104e-06
-2.4207e-06
2.81226e-06
-2.42967e-06
2.0086e-06
-2.41621e-06
1.29982e-06
-2.38209e-06
6.40639e-07
-2.31905e-06
1.86045e-08
-2.22435e-06
-5.96245e-07
-2.09735e-06
-1.20985e-06
-1.94392e-06
-1.84795e-06
-1.77203e-06
-2.54924e-06
-1.59148e-06
-3.38573e-06
-1.41219e-06
-4.45772e-06
-1.1928e-06
-6.02787e-06
-8.46886e-07
-8.19473e-06
-9.7552e-06
-5.35108e-07
5.12709e-06
-9.89108e-07
6.50998e-06
-1.3017e-06
6.61101e-06
-1.47376e-06
5.97325e-06
-1.56121e-06
4.85343e-06
-1.60192e-06
3.77175e-06
-1.62124e-06
2.83158e-06
-1.62656e-06
2.01392e-06
-1.61593e-06
1.28918e-06
-1.593e-06
6.17711e-07
-1.55656e-06
-1.78379e-08
-1.49889e-06
-6.53909e-07
-1.41941e-06
-1.28934e-06
-1.31934e-06
-1.94801e-06
-1.20487e-06
-2.66372e-06
-1.08623e-06
-3.50437e-06
-9.78716e-07
-4.56523e-06
-8.47192e-07
-6.15939e-06
-6.24772e-07
-8.41715e-06
-1.038e-05
-2.63558e-07
5.39065e-06
-5.04339e-07
6.75076e-06
-6.79407e-07
6.78608e-06
-7.81468e-07
6.07531e-06
-8.46579e-07
4.91855e-06
-8.8144e-07
3.80661e-06
-8.99963e-07
2.8501e-06
-9.05206e-07
2.01917e-06
-8.99159e-07
1.28314e-06
-8.8766e-07
6.06211e-07
-8.72111e-07
-3.3386e-08
-8.51503e-07
-6.74517e-07
-8.21175e-07
-1.31967e-06
-7.77468e-07
-1.99172e-06
-7.22717e-07
-2.71847e-06
-6.63222e-07
-3.56387e-06
-6.26773e-07
-4.60168e-06
-5.79675e-07
-6.20649e-06
-4.97367e-07
-8.49946e-06
-1.08773e-05
2.59306e-08
5.36472e-06
-6.36632e-08
6.84035e-06
-1.14369e-07
6.83678e-06
-1.64174e-07
6.12511e-06
-1.92785e-07
4.94716e-06
-2.23173e-07
3.837e-06
-2.41517e-07
2.86844e-06
-2.50573e-07
2.02822e-06
-2.53971e-07
1.28653e-06
-2.5661e-07
6.08851e-07
-2.60535e-07
-2.94608e-08
-2.70051e-07
-6.65001e-07
-2.81079e-07
-1.30864e-06
-2.90053e-07
-1.98275e-06
-2.94377e-07
-2.71414e-06
-3.00225e-07
-3.55802e-06
-3.41676e-07
-4.56023e-06
-3.70936e-07
-6.17723e-06
-3.64711e-07
-8.50568e-06
-1.12421e-05
2.66648e-07
5.09807e-06
3.86724e-07
6.72028e-06
4.63104e-07
6.7604e-06
4.59829e-07
6.12839e-06
4.34554e-07
4.97243e-06
4.05897e-07
3.86566e-06
3.83626e-07
2.89071e-06
3.66699e-07
2.04515e-06
3.51462e-07
1.30177e-06
3.32853e-07
6.27461e-07
3.07878e-07
-4.48546e-09
2.70791e-07
-6.27914e-07
2.2336e-07
-1.26121e-06
1.69577e-07
-1.92896e-06
1.10994e-07
-2.65556e-06
5.9484e-09
-3.45297e-06
-5.64473e-08
-4.49784e-06
-1.97124e-07
-6.03655e-06
-2.95038e-07
-8.40777e-06
-1.15371e-05
5.08745e-07
4.58932e-06
8.05952e-07
6.42307e-06
1.00154e-06
6.56481e-06
1.04963e-06
6.08031e-06
1.03357e-06
4.98849e-06
1.01686e-06
3.88237e-06
1.00098e-06
2.90659e-06
9.83292e-07
2.06284e-06
9.5972e-07
1.32534e-06
9.25963e-07
6.61218e-07
8.79415e-07
4.20631e-08
8.14541e-07
-5.63039e-07
7.3039e-07
-1.17705e-06
6.28404e-07
-1.82698e-06
5.03866e-07
-2.53102e-06
3.62412e-07
-3.31152e-06
1.79736e-07
-4.31516e-06
-5.75391e-08
-5.79928e-06
-1.93725e-07
-8.27158e-06
-1.17308e-05
7.35728e-07
3.85359e-06
1.18064e-06
5.97816e-06
1.49387e-06
6.25158e-06
1.65746e-06
5.91672e-06
1.67516e-06
4.97079e-06
1.67449e-06
3.88303e-06
1.66276e-06
2.91833e-06
1.64174e-06
2.08386e-06
1.60888e-06
1.3582e-06
1.55998e-06
7.10118e-07
1.49056e-06
1.1149e-07
1.39585e-06
-4.68332e-07
1.27216e-06
-1.05337e-06
1.11744e-06
-1.67226e-06
9.29137e-07
-2.34271e-06
7.11302e-07
-3.09368e-06
4.26167e-07
-4.03003e-06
1.23353e-07
-5.49646e-06
-7.91547e-08
-8.06908e-06
-1.181e-05
9.31501e-07
2.92209e-06
1.53261e-06
5.37706e-06
1.91943e-06
5.86476e-06
2.18786e-06
5.64829e-06
2.29184e-06
4.86681e-06
2.33239e-06
3.84249e-06
2.34671e-06
2.90401e-06
2.34093e-06
2.08964e-06
2.31253e-06
1.3866e-06
2.257e-06
7.65649e-07
2.1681e-06
2.00384e-07
2.04183e-06
-3.42059e-07
1.87414e-06
-8.85675e-07
1.66122e-06
-1.45933e-06
1.4e-06
-2.0815e-06
1.0906e-06
-2.78428e-06
7.09017e-07
-3.64845e-06
3.44211e-07
-5.13166e-06
7.03397e-08
-7.7952e-06
-1.17396e-05
1.03452e-06
1.88757e-06
1.7434e-06
4.66817e-06
2.27156e-06
5.3366e-06
2.71134e-06
5.20851e-06
2.9651e-06
4.61304e-06
3.08831e-06
3.71928e-06
3.14347e-06
2.84885e-06
3.15472e-06
2.07839e-06
3.12705e-06
1.41428e-06
3.05972e-06
8.32972e-07
2.9472e-06
3.12905e-07
2.78361e-06
-1.78465e-07
2.56594e-06
-6.68012e-07
2.28691e-06
-1.1803e-06
1.94025e-06
-1.73484e-06
1.52469e-06
-2.36872e-06
1.03784e-06
-3.16159e-06
5.76975e-07
-4.6708e-06
1.92547e-07
-7.41078e-06
-1.15471e-05
9.40056e-07
9.47518e-07
1.74322e-06
3.86501e-06
2.40713e-06
4.67269e-06
3.00944e-06
4.60621e-06
3.46601e-06
4.15647e-06
3.74903e-06
3.43626e-06
3.91049e-06
2.68738e-06
3.98744e-06
2.00145e-06
3.99554e-06
1.40618e-06
3.94145e-06
8.8706e-07
3.82356e-06
4.30799e-07
3.63599e-06
9.10066e-09
3.37169e-06
-4.03705e-07
3.02486e-06
-8.33467e-07
2.58241e-06
-1.29239e-06
2.0482e-06
-1.83451e-06
1.44125e-06
-2.55464e-06
8.56216e-07
-4.08576e-06
3.60063e-07
-6.91462e-06
-1.1187e-05
4.0128e-07
5.46238e-07
1.44676e-06
2.81953e-06
2.3921e-06
3.72735e-06
3.2271e-06
3.77121e-06
3.92492e-06
3.45864e-06
4.42573e-06
2.93546e-06
4.75323e-06
2.35989e-06
4.93972e-06
1.81495e-06
5.01125e-06
1.33465e-06
4.98487e-06
9.13438e-07
4.86543e-06
5.5024e-07
4.65376e-06
2.20776e-07
4.3324e-06
-8.23431e-08
3.91781e-06
-4.18883e-07
3.37624e-06
-7.50815e-07
2.73904e-06
-1.19732e-06
2.01107e-06
-1.82667e-06
1.27175e-06
-3.34644e-06
5.71061e-07
-6.21393e-06
-1.0616e-05
-1.46154e-07
6.92392e-07
6.99605e-07
1.97377e-06
1.75635e-06
2.67061e-06
2.86582e-06
2.66174e-06
3.84935e-06
2.47511e-06
4.62805e-06
2.15676e-06
5.19459e-06
1.79334e-06
5.56949e-06
1.44006e-06
5.77782e-06
1.12631e-06
5.84635e-06
8.44911e-07
5.78489e-06
6.117e-07
5.61875e-06
3.86913e-07
5.33845e-06
1.97961e-07
4.9598e-06
-4.02383e-08
4.43318e-06
-2.24192e-07
3.81731e-06
-5.81456e-07
3.05743e-06
-1.06679e-06
2.18716e-06
-2.47617e-06
1.0615e-06
-5.08827e-06
-9.55446e-06
-1.06389e-06
1.75628e-06
-3.41397e-07
1.25128e-06
1.08042e-06
1.24879e-06
2.49786e-06
1.24431e-06
3.73693e-06
1.23604e-06
4.75308e-06
1.14061e-06
5.55046e-06
9.95959e-07
6.1493e-06
8.41214e-07
6.5761e-06
6.99515e-07
6.84749e-06
5.73518e-07
6.99847e-06
4.60724e-07
7.02881e-06
3.56572e-07
6.96563e-06
2.61137e-07
6.76893e-06
1.56459e-07
6.49358e-06
5.11569e-08
6.08302e-06
-1.70897e-07
5.49767e-06
-4.81439e-07
4.53141e-06
-1.5099e-06
2.57787e-06
-3.13473e-06
-6.97659e-06
1.75628e-06
3.00756e-06
4.25635e-06
5.50066e-06
6.73669e-06
7.8773e-06
8.87326e-06
9.71448e-06
1.0414e-05
1.09875e-05
1.14482e-05
1.18048e-05
1.20659e-05
1.22224e-05
1.22736e-05
1.21027e-05
1.16212e-05
1.01113e-05
6.97659e-06
)
;

boundaryField
{
    movingWall
    {
        type            calculated;
        value           uniform 0;
    }
    fixedWalls
    {
        type            calculated;
        value           uniform 0;
    }
    frontAndBack
    {
        type            empty;
        value           nonuniform 0();
    }
}


// ************************************************************************* //
