/*--------------------------------*- C++ -*----------------------------------*\
| =========                 |                                                 |
| \\      /  F ield         | OpenFOAM: The Open Source CFD Toolbox           |
|  \\    /   O peration     | Version:  3.0.0                                 |
|   \\  /    A nd           | Web:      www.OpenFOAM.org                      |
|    \\/     M anipulation  |                                                 |
\*---------------------------------------------------------------------------*/
FoamFile
{
    version     2.0;
    format      ascii;
    class       volVectorField;
    location    "5.5";
    object      U;
}
// * * * * * * * * * * * * * * * * * * * * * * * * * * * * * * * * * * * * * //

dimensions      [0 1 -1 0 0 0 0];

internalField   nonuniform List<vector> 
400
(
(0.00281298 -0.0029833 0)
(0.00550434 -0.00127011 0)
(0.00301939 0.000148207 0)
(-0.008059 0.00383431 0)
(-0.0305501 0.0127521 0)
(-0.0735106 0.0173933 0)
(-0.0975628 0.01221 0)
(-0.122791 0.0116091 0)
(-0.136615 0.00791442 0)
(-0.149532 0.00657512 0)
(-0.155605 0.00355138 0)
(-0.158789 0.0023907 0)
(-0.158774 -0.00106561 0)
(-0.152728 -0.00273563 0)
(-0.143108 -0.0066275 0)
(-0.126166 -0.00906826 0)
(-0.103373 -0.013187 0)
(-0.0726783 -0.0149976 0)
(-0.0397091 -0.0158788 0)
(-0.00746045 -0.00333949 0)
(0.00164331 -0.00662594 0)
(-0.0040045 0.00185818 0)
(-0.0188388 0.0145123 0)
(-0.0540901 0.036464 0)
(-0.0883084 0.0464016 0)
(-0.112348 0.040377 0)
(-0.129708 0.0346112 0)
(-0.143732 0.0269681 0)
(-0.154215 0.0186362 0)
(-0.161534 0.0122667 0)
(-0.164978 0.00566 0)
(-0.165556 0.000249417 0)
(-0.16241 -0.0060675 0)
(-0.156748 -0.0123844 0)
(-0.146752 -0.02074 0)
(-0.132489 -0.030611 0)
(-0.112444 -0.0429782 0)
(-0.0865445 -0.0549301 0)
(-0.0548096 -0.0580937 0)
(-0.016805 -0.0355842 0)
(-0.00361099 0.000651907 0)
(-0.020499 0.0225796 0)
(-0.0500341 0.0500716 0)
(-0.0820756 0.0659391 0)
(-0.102078 0.0653646 0)
(-0.116415 0.0568409 0)
(-0.126238 0.046373 0)
(-0.134668 0.0341971 0)
(-0.13762 0.0252512 0)
(-0.138808 0.0154846 0)
(-0.138065 0.00723481 0)
(-0.136387 -0.00123561 0)
(-0.133701 -0.0093168 0)
(-0.128395 -0.0184187 0)
(-0.121454 -0.0290318 0)
(-0.111266 -0.0426278 0)
(-0.0977437 -0.0599098 0)
(-0.0786267 -0.0801866 0)
(-0.0534283 -0.0957597 0)
(-0.020581 -0.0822773 0)
(-0.00707579 0.0190265 0)
(-0.0330382 0.0511135 0)
(-0.0645924 0.077237 0)
(-0.0848337 0.0840654 0)
(-0.0970514 0.0785349 0)
(-0.104665 0.0661494 0)
(-0.108309 0.0527857 0)
(-0.10939 0.0388712 0)
(-0.109332 0.0267599 0)
(-0.10983 0.0153882 0)
(-0.108662 0.00576048 0)
(-0.10686 -0.00369828 0)
(-0.10356 -0.0128752 0)
(-0.0991083 -0.0230517 0)
(-0.0933538 -0.0349832 0)
(-0.0862355 -0.0502041 0)
(-0.0769357 -0.0702035 0)
(-0.0635965 -0.0954991 0)
(-0.0445206 -0.119294 0)
(-0.017677 -0.11789 0)
(-0.00951208 0.0417861 0)
(-0.0381101 0.0758748 0)
(-0.0613089 0.0953518 0)
(-0.0744762 0.0974675 0)
(-0.0822048 0.0867622 0)
(-0.0845073 0.0711241 0)
(-0.0855807 0.0551737 0)
(-0.0859354 0.0398722 0)
(-0.0863458 0.0268333 0)
(-0.085984 0.0147794 0)
(-0.0847555 0.00407769 0)
(-0.0825436 -0.00635822 0)
(-0.0792952 -0.0167022 0)
(-0.0750704 -0.0278383 0)
(-0.0701406 -0.040645 0)
(-0.064554 -0.0566992 0)
(-0.058086 -0.0780366 0)
(-0.0484321 -0.107539 0)
(-0.0353656 -0.139482 0)
(-0.0151742 -0.147035 0)
(-0.00804447 0.0633632 0)
(-0.0346913 0.0979502 0)
(-0.050102 0.110175 0)
(-0.0602942 0.106725 0)
(-0.064218 0.0914023 0)
(-0.0647724 0.0731941 0)
(-0.0656778 0.0558097 0)
(-0.0660265 0.0400931 0)
(-0.0663689 0.0265346 0)
(-0.0657904 0.0139386 0)
(-0.0646688 0.0023772 0)
(-0.0624977 -0.00892063 0)
(-0.0595853 -0.0201399 0)
(-0.0558776 -0.032023 0)
(-0.0517269 -0.0453719 0)
(-0.0472354 -0.0616616 0)
(-0.0426643 -0.0828688 0)
(-0.035703 -0.112717 0)
(-0.0292429 -0.152645 0)
(-0.0086199 -0.169751 0)
(-0.00656491 0.0827289 0)
(-0.0271946 0.113043 0)
(-0.036934 0.120307 0)
(-0.0449872 0.112987 0)
(-0.0466537 0.0941937 0)
(-0.0470456 0.0743006 0)
(-0.0480223 0.056188 0)
(-0.0482896 0.0402184 0)
(-0.0485212 0.026196 0)
(-0.0480382 0.0131207 0)
(-0.0472176 0.000841655 0)
(-0.0454902 -0.0112379 0)
(-0.0431987 -0.0232325 0)
(-0.0403326 -0.0357234 0)
(-0.0371134 -0.0495498 0)
(-0.0335623 -0.0662045 0)
(-0.0305572 -0.0877425 0)
(-0.0246207 -0.118994 0)
(-0.0233288 -0.16091 0)
(-0.00653139 -0.187881 0)
(-0.00325133 0.0967367 0)
(-0.0184989 0.125915 0)
(-0.0239889 0.129356 0)
(-0.0304397 0.117797 0)
(-0.0306411 0.0963058 0)
(-0.0312456 0.0751986 0)
(-0.0321289 0.0565817 0)
(-0.0322821 0.0403516 0)
(-0.0324109 0.0259865 0)
(-0.0320856 0.0126216 0)
(-0.0316326 -0.000101412 0)
(-0.0305615 -0.0126755 0)
(-0.0291008 -0.0252512 0)
(-0.0272669 -0.0382391 0)
(-0.0251988 -0.0523701 0)
(-0.0225765 -0.0690811 0)
(-0.0213989 -0.0902252 0)
(-0.0164009 -0.121875 0)
(-0.0190432 -0.166271 0)
(-0.00251114 -0.201874 0)
(-0.000926751 0.105978 0)
(-0.00998554 0.132283 0)
(-0.0122949 0.133594 0)
(-0.0166703 0.120286 0)
(-0.0161617 0.0976661 0)
(-0.0169923 0.0758457 0)
(-0.0177705 0.0569123 0)
(-0.0179019 0.0404377 0)
(-0.0179889 0.0258212 0)
(-0.0178094 0.0123151 0)
(-0.0176402 -0.000569155 0)
(-0.0171891 -0.0133212 0)
(-0.0166147 -0.0262194 0)
(-0.0158388 -0.0396044 0)
(-0.0150475 -0.0540839 0)
(-0.0132442 -0.0709969 0)
(-0.0140753 -0.0919319 0)
(-0.00942837 -0.12411 0)
(-0.0157299 -0.169222 0)
(-0.00113364 -0.213005 0)
(0.00310118 0.108504 0)
(-0.00198602 0.137408 0)
(-0.00131341 0.137699 0)
(-0.00409078 0.122683 0)
(-0.00320793 0.0990681 0)
(-0.00405649 0.0766324 0)
(-0.00462895 0.0572879 0)
(-0.00482258 0.040542 0)
(-0.00499346 0.025742 0)
(-0.00502278 0.0121774 0)
(-0.00512583 -0.000694658 0)
(-0.00520601 -0.0134099 0)
(-0.00540245 -0.0263373 0)
(-0.00556002 -0.0398728 0)
(-0.00604646 -0.0545365 0)
(-0.0049715 -0.0714003 0)
(-0.00814261 -0.0919559 0)
(-0.00369492 -0.12394 0)
(-0.0134425 -0.170029 0)
(0.00167064 -0.221474 0)
(0.00569764 0.106095 0)
(0.00518602 0.136503 0)
(0.00870014 0.136507 0)
(0.00811395 0.122228 0)
(0.00928099 0.0991663 0)
(0.00855901 0.0769166 0)
(0.0079732 0.0575196 0)
(0.00761034 0.0406948 0)
(0.0072661 0.0258496 0)
(0.00695062 0.012322 0)
(0.00650341 -0.000440542 0)
(0.00592447 -0.0129981 0)
(0.00507633 -0.0257941 0)
(0.00412708 -0.0392666 0)
(0.00245791 -0.0539044 0)
(0.00275042 -0.0703774 0)
(-0.0028281 -0.0910602 0)
(0.00169139 -0.12224 0)
(-0.011919 -0.169596 0)
(0.00309877 -0.227917 0)
(0.00784647 0.099414 0)
(0.0119053 0.13439 0)
(0.0184006 0.135314 0)
(0.0194574 0.123659 0)
(0.0210242 0.0999532 0)
(0.020703 0.0777043 0)
(0.0203124 0.058065 0)
(0.019976 0.0410886 0)
(0.0195516 0.0262356 0)
(0.0189965 0.0128248 0)
(0.0181947 0.000269815 0)
(0.0171284 -0.0120106 0)
(0.0156227 -0.0245056 0)
(0.0139011 -0.0377295 0)
(0.0112476 -0.0520876 0)
(0.0101695 -0.0679498 0)
(0.00240047 -0.0883959 0)
(0.00702682 -0.118535 0)
(-0.0109302 -0.167139 0)
(0.00613209 -0.232242 0)
(0.010529 0.0873944 0)
(0.0176934 0.125636 0)
(0.0273792 0.128499 0)
(0.03058 0.120363 0)
(0.033487 0.0992705 0)
(0.0337424 0.0772316 0)
(0.0335175 0.0579835 0)
(0.0331795 0.0413201 0)
(0.0326448 0.0267489 0)
(0.0318576 0.0136443 0)
(0.0306821 0.00144832 0)
(0.029116 -0.0104154 0)
(0.0268824 -0.0224324 0)
(0.0243591 -0.0351631 0)
(0.0204844 -0.048976 0)
(0.0179884 -0.0643807 0)
(0.00817916 -0.0837392 0)
(0.0122772 -0.113321 0)
(-0.00993154 -0.163678 0)
(0.00896197 -0.235052 0)
(0.0123907 0.0701492 0)
(0.0234314 0.117046 0)
(0.0355781 0.123361 0)
(0.0402009 0.117324 0)
(0.0446328 0.0999654 0)
(0.0463188 0.0780494 0)
(0.0468793 0.0586068 0)
(0.0470192 0.0419185 0)
(0.046716 0.0275277 0)
(0.0459285 0.0147733 0)
(0.0444772 0.00306785 0)
(0.042449 -0.00819233 0)
(0.0393937 -0.0195026 0)
(0.0360054 -0.0314687 0)
(0.0306407 -0.0444574 0)
(0.0266857 -0.0590645 0)
(0.0146814 -0.0771645 0)
(0.0177907 -0.106842 0)
(-0.00841396 -0.158833 0)
(0.0134716 -0.236523 0)
(0.0137223 0.049407 0)
(0.0265112 0.100418 0)
(0.041421 0.112058 0)
(0.0496258 0.108616 0)
(0.0561661 0.0952873 0)
(0.060322 0.075793 0)
(0.0623018 0.0575062 0)
(0.0631265 0.0416334 0)
(0.0630379 0.0279914 0)
(0.062183 0.0159957 0)
(0.0603257 0.00511789 0)
(0.0577818 -0.00525363 0)
(0.0537388 -0.0155614 0)
(0.0494363 -0.026439 0)
(0.0422683 -0.03827 0)
(0.0367885 -0.0517486 0)
(0.0221211 -0.06846 0)
(0.0239943 -0.0987961 0)
(-0.00655259 -0.153508 0)
(0.0180953 -0.237507 0)
(0.0110777 0.0263489 0)
(0.0278396 0.0874974 0)
(0.0430686 0.102665 0)
(0.0541586 0.101157 0)
(0.063821 0.0908755 0)
(0.0715271 0.0742596 0)
(0.0763823 0.0571858 0)
(0.0791089 0.0419331 0)
(0.0800858 0.0289201 0)
(0.0798304 0.0176732 0)
(0.0779418 0.00774028 0)
(0.0752694 -0.00156218 0)
(0.0703004 -0.010602 0)
(0.0652203 -0.0200563 0)
(0.0560072 -0.0302793 0)
(0.0488812 -0.0421659 0)
(0.0311691 -0.0575618 0)
(0.0315917 -0.0887455 0)
(-0.00426407 -0.146275 0)
(0.02426 -0.236558 0)
(-0.00260568 0.00760995 0)
(0.0203807 0.0623809 0)
(0.0405743 0.0826449 0)
(0.0561452 0.0843953 0)
(0.0703387 0.0776112 0)
(0.0824687 0.0655761 0)
(0.0912741 0.052267 0)
(0.096978 0.0394305 0)
(0.0997043 0.0280762 0)
(0.100659 0.0182309 0)
(0.0987763 0.00973799 0)
(0.0961757 0.00199131 0)
(0.0899735 -0.00529236 0)
(0.0840927 -0.0127319 0)
(0.0726255 -0.0205862 0)
(0.0640109 -0.0302726 0)
(0.0436009 -0.0441686 0)
(0.0423369 -0.0760813 0)
(-0.000603046 -0.13662 0)
(0.0320708 -0.229343 0)
(-0.0105981 0.0186563 0)
(0.00531404 0.0561492 0)
(0.0259216 0.0708618 0)
(0.0462296 0.0708752 0)
(0.0658498 0.0652792 0)
(0.0838156 0.055972 0)
(0.0975909 0.0457484 0)
(0.107912 0.0363501 0)
(0.113416 0.0279385 0)
(0.117128 0.0203474 0)
(0.116489 0.0137909 0)
(0.115335 0.00784572 0)
(0.109419 0.00261674 0)
(0.104514 -0.00280884 0)
(0.0931433 -0.00814831 0)
(0.0849959 -0.0164306 0)
(0.0648454 -0.0285021 0)
(0.0618287 -0.0601328 0)
(0.0116896 -0.118876 0)
(0.0471233 -0.203285 0)
(-0.0186446 0.00197666 0)
(-0.019556 0.0115441 0)
(0.00830136 0.0277467 0)
(0.0356253 0.0317567 0)
(0.0614908 0.0322646 0)
(0.0844269 0.029725 0)
(0.102564 0.0256196 0)
(0.117328 0.0208132 0)
(0.127396 0.0166139 0)
(0.135044 0.0127326 0)
(0.138738 0.00972973 0)
(0.141094 0.00649573 0)
(0.139924 0.00428118 0)
(0.13806 0.000668424 0)
(0.131722 -0.00190169 0)
(0.126687 -0.0080003 0)
(0.111416 -0.016153 0)
(0.106514 -0.0417914 0)
(0.0544344 -0.0860544 0)
(0.0810576 -0.151522 0)
(0.0410371 0.0795639 0)
(0.0413341 0.050453 0)
(0.0705417 0.0308078 0)
(0.0975381 0.0230057 0)
(0.121915 0.0200794 0)
(0.145497 0.0181074 0)
(0.166821 0.01621 0)
(0.18569 0.0145818 0)
(0.20146 0.0128984 0)
(0.214502 0.011654 0)
(0.224801 0.0101302 0)
(0.232955 0.00923401 0)
(0.238847 0.00761313 0)
(0.242945 0.00689313 0)
(0.244827 0.00474679 0)
(0.243251 0.00265538 0)
(0.236238 0.00107375 0)
(0.222302 -0.00764484 0)
(0.170665 -0.0170879 0)
(0.1568 -0.0942362 0)
)
;

boundaryField
{
    movingWall
    {
        type            fixedValue;
        value           uniform (1 0 0);
    }
    fixedWalls
    {
        type            fixedValue;
        value           uniform (0 0 0);
    }
    frontAndBack
    {
        type            empty;
    }
}


// ************************************************************************* //
