/*--------------------------------*- C++ -*----------------------------------*\
| =========                 |                                                 |
| \\      /  F ield         | OpenFOAM: The Open Source CFD Toolbox           |
|  \\    /   O peration     | Version:  3.0.0                                 |
|   \\  /    A nd           | Web:      www.OpenFOAM.org                      |
|    \\/     M anipulation  |                                                 |
\*---------------------------------------------------------------------------*/
FoamFile
{
    version     2.0;
    format      ascii;
    class       volScalarField;
    location    "3";
    object      p;
}
// * * * * * * * * * * * * * * * * * * * * * * * * * * * * * * * * * * * * * //

dimensions      [0 2 -2 0 0 0 0];

internalField   nonuniform List<scalar> 
4096
(
0.0302476
0.0187272
0.0128655
0.00562066
-0.000960299
-0.00349334
-0.00202564
0.000530537
0.00250375
0.00597205
0.0138742
0.0254991
0.0360413
0.0404287
0.0376766
0.0360157
0.034794
0.019358
0.0123801
0.00223721
-0.00841858
-0.0157859
-0.0187906
-0.0179519
-0.0131596
-0.00369228
0.00951418
0.0228526
0.0320792
0.0348321
0.0322839
0.0374345
0.038733
0.0192702
0.0140069
0.00577196
-0.00311859
-0.00924515
-0.0120943
-0.0125345
-0.0100792
-0.00285012
0.00922599
0.0225755
0.0321825
0.0347317
0.0314844
0.0410356
0.0342722
0.014331
0.0126139
0.00831104
0.0027609
-0.00148703
-0.00412389
-0.00569674
-0.00526968
-0.00034417
0.00960109
0.0212133
0.0290223
0.0296639
0.0248787
0.0366069
0.0206757
0.00430817
0.00708391
0.00795292
0.00697882
0.00559367
0.00392673
0.0019187
0.00080227
0.00326566
0.0101116
0.0181127
0.0224584
0.0198707
0.0129187
0.0235533
0.00073089
-0.00918752
-0.00186258
0.00456997
0.00884627
0.0110756
0.011032
0.00903599
0.00657922
0.00640769
0.00925671
0.012919
0.0129241
0.00680529
-0.002368
0.00440256
-0.0204968
-0.0231082
-0.011896
-0.000442548
0.00873901
0.01438
0.0157549
0.0134997
0.00954814
0.00642947
0.00565288
0.00523512
0.00141098
-0.00756189
-0.0183395
-0.0164127
-0.0374544
-0.0339199
-0.0200156
-0.0048625
0.00800038
0.0160083
0.0179086
0.0146162
0.00866118
0.00287417
-0.00100511
-0.00442218
-0.0105349
-0.02066
-0.0318251
-0.0337808
-0.045931
-0.0388529
-0.0237926
-0.00679231
0.00789072
0.0166792
0.0178952
0.0127383
0.00439322
-0.0037235
-0.00982325
-0.0147364
-0.0210439
-0.0302023
-0.0398998
-0.043469
-0.0443969
-0.0368546
-0.02227
-0.0054361
0.00894108
0.0167661
0.0162285
0.0087304
-0.00177246
-0.0115692
-0.0187726
-0.0237024
-0.0283065
-0.0343991
-0.0410992
-0.0436001
-0.0344158
-0.0288308
-0.0159385
-0.00124868
0.0108197
0.0161707
0.0131579
0.00369794
-0.0080134
-0.0182484
-0.0251819
-0.0288312
-0.0306379
-0.0327104
-0.0356921
-0.0350863
-0.0200448
-0.017466
-0.00723049
0.00400859
0.0123374
0.0143461
0.00903089
-0.0014168
-0.0126466
-0.0215027
-0.0265638
-0.0277991
-0.026551
-0.0251854
-0.0251938
-0.0214594
-0.00576738
-0.00571866
0.00121346
0.00814815
0.0119964
0.0106771
0.00413374
-0.00507
-0.0139206
-0.0198195
-0.0216324
-0.019779
-0.0159147
-0.012692
-0.0114804
-0.00683856
0.00567814
0.0042157
0.00726087
0.00920995
0.00816561
0.00390469
-0.00245954
-0.00894077
-0.0135786
-0.0147748
-0.0121613
-0.00706005
-0.00169059
0.00172131
0.00262893
0.00571547
0.015172
0.0124552
0.0110568
0.00734662
0.00104662
-0.00607274
-0.012027
-0.0153601
-0.0149244
-0.0103076
-0.00263864
0.00558374
0.0118522
0.0148502
0.0151236
0.0161302
0.0288298
0.0225176
0.0175142
0.0108723
0.00464075
0.00202982
0.00279862
0.00365798
0.00312974
0.00385329
0.00924236
0.0190122
0.0287735
0.0339743
0.0337267
0.0322573
0.0376011
0.020889
0.0111725
0.00411495
0.000494237
0.000273631
0.00108942
0.000941883
0.000631373
0.00351475
0.012444
0.0264882
0.0403375
0.0482402
0.0474749
0.0438837
0.0371446
0.0210603
0.0130698
0.00401787
-0.00504241
-0.0127157
-0.0187008
-0.0217612
-0.019245
-0.00920047
0.00700016
0.0242651
0.0368794
0.0415475
0.0391015
0.0403638
0.0391589
0.0216923
0.0156707
0.0083793
0.000864005
-0.00541507
-0.0106681
-0.0144852
-0.0141722
-0.00667573
0.0076599
0.0239136
0.0359314
0.0400442
0.0372921
0.042158
0.0320714
0.0163281
0.0139815
0.0103582
0.00587753
0.00159658
-0.00275014
-0.00685995
-0.00808255
-0.00301571
0.00839852
0.0216072
0.0307203
0.0325222
0.0286118
0.0352934
0.0168323
0.00563393
0.00763419
0.00860474
0.00808985
0.00648209
0.00358296
-0.000108682
-0.00227676
0.000274169
0.00787024
0.0164917
0.0212546
0.0197323
0.0142342
0.0204544
-0.00285418
-0.00797716
-0.00176583
0.0039272
0.00774751
0.00924607
0.00811099
0.00502465
0.00195021
0.00157423
0.00487775
0.00843265
0.00854928
0.00375284
-0.00314386
0.000971924
-0.0224556
-0.0213753
-0.0115707
-0.00174281
0.00592185
0.0100483
0.010077
0.00689935
0.00253425
-0.000535745
-0.00140491
-0.00226474
-0.00591529
-0.0131442
-0.0207265
-0.0190581
-0.0377499
-0.0316116
-0.0191476
-0.00628335
0.00410332
0.00975227
0.00982781
0.00548605
-0.000781569
-0.00635954
-0.0103449
-0.0142091
-0.0201051
-0.0282247
-0.0355769
-0.0354985
-0.0458801
-0.0367102
-0.0227221
-0.00822464
0.00340581
0.00922733
0.00819364
0.00183611
-0.00659498
-0.0141816
-0.019981
-0.025181
-0.0315148
-0.0390318
-0.0451282
-0.0451196
-0.0455343
-0.0359609
-0.0218002
-0.00716923
0.00421658
0.00898649
0.00604486
-0.00256232
-0.0128321
-0.0214972
-0.0277216
-0.0326863
-0.0378752
-0.0435046
-0.0476469
-0.0463709
-0.037676
-0.0300571
-0.0170954
-0.00380551
0.00606251
0.00899085
0.00400174
-0.00630077
-0.0173791
-0.0258568
-0.0311343
-0.0345441
-0.0375023
-0.0405447
-0.0426606
-0.0395145
-0.0248286
-0.0207095
-0.0104009
0.000256588
0.00771745
0.00859654
0.00214371
-0.0086498
-0.019026
-0.0258501
-0.0288982
-0.0297235
-0.0299011
-0.0304115
-0.031034
-0.02675
-0.010329
-0.0101124
-0.00376367
0.00318474
0.00773375
0.00696517
0.000278655
-0.00929848
-0.0174639
-0.0215131
-0.021463
-0.0191206
-0.0164341
-0.0149463
-0.0149171
-0.0113543
0.00286703
-0.000247312
0.00130648
0.00359756
0.00456252
0.00220052
-0.00382447
-0.0110132
-0.0158172
-0.0160663
-0.0120608
-0.00604264
-0.000686603
0.00211479
0.00203151
0.00320669
0.0145873
0.0087822
0.00542446
0.0022278
-0.00156217
-0.00679321
-0.0133311
-0.0187504
-0.019725
-0.0147416
-0.00516214
0.00550137
0.0136594
0.0174722
0.017178
0.0159048
0.0344565
0.022249
0.0133354
0.00671796
0.00349756
0.0033561
0.00307997
0.000655883
-0.00237027
-0.00195245
0.00490686
0.0173422
0.0306995
0.0394576
0.0410934
0.0381364
0.0433948
0.0249232
0.0124724
0.00487636
0.00264375
0.0039
0.00489602
0.00380829
0.00239493
0.00448554
0.0129203
0.0271754
0.0418809
0.0519263
0.0533691
0.0489325
0.0356504
0.0208421
0.0124415
0.00495724
-0.00188337
-0.00850268
-0.0152241
-0.0200258
-0.019122
-0.00989729
0.00647772
0.0246815
0.0390699
0.0449591
0.0427186
0.0397515
0.0357156
0.0211788
0.0145666
0.0086487
0.00339756
-0.00134856
-0.00661522
-0.0116091
-0.0126733
-0.00611822
0.00797785
0.0247824
0.037792
0.0428792
0.0404837
0.0400282
0.0274532
0.0156424
0.0126283
0.010065
0.00759837
0.00490459
0.000962246
-0.00378878
-0.00599146
-0.0017289
0.00930304
0.0226786
0.0322107
0.0346497
0.0311162
0.0321018
0.0127352
0.00543478
0.00667558
0.00815364
0.00889378
0.00828284
0.00566405
0.00165487
-0.000969429
0.00128153
0.00883253
0.0175598
0.0224857
0.0213913
0.0163067
0.0174502
-0.0046502
-0.00680153
-0.00158334
0.00377974
0.00767405
0.00907414
0.00760898
0.00425625
0.00130099
0.00154101
0.00539362
0.00943213
0.00981245
0.00545389
-0.000889839
-0.000411554
-0.0211967
-0.0184777
-0.00998367
-0.00142032
0.00500233
0.00776984
0.00663913
0.00303002
-0.000725724
-0.00237134
-0.00160697
-0.00125964
-0.00430177
-0.010914
-0.0178067
-0.0180962
-0.0340125
-0.0274137
-0.0165294
-0.00570656
0.0023143
0.0055488
0.00376545
-0.00116986
-0.00639574
-0.0097111
-0.0110512
-0.0129506
-0.0178585
-0.0253793
-0.0319757
-0.0324944
-0.0411238
-0.0321403
-0.0198087
-0.00778717
0.000841017
0.00364585
0.000391342
-0.00656026
-0.0136083
-0.0182334
-0.0206421
-0.0234007
-0.028695
-0.0358368
-0.041397
-0.0412151
-0.041626
-0.0320306
-0.0192903
-0.00710332
0.00121613
0.00291902
-0.00219219
-0.0112367
-0.0198792
-0.0252465
-0.0278152
-0.0303418
-0.034856
-0.0406537
-0.0446441
-0.042916
-0.0354682
-0.0273032
-0.0153684
-0.00409117
0.00317099
0.00348991
-0.0032778
-0.013786
-0.0231969
-0.0285095
-0.0304688
-0.0319694
-0.0349078
-0.0387399
-0.041005
-0.0375089
-0.0241396
-0.0191066
-0.00942015
-0.000151068
0.00551199
0.00459003
-0.00307145
-0.0138856
-0.0228552
-0.0271657
-0.0277559
-0.0275157
-0.0282749
-0.0298606
-0.0306774
-0.0261369
-0.0101101
-0.00923515
-0.0032923
0.00289916
0.00659435
0.00496007
-0.00235521
-0.0120018
-0.0193454
-0.0218702
-0.0204577
-0.0177723
-0.0157992
-0.0151104
-0.0150928
-0.011255
0.0034495
0.000187205
0.00142687
0.00357743
0.0046463
0.00224029
-0.00409711
-0.0116719
-0.0164859
-0.016288
-0.0117707
-0.00558907
-0.000419409
0.00225115
0.00228046
0.00359062
0.0154861
0.00865952
0.00509558
0.00248309
-0.000459202
-0.00531322
-0.012362
-0.018812
-0.0207158
-0.0160918
-0.00623637
0.00516153
0.0141907
0.0186716
0.0184692
0.016713
0.0399656
0.0251161
0.0136427
0.00633569
0.00396705
0.00491003
0.00490193
0.00181977
-0.00211948
-0.0024615
0.00388204
0.0164155
0.0309366
0.0419144
0.0456122
0.0428908
0.0449814
0.026831
0.0136117
0.00601668
0.00413945
0.00496488
0.00429841
0.00126358
-0.00133868
0.000466769
0.00901032
0.0233651
0.0390808
0.0506772
0.0539826
0.0500053
0.0318421
0.0180441
0.00956854
0.00374375
-0.00101808
-0.00672137
-0.0141757
-0.02055
-0.021176
-0.012947
0.00323029
0.0223777
0.0379479
0.0450605
0.0431197
0.0370332
0.0298973
0.0171914
0.00998688
0.00525623
0.00210688
-0.00106757
-0.00597899
-0.0114591
-0.0133486
-0.00734607
0.00647385
0.0236372
0.0372754
0.0429746
0.0405616
0.0357408
0.0211389
0.0113392
0.00736594
0.0055145
0.00486068
0.00396447
0.00112756
-0.00321421
-0.00535316
-0.00119481
0.00948462
0.0231488
0.0325954
0.0350782
0.031247
0.0273941
0.0078279
0.0020671
0.00209143
0.00371314
0.00560085
0.0063554
0.00490766
0.00184498
7.23779e-05
0.00301115
0.0106843
0.0193223
0.0239435
0.0225836
0.0170843
0.0137969
-0.00654162
-0.0080209
-0.00424272
0.00055263
0.00456892
0.00634543
0.00546954
0.00312301
0.00165928
0.00344375
0.00820284
0.0123825
0.0124136
0.00774224
0.00108107
-0.00176873
-0.0195315
-0.0170681
-0.0102294
-0.00296501
0.00244513
0.00443616
0.00306424
0.000230935
-0.00160089
-0.000863444
0.00164796
0.00258926
-0.000637855
-0.00743023
-0.0144309
-0.0167275
-0.0294933
-0.0237977
-0.014724
-0.00575412
0.000334766
0.00186211
-0.000831405
-0.00520604
-0.00823734
-0.00855952
-0.00750524
-0.00842283
-0.0133646
-0.0209714
-0.0274907
-0.0289317
-0.0353428
-0.0273311
-0.0167456
-0.00685276
-0.000599198
3.52381e-05
-0.00441195
-0.0108506
-0.0155415
-0.0168947
-0.0166498
-0.018346
-0.0237689
-0.0311314
-0.0365392
-0.0366602
-0.0363354
-0.0270948
-0.0157966
-0.00558079
0.000418635
-1.96992e-05
-0.00623572
-0.0146807
-0.0209288
-0.0231212
-0.0232538
-0.0250341
-0.0300722
-0.0364265
-0.0403046
-0.0384894
-0.0313979
-0.022929
-0.0119311
-0.00214201
0.00324294
0.00179402
-0.00581066
-0.0156041
-0.0228796
-0.0254822
-0.0256413
-0.0269955
-0.0309466
-0.0356712
-0.0379216
-0.0342554
-0.0214761
-0.0155461
-0.00619529
0.00222689
0.0066467
0.00445679
-0.0037958
-0.0140416
-0.021402
-0.023916
-0.0235766
-0.0237666
-0.0257748
-0.028257
-0.028892
-0.0239343
-0.00819988
-0.00643596
-0.000312236
0.00568103
0.00878516
0.00628558
-0.00164643
-0.0112363
-0.0178844
-0.0196513
-0.0180877
-0.0160652
-0.0150664
-0.0148097
-0.0142688
-0.00947016
0.00511732
0.00213518
0.0039238
0.00656156
0.0077442
0.00472359
-0.00260231
-0.0109848
-0.016207
-0.0161911
-0.0119521
-0.00616751
-0.00115929
0.00186652
0.00274047
0.00539978
0.0166232
0.00926658
0.00642313
0.0050736
0.00298369
-0.00211442
-0.010548
-0.0187034
-0.0220379
-0.0183523
-0.00891648
0.00269514
0.0126303
0.01829
0.0189877
0.0183499
0.0416772
0.0263163
0.0143639
0.0071268
0.00507917
0.0055503
0.00401959
-0.000776166
-0.00572209
-0.00629736
0.00010014
0.0127758
0.0279678
0.040449
0.0459405
0.0450213
0.0425272
0.0252777
0.0133164
0.00634722
0.00384636
0.00240406
-0.0013538
-0.00680378
-0.0101846
-0.00779495
0.00179382
0.0169848
0.0333859
0.0456135
0.0495729
0.0478446
0.028323
0.0138233
0.00522879
0.000314986
-0.00331941
-0.00863325
-0.0165932
-0.0239222
-0.0254131
-0.0179081
-0.00210952
0.017437
0.0341548
0.0425765
0.0409624
0.0344353
0.0239128
0.0108017
0.00292855
-0.00122653
-0.00307006
-0.0050816
-0.00943138
-0.0147969
-0.0165776
-0.01074
0.00292084
0.020204
0.0344152
0.0405861
0.0378731
0.0309034
0.014569
0.00451202
-0.000557065
-0.00221742
-0.00166268
-0.00103977
-0.0025281
-0.0057972
-0.00713056
-0.00258205
0.00824161
0.021491
0.0311315
0.033454
0.0288849
0.0221184
0.00266869
-0.00338866
-0.0047133
-0.00327268
-0.000575725
0.00147498
0.00147357
-9.86661e-05
-0.00048112
0.00337445
0.0114088
0.0198942
0.024161
0.0222798
0.0159629
0.00970349
-0.00879726
-0.0107903
-0.00840303
-0.00417624
-3.07003e-05
0.00229961
0.00232953
0.0013595
0.00168515
0.00509078
0.0106832
0.0148102
0.0142685
0.00897298
0.00167416
-0.00352293
-0.0183444
-0.0166978
-0.01122
-0.0048874
-8.57076e-05
0.00159865
0.000443569
-0.00129324
-0.00111218
0.00180433
0.00557648
0.00651223
0.00258962
-0.00476345
-0.0120879
-0.0157915
-0.0254069
-0.0207732
-0.0130076
-0.00514375
-0.000216045
0.000408521
-0.00249408
-0.00589481
-0.00676812
-0.00466013
-0.00224428
-0.00332833
-0.00913955
-0.0172446
-0.0238154
-0.0258179
-0.0296736
-0.0227313
-0.0131414
-0.00445647
0.000524139
0.000117986
-0.0045429
-0.00991032
-0.0123356
-0.0113634
-0.010048
-0.0123537
-0.0189607
-0.0269062
-0.0322328
-0.0324759
-0.0304051
-0.0218475
-0.0113572
-0.00202507
0.00294814
0.00171399
-0.00435841
-0.0116965
-0.0155993
-0.0158495
-0.0155533
-0.0185078
-0.0251395
-0.0322902
-0.0360892
-0.0344812
-0.0265529
-0.0178715
-0.0072017
0.00217299
0.00695262
0.00505413
-0.00225682
-0.0106358
-0.0158562
-0.0172151
-0.0176233
-0.0206053
-0.0264173
-0.0320976
-0.0342408
-0.0307246
-0.0177789
-0.0110222
-0.00142697
0.00707436
0.0112516
0.00877224
0.000781732
-0.00835509
-0.0143609
-0.0162729
-0.0166619
-0.0185773
-0.0223258
-0.0256725
-0.0261388
-0.020943
-0.00528426
-0.00257896
0.0043489
0.0108395
0.0138694
0.0108842
0.00266196
-0.00665906
-0.0128406
-0.0146211
-0.0139253
-0.0132537
-0.0134279
-0.0135728
-0.0125991
-0.00666944
0.00768763
0.0051404
0.00812438
0.0116385
0.0128442
0.00896233
0.000431007
-0.00884089
-0.0145551
-0.0150025
-0.011458
-0.00639573
-0.001671
0.00175897
0.00353335
0.00827912
0.0186127
0.0107949
0.0092222
0.00916073
0.00756911
0.00158209
-0.00853147
-0.0183452
-0.0229352
-0.020212
-0.0115172
-0.000167917
0.0103128
0.017151
0.0190533
0.0210393
0.0395499
0.0245576
0.014307
0.00819289
0.00604466
0.00458877
0.000206301
-0.00678722
-0.0123591
-0.0123391
-0.00509405
0.00801823
0.0233272
0.0360831
0.0421005
0.0438881
0.0377593
0.0197954
0.0104377
0.00430422
0.000222765
-0.00453611
-0.011729
-0.0189972
-0.022123
-0.0181284
-0.0067182
0.00964295
0.0265693
0.0386102
0.0417495
0.0436572
0.0258809
0.00859855
-3.57792e-05
-0.00511567
-0.00897055
-0.0145197
-0.0225754
-0.0297854
-0.0311071
-0.0236958
-0.00824286
0.0112155
0.0285781
0.0379799
0.0366221
0.0328197
0.0190196
0.00342504
-0.00504158
-0.00939366
-0.0110338
-0.0125748
-0.0162837
-0.0208496
-0.02188
-0.0157272
-0.00223974
0.0150718
0.0295882
0.0361364
0.0329483
0.0270432
0.00922694
-0.00281908
-0.00891936
-0.0109162
-0.0100058
-0.00851884
-0.00886722
-0.0108499
-0.0110867
-0.00602845
0.00476498
0.0178623
0.0276382
0.0300218
0.0247867
0.0176929
-0.00133369
-0.00879559
-0.0112707
-0.0102535
-0.00723246
-0.00435451
-0.00325612
-0.00356971
-0.00279243
0.00168795
0.00978972
0.0181491
0.0223923
0.0204314
0.0136082
0.00645048
-0.0103442
-0.0131594
-0.0117668
-0.00797255
-0.00373151
-0.000979327
-0.000309609
-0.000404602
0.000962149
0.00515269
0.0109741
0.0149424
0.0141889
0.00881345
0.00135708
-0.00459156
-0.0169975
-0.0158783
-0.0111135
-0.00518059
-0.00051641
0.00116923
0.00022937
-0.000912561
0.000211651
0.00396925
0.00792309
0.00841673
0.00398636
-0.00343504
-0.0105019
-0.0144394
-0.0215689
-0.0174456
-0.0100758
-0.00255018
0.00222804
0.00272724
-1.77828e-05
-0.00278221
-0.00266973
0.000150922
0.00235331
0.00024273
-0.0065
-0.014728
-0.0208274
-0.0225445
-0.0243898
-0.0179446
-0.00864516
0.000162248
0.00516058
0.00485053
0.000640211
-0.00370999
-0.00503165
-0.00363577
-0.00321491
-0.00724909
-0.0152798
-0.0235415
-0.0284347
-0.0282439
-0.0248969
-0.0167159
-0.0061108
0.00363738
0.00899486
0.00823706
0.00300167
-0.00272823
-0.0055376
-0.00574619
-0.00693157
-0.0121932
-0.0206465
-0.0283791
-0.0319794
-0.0302567
-0.0217446
-0.0130034
-0.00193152
0.00817977
0.013631
0.0124594
0.00634498
-0.000499554
-0.00464221
-0.00621977
-0.00838916
-0.0138148
-0.0215426
-0.0279988
-0.0302011
-0.0270278
-0.0139968
-0.00675977
0.00354856
0.0129636
0.0178038
0.0158789
0.00881027
0.000913454
-0.00426645
-0.0065383
-0.00852078
-0.0125037
-0.0178732
-0.0220058
-0.0226786
-0.0178553
-0.00236205
0.00089994
0.00889614
0.0163049
0.0196023
0.0164648
0.0083179
-0.000509209
-0.00627156
-0.00831372
-0.00860702
-0.00929433
-0.0105082
-0.0112082
-0.0105593
-0.00378714
0.0101234
0.00773046
0.0120655
0.0163828
0.0173146
0.012385
0.002851
-0.00683081
-0.01254
-0.0130828
-0.00997416
-0.00550537
-0.00115581
0.00225196
0.00429905
0.0108887
0.0205591
0.0119877
0.0118107
0.0124702
0.0105143
0.00322226
-0.00819585
-0.0187334
-0.0235982
-0.0211607
-0.0129606
-0.00207328
0.00840248
0.0157619
0.0182717
0.0235164
0.0348897
0.0196656
0.0123331
0.00776428
0.00491211
0.000736108
-0.00679415
-0.0154779
-0.0207189
-0.0191305
-0.0103032
0.00353828
0.0186267
0.0305151
0.0353775
0.0401227
0.0316348
0.0114571
0.00459676
-0.0010436
-0.00723956
-0.0152222
-0.0248522
-0.0325234
-0.0341209
-0.0276841
-0.0141374
0.00335902
0.020336
0.031489
0.0327204
0.0382887
0.0229062
0.00176949
-0.00646305
-0.0123016
-0.017226
-0.0233847
-0.0311084
-0.0372229
-0.0374476
-0.0294504
-0.0141007
0.00490038
0.0222482
0.0318645
0.0300956
0.0307293
0.0149125
-0.00444392
-0.0128909
-0.017767
-0.0200481
-0.0218215
-0.025035
-0.0284307
-0.0282205
-0.0213667
-0.00785872
0.00897427
0.0235747
0.0303461
0.0265098
0.0237233
0.00545561
-0.00956417
-0.016069
-0.0185587
-0.0179884
-0.0164649
-0.0162739
-0.0172191
-0.0164096
-0.0108543
-0.000161589
0.012727
0.022772
0.0255621
0.0198948
0.0146241
-0.00350503
-0.0128079
-0.0158741
-0.0152633
-0.0123557
-0.00932772
-0.00787649
-0.00764106
-0.0063648
-0.0018
0.00603765
0.0143196
0.0190817
0.0178219
0.0111168
0.00492561
-0.0103271
-0.0138638
-0.0129105
-0.00930302
-0.00500414
-0.00212654
-0.00139669
-0.0015113
-0.000288904
0.00350561
0.00880896
0.0126433
0.0124539
0.00801835
0.00130485
-0.00399138
-0.0147058
-0.0136476
-0.00895506
-0.00287418
0.00207926
0.00395676
0.00301177
0.00158983
0.00213969
0.0050035
0.00794281
0.00785681
0.00371701
-0.00269384
-0.0086539
-0.0116903
-0.0173988
-0.0132578
-0.00554744
0.00254855
0.00797123
0.00897254
0.00647867
0.00356223
0.00306303
0.00457627
0.00507738
0.00164898
-0.00534965
-0.0127613
-0.0176463
-0.0182793
-0.0192121
-0.0129301
-0.00297027
0.00684633
0.0129393
0.0135952
0.0101882
0.00620575
0.00440127
0.0042043
0.00231759
-0.00374269
-0.0126173
-0.0204545
-0.0244553
-0.0233531
-0.0196995
-0.0118177
-0.000391293
0.0107334
0.0175279
0.0181537
0.0142083
0.00938219
0.00638227
0.0045766
0.000852578
-0.00676935
-0.0164565
-0.0242378
-0.0275174
-0.025584
-0.0172942
-0.00882182
0.00307081
0.0146542
0.0216009
0.0218951
0.0172774
0.0116062
0.00760235
0.00475562
0.000355167
-0.00721234
-0.0162168
-0.0231273
-0.0255893
-0.0231342
-0.0107274
-0.00365343
0.00739617
0.0180668
0.0240789
0.0231857
0.0173403
0.0106067
0.00586351
0.00290233
-0.000557617
-0.00601955
-0.0123911
-0.0171538
-0.0185382
-0.0150373
-0.000347776
0.00269224
0.0114315
0.0197225
0.0234021
0.0204286
0.0127824
0.00481548
-0.00026578
-0.00226855
-0.00310076
-0.00444681
-0.00626906
-0.00761055
-0.00781638
-0.00216144
0.0111059
0.00815141
0.0133469
0.0180866
0.0185296
0.0128375
0.00300995
-0.00616345
-0.0110123
-0.0109331
-0.00765551
-0.00334896
0.000660968
0.0035605
0.00479982
0.0117167
0.0206491
0.0107913
0.0116794
0.0124439
0.00956236
0.00113878
-0.0105787
-0.0205008
-0.0244347
-0.0213905
-0.0131436
-0.0026155
0.00742302
0.0144092
0.0162081
0.0237484
0.0291813
0.0125442
0.00799123
0.00463347
0.000638867
-0.00622902
-0.0160778
-0.0251976
-0.0289745
-0.0251268
-0.0144387
0.000120181
0.0146834
0.0250018
0.0275363
0.0347285
0.0243118
0.00222725
-0.00321856
-0.00907807
-0.0168985
-0.0267638
-0.0368426
-0.0430737
-0.0420715
-0.0329866
-0.0178101
-9.30537e-05
0.0159535
0.025363
0.0242334
0.0317454
0.0170056
-0.00696901
-0.0141929
-0.0202396
-0.0261759
-0.0327808
-0.0398243
-0.0444096
-0.0430841
-0.0342064
-0.0188199
-0.000465836
0.016016
0.0248714
0.0218398
0.0258326
0.00948601
-0.0127117
-0.0201963
-0.0251295
-0.0281679
-0.030539
-0.0334952
-0.0357052
-0.0340863
-0.0264071
-0.0128948
0.00331735
0.0173739
0.0236989
0.0188186
0.0192155
0.00165058
-0.0156265
-0.021527
-0.0240703
-0.0240618
-0.0231285
-0.0230381
-0.0233768
-0.0217087
-0.0156808
-0.00514452
0.00738451
0.0174719
0.0204711
0.0143722
0.0115482
-0.00511379
-0.0155836
-0.0183426
-0.0177371
-0.0151185
-0.0125029
-0.0114039
-0.011301
-0.0100893
-0.00582889
0.00153291
0.00969097
0.015133
0.0148571
0.00856167
0.00404541
-0.00955396
-0.0132897
-0.0120841
-0.00825835
-0.00384607
-0.00107299
-0.000736223
-0.00156012
-0.00136448
0.00116339
0.00539378
0.00907658
0.00995862
0.00709366
0.0015838
-0.00241758
-0.0119512
-0.0105475
-0.00538619
0.00133459
0.00693818
0.00920734
0.00812536
0.00581857
0.00464968
0.00534058
0.00642593
0.00576601
0.00263097
-0.00197893
-0.00625313
-0.00790792
-0.0130827
-0.00876701
-0.000271834
0.00899211
0.0156779
0.0176515
0.0155127
0.0120268
0.00945772
0.00818007
0.00611865
0.00150091
-0.00491881
-0.0107067
-0.0140029
-0.0132744
-0.0142092
-0.00810656
0.00288265
0.014311
0.0221672
0.0243215
0.0217728
0.017547
0.0139701
0.0108967
0.00613056
-0.00156521
-0.0103639
-0.0170581
-0.019982
-0.0179141
-0.01479
-0.007418
0.00503078
0.0179302
0.0266805
0.0290783
0.0263871
0.0218025
0.0175693
0.0133213
0.00698182
-0.0022613
-0.0121765
-0.0193968
-0.0223883
-0.0204364
-0.0131087
-0.00539133
0.00725185
0.0203996
0.0290702
0.0310337
0.0278185
0.0228299
0.0183127
0.0138827
0.00765988
-0.00104974
-0.0102986
-0.0171392
-0.0201199
-0.0188426
-0.00775833
-0.00163827
0.0097249
0.0214969
0.0285853
0.0289007
0.0243354
0.0186158
0.0141409
0.0106534
0.00640774
0.000486177
-0.00599265
-0.0110435
-0.0135132
-0.0121432
0.000901003
0.00287008
0.0116152
0.0203763
0.0243873
0.0218849
0.015193
0.00845711
0.00436034
0.00282044
0.00214046
0.000906127
-0.000939842
-0.00280545
-0.00427643
-0.00131914
0.0105123
0.00627463
0.0114426
0.0161763
0.0162204
0.0103387
0.00120315
-0.00654302
-0.00989169
-0.00871595
-0.00481366
-0.00024714
0.00361156
0.00575652
0.00539355
0.0107703
0.0181274
0.00663008
0.00798211
0.00861771
0.00502219
-0.00372671
-0.0147788
-0.0230872
-0.0253895
-0.0212443
-0.0125518
-0.00216069
0.00729752
0.0132437
0.0134438
0.0210118
0.0229964
0.00481148
0.00222688
-0.000515083
-0.00574302
-0.0143627
-0.0248324
-0.0328357
-0.0342587
-0.0281016
-0.0160313
-0.00146802
0.0118365
0.0201418
0.0197993
0.0282973
0.0156959
-0.00583102
-0.0106422
-0.0167375
-0.0252624
-0.0351755
-0.0436149
-0.0469947
-0.0430401
-0.0320507
-0.0164943
-5.44962e-06
0.0136156
0.0202054
0.0168103
0.0236333
0.00743693
-0.016346
-0.0221901
-0.0274711
-0.0333286
-0.039836
-0.0460824
-0.0492502
-0.0465567
-0.0369998
-0.0219111
-0.00469278
0.0102143
0.0174016
0.0128869
0.0174814
0.000943361
-0.0207674
-0.0264829
-0.0305645
-0.0338261
-0.036783
-0.0396834
-0.0409151
-0.0380305
-0.0296075
-0.0163293
-0.00115994
0.0115337
0.0164736
0.010436
0.0119138
-0.00465835
-0.0212045
-0.025501
-0.0273307
-0.0276778
-0.0276142
-0.0280074
-0.0280261
-0.0256466
-0.0192364
-0.00892157
0.00293204
0.0123708
0.0147897
0.00816298
0.0064045
-0.00841152
-0.0180643
-0.0196088
-0.0184239
-0.0160219
-0.0141088
-0.0136682
-0.013918
-0.0129292
-0.00909701
-0.00234587
0.00546246
0.01115
0.0113444
0.005327
0.00170585
-0.00988359
-0.012931
-0.0108304
-0.00636973
-0.00170522
0.000954423
0.000855566
-0.000761278
-0.00179594
-0.000817477
0.00208251
0.00544273
0.00725369
0.00574961
0.00122396
-0.00186367
-0.0101095
-0.00829417
-0.00230562
0.00540183
0.0119731
0.0149134
0.0138551
0.010594
0.00741816
0.005491
0.00440729
0.0031618
0.00121792
-0.00154757
-0.00444404
-0.00489025
-0.00967127
-0.00558307
0.00382743
0.0145574
0.0229161
0.0262585
0.0246142
0.0201967
0.0153044
0.0107887
0.00599678
0.000471241
-0.00486448
-0.00879889
-0.0108088
-0.0090085
-0.0101453
-0.00469482
0.00727188
0.0204849
0.0304239
0.0343547
0.0326531
0.0277819
0.0219538
0.0156736
0.00818494
-0.000485443
-0.00841995
-0.013601
-0.0157106
-0.0130871
-0.0106285
-0.00419699
0.00904426
0.0236694
0.0344576
0.03866
0.0370014
0.0321526
0.026208
0.0194152
0.0109694
0.00108866
-0.00806104
-0.0142326
-0.0171154
-0.0155986
-0.00927836
-0.00274891
0.0102237
0.0246485
0.0348848
0.0383597
0.0362297
0.0314375
0.0260348
0.0201082
0.0127595
0.00400617
-0.00443285
-0.0106408
-0.0142009
-0.014482
-0.00480389
-0.00013257
0.0110077
0.023432
0.0313602
0.0327407
0.0292683
0.0242508
0.0198041
0.0159185
0.0115065
0.00606639
0.000396326
-0.00438037
-0.00792307
-0.00894839
0.00219222
0.00258768
0.0107429
0.0195253
0.0237444
0.0219113
0.0163496
0.010798
0.0075225
0.00646951
0.00627085
0.00571221
0.00444942
0.00246854
-0.000386361
-0.000167001
0.00931628
0.00345903
0.00812889
0.0126534
0.0126044
0.00722406
-0.00065503
-0.00688568
-0.00896114
-0.00689385
-0.00234156
0.00269797
0.00670228
0.00828612
0.00629839
0.00919557
0.0138229
0.00105194
0.00242784
0.00319462
-0.000354512
-0.00848431
-0.0181419
-0.02489
-0.025894
-0.0209754
-0.0119967
-0.00170091
0.00725965
0.0121277
0.0105479
0.0163384
0.0163765
-0.0016912
-0.00288764
-0.00541168
-0.0115496
-0.0208156
-0.0305006
-0.0360334
-0.0346896
-0.0266065
-0.0141667
-0.000763047
0.0103328
0.0156867
0.012767
0.021128
0.00680168
-0.0108645
-0.0148936
-0.0207328
-0.0288743
-0.03741
-0.0434676
-0.044059
-0.0380413
-0.0264315
-0.0118873
0.00209813
0.0122348
0.0153568
0.0102577
0.014885
-0.00415781
-0.0238279
-0.0279441
-0.0315939
-0.0365373
-0.0426537
-0.0483214
-0.0505827
-0.0471267
-0.0374999
-0.0232844
-0.00777819
0.0048961
0.00994246
0.00461301
0.00688718
-0.00970114
-0.0268427
-0.0304388
-0.0331019
-0.0361825
-0.0396689
-0.0426441
-0.0431125
-0.0392407
-0.0304214
-0.017753
-0.00411402
0.00648714
0.00941106
0.00273746
0.00260555
-0.0129571
-0.0254523
-0.0277446
-0.0284995
-0.029084
-0.0299509
-0.0308329
-0.0304867
-0.0273935
-0.0206738
-0.0107987
-2.53722e-06
0.00806738
0.00920626
0.00228766
-0.000554721
-0.0134561
-0.0203966
-0.0203688
-0.0184124
-0.0162392
-0.015036
-0.0150306
-0.0152916
-0.0142623
-0.0107442
-0.00464876
0.00252938
0.00782526
0.00775777
0.00182222
-0.00229734
-0.0116808
-0.0137413
-0.010551
-0.00535494
-0.000407506
0.00236347
0.0022392
0.00036093
-0.00147427
-0.00179876
-0.00014505
0.00276277
0.0050337
0.00417341
-1.58934e-05
-0.00299622
-0.00936468
-0.00826477
-0.00147775
0.00727618
0.0149645
0.0189388
0.0183835
0.0146981
0.00995207
0.00574966
0.00276004
0.00104045
8.91353e-05
-0.00143924
-0.00395699
-0.00410113
-0.00796446
-0.00520215
0.00495948
0.0171556
0.0273571
0.032398
0.0316186
0.0266504
0.019708
0.0123631
0.00532329
-0.000675133
-0.00477772
-0.00725695
-0.00895634
-0.00677117
-0.00792114
-0.00396501
0.00866493
0.0235397
0.0356148
0.0414542
0.040683
0.0352193
0.0272914
0.0182308
0.00869256
-0.000218002
-0.00681006
-0.0105904
-0.0126241
-0.010196
-0.0080092
-0.00300694
0.0106254
0.0267038
0.0393885
0.0452645
0.0444094
0.0390477
0.0313453
0.0223562
0.0125291
0.00289496
-0.00477132
-0.0096691
-0.0127784
-0.0123049
-0.00632325
-0.00121014
0.0117232
0.0270413
0.0385521
0.0432209
0.0417342
0.0366589
0.0300951
0.0228063
0.0148898
0.00690518
7.24651e-05
-0.00497203
-0.00898072
-0.0110192
-0.00197144
0.00123915
0.011952
0.0245811
0.0330891
0.0352116
0.0323457
0.0274217
0.022491
0.0180226
0.0136509
0.00921526
0.00504812
0.00124431
-0.00283416
-0.00599617
0.00390897
0.00301144
0.0105095
0.0190731
0.0233755
0.0220698
0.017267
0.0122546
0.00908112
0.00796155
0.00802981
0.00829139
0.00806835
0.00664143
0.00306852
0.00129412
0.00855328
0.0019678
0.0061008
0.0104492
0.0104823
0.00572775
-0.00116273
-0.00654677
-0.00822747
-0.00608609
-0.00142371
0.00393383
0.00826724
0.00979818
0.00701272
0.00791895
0.00928926
-0.00331114
-0.00175571
-0.000471044
-0.00344233
-0.0107822
-0.0194117
-0.0252587
-0.0258034
-0.0208918
-0.0121828
-0.00225902
0.00621524
0.0103136
0.00772946
0.0114376
0.0098333
-0.00535757
-0.00529082
-0.0076503
-0.0143191
-0.0234994
-0.0313679
-0.0342053
-0.0305838
-0.0215946
-0.0098722
0.00139164
0.00949776
0.0116928
0.00686583
0.0139124
-0.000714729
-0.0119779
-0.0143923
-0.0193501
-0.0267466
-0.0341366
-0.0386259
-0.0378735
-0.0313502
-0.0204025
-0.00755209
0.00378516
0.010597
0.0106796
0.00490982
0.00723223
-0.013917
-0.0268324
-0.028942
-0.0309819
-0.035228
-0.0412916
-0.0467451
-0.0485069
-0.0447728
-0.0356436
-0.0228223
-0.00940998
0.000797568
0.0038428
-0.00136417
-0.00185179
-0.0183227
-0.0287551
-0.0303903
-0.0320102
-0.0352496
-0.0394219
-0.0424889
-0.0422855
-0.0376699
-0.0287806
-0.0170016
-0.00507801
0.00327843
0.00429472
-0.00225341
-0.00497385
-0.0192236
-0.0266588
-0.0272752
-0.02747
-0.0286713
-0.0304875
-0.0315653
-0.0305787
-0.0266812
-0.0196926
-0.0103219
-0.000666289
0.00584109
0.00559107
-0.0013099
-0.00587016
-0.0168622
-0.0214859
-0.0202593
-0.0180234
-0.016388
-0.0158184
-0.0156242
-0.0152629
-0.0137172
-0.0102034
-0.00456862
0.00197956
0.00656341
0.00578732
-0.000361768
-0.00504153
-0.0127276
-0.015319
-0.0113653
-0.00579703
-0.000717845
0.00247721
0.00294817
0.00163269
-0.000218563
-0.00117745
-0.000261844
0.00234501
0.00467507
0.0037055
-0.00107809
-0.00374943
-0.00930435
-0.0106107
-0.00330551
0.00623356
0.0149542
0.020209
0.0208408
0.0175717
0.0121758
0.00664572
0.00256519
0.000765256
0.000490262
-0.000746893
-0.00417717
-0.00398317