/*--------------------------------*- C++ -*----------------------------------*\
| =========                 |                                                 |
| \\      /  F ield         | OpenFOAM: The Open Source CFD Toolbox           |
|  \\    /   O peration     | Version:  3.0.0                                 |
|   \\  /    A nd           | Web:      www.OpenFOAM.org                      |
|    \\/     M anipulation  |                                                 |
\*---------------------------------------------------------------------------*/
FoamFile
{
    version     2.0;
    format      ascii;
    class       surfaceScalarField;
    location    "3";
    object      phi;
}
// * * * * * * * * * * * * * * * * * * * * * * * * * * * * * * * * * * * * * //

dimensions      [0 3 -1 0 0 0 0];

internalField   nonuniform List<scalar> 
11520
(
-0.000288238
-0.000254566
0.000194376
-0.000248119
-6.55544e-05
0.000232005
-0.000198705
0.000105626
0.000234096
-0.000158147
0.000263683
0.0001716
-0.000140566
0.00041688
4.23068e-05
-0.000148298
0.000563599
-0.000122326
-0.000173227
0.000675406
-0.000271887
-0.000203584
0.00070476
-0.000368956
-0.000229378
0.000615103
-0.00040481
-0.000243778
0.000405411
-0.000388425
-0.000246573
0.000117202
-0.000331847
-0.000247288
-0.000174483
-0.000248145
-0.000257776
-0.00039242
-0.000153126
-0.000279636
-0.000493586
-6.01455e-05
-0.000301727
-0.000482259
2.69277e-05
-0.000393709
0.00010463
-0.000467277
-0.000282304
0.000160401
-0.000422136
-9.74246e-05
0.000163117
-0.00035479
7.6036e-05
0.00014506
-0.000287029
0.000244458
8.27723e-05
-0.000235716
0.000410938
-2.56545e-05
-0.000207909
0.000566756
-0.000158954
-0.000200753
0.000678061
-0.00028111
-0.000203829
0.0006944
-0.000360359
-0.00020547
0.00058152
-0.000382875
-0.000202323
0.000347672
-0.000350674
-0.000204848
4.76438e-05
-0.000276055
-0.000230015
-0.0002358
-0.000180254
-0.000284825
-0.000431286
-8.68222e-05
-0.000357154
-0.00051146
-8.8865e-06
-0.000424557
-0.000490752
5.36506e-05
-0.000402061
0.000103023
-0.000598238
-0.00030497
0.000100553
-0.000548889
-0.000144286
7.04899e-05
-0.000465602
1.5106e-05
3.55164e-05
-0.000370246
0.000178797
-2.29843e-05
-0.000279507
0.000345907
-0.000106783
-0.000203231
0.000504361
-0.000203199
-0.000146093
0.000619635
-0.000289148
-0.000108631
0.00064017
-0.000339541
-8.85587e-05
0.000529279
-0.000337772
-8.77492e-05
0.000297969
-0.000282002
-0.000116791
9.34055e-06
-0.000187537
-0.000186004
-0.000250832
-8.40681e-05
-0.000290585
-0.000420435
-1.64958e-07
-0.000408107
-0.000485644
5.27537e-05
-0.000511736
-0.000465969
8.08148e-05
-0.000385859
9.58011e-05
-0.000659866
-0.000323811
3.25476e-05
-0.000608432
-0.000201934
-2.67578e-05
-0.000512796
-6.95086e-05
-7.71711e-05
-0.000393336
7.67496e-05
-0.000131494
-0.000265907
0.000233555
-0.000191108
-0.000143006
0.00038844
-0.000249568
-3.69663e-05
0.000510659
-0.000294723
3.89258e-05
0.00055164
-0.00030975
7.49736e-05
0.000469325
-0.000278376
6.52826e-05
0.000267575
-0.000196411
3.89069e-06
9.68063e-06
-8.27719e-05
-0.000109487
-0.00021884
2.52676e-05
-0.00025811
-0.000365373
9.58648e-05
-0.00041247
-0.00042465
0.000120351
-0.000543405
-0.000416315
0.000110788
-0.000354168
8.90983e-05
-0.00064611
-0.000335149
-2.49282e-05
-0.000596368
-0.000260042
-0.000109681
-0.000495128
-0.000162112
-0.000174153
-0.00036111
-4.09252e-05
-0.00022519
-0.000209662
9.89461e-05
-0.000263791
-5.49303e-05
0.000246106
-0.000287752
8.65751e-05
0.00037517
-0.000293122
0.000193294
0.000443991
-0.000271351
0.0002443
0.00040705
-0.000209061
0.000227564
0.000254951
-0.000101519
0.000140806
4.27519e-05
2.84641e-05
-5.71819e-06
-0.00014964
0.000138511
-0.000186347
-0.000276095
0.000194747
-0.000365935
-0.000336961
0.00019155
-0.000514281
-0.00034861
0.00014555
-0.000313988
8.70465e-05
-0.000564682
-0.000332749
-5.62576e-05
-0.000520939
-0.000305538
-0.000162468
-0.000422447
-0.000244161
-0.00023887
-0.000286157
-0.000150651
-0.000287824
-0.000126936
-3.03029e-05
-0.000309981
4.04707e-05
0.000106755
-0.000305789
0.000198827
0.000239686
-0.000276737
0.000324747
0.000333575
-0.000221325
0.000390447
0.000344496
-0.000130977
0.000375966
0.000252018
-3.22586e-06
0.000277549
9.47363e-05
0.000139144
0.000113393
-5.71495e-05
0.00024776
-8.33873e-05
-0.000165615
0.000290562
-0.000274957
-0.000232585
0.000263712
-0.00043014
-0.000269092
0.000186562
-0.000269435
9.39208e-05
-0.00043196
-0.000313296
-5.26651e-05
-0.000397492
-0.000328968
-0.000175015
-0.00030918
-0.000301378
-0.000260678
-0.000181501
-0.00023419
-0.000309164
-2.83641e-05
-0.000133135
-0.000320803
0.000135573
-7.39952e-06
-0.000297175
0.000293581
0.000125371
-0.000242565
0.000424181
0.000236068
-0.000160443
0.000499441
0.000286019
-4.8372e-05
0.0004924
0.000249932
9.34789e-05
0.0003965
0.000151138
0.000239167
0.00023229
4.24751e-05
0.000344015
3.63105e-05
-4.76924e-05
0.000376563
-0.000152888
-0.00012172
0.000333361
-0.000304449
-0.000183859
0.000234069
-0.000222682
0.000114068
-0.000267512
-0.000278972
-1.44537e-05
-0.000244027
-0.000327199
-0.000145315
-0.000171383
-0.000326776
-0.000236904
-6.02827e-05
-0.000281725
-0.000287074
7.72896e-05
-0.000198028
-0.000295774
0.000227153
-8.41951e-05
-0.000264159
0.000372771
4.44749e-05
-0.000196696
0.000494806
0.000163073
-9.90206e-05
0.000568375
0.000238759
2.55585e-05
0.000566661
0.000247611
0.000172349
0.000481383
0.000201513
0.000315527
0.000332244
0.000134437
0.000415655
0.000154311
6.30913e-05
0.000443592
-1.74894e-05
-1.54974e-05
0.000394248
-0.00015438
-0.000100278
0.000285191
-0.000175909
0.000149474
-9.11584e-05
-0.000236048
4.88322e-05
-7.90436e-05
-0.00030273
-8.00216e-05
-2.54799e-05
-0.000319745
-0.000172892
6.40544e-05
-0.000290559
-0.000226766
0.0001804
-0.000221128
-0.000240746
0.000310033
-0.000119213
-0.000214538
0.000435764
2.16728e-06
-0.000149966
0.000538876
0.000121495
-5.17551e-05
0.000598128
0.00021075
7.39281e-05
0.000592972
0.000249597
0.000216601
0.000518663
0.000242267
0.000352607
0.00039434
0.000207416
0.000448855
0.000249789
0.000151984
0.000479182
0.000111698
7.21492e-05
0.000435711
1.30853e-06
-2.79579e-05
0.000332048
-0.000132597
0.000196918
7.6877e-05
-0.000193226
0.000120006
7.85771e-05
-0.000261976
6.6252e-06
0.000111663
-0.00028442
-8.05548e-05
0.000177423
-0.00026311
-0.000138277
0.000269905
-0.000203675
-0.0001651
0.000375642
-0.000112423
-0.000157548
0.0004761
1.44768e-07
-0.000112324
0.000552045
0.000115373
-3.00718e-05
0.000586463
0.000209062
8.3183e-05
0.000567869
0.000262799
0.000213484
0.000499931
0.00027513
0.000338287
0.00040354
0.000254848
0.000430603
0.000302636
0.0002052
0.000468312
0.000212425
0.000124621
0.000441858
0.000141514
1.87455e-05
0.000359591
-9.97576e-05
0.000245184
0.000214795
-0.000160187
0.000179557
0.000208492
-0.000213487
9.65276e-05
0.000222909
-0.000227241
2.47431e-05
0.000265718
-0.000204584
-3.45281e-05
0.000334005
-0.00014957
-7.93952e-05
0.000413395
-6.60972e-05
-0.000101859
0.000483447
3.81883e-05
-9.0656e-05
0.00052539
0.000147234
-3.89053e-05
0.000527627
0.000238235
4.96228e-05
0.000489245
0.000292148
0.000159532
0.000423564
0.00030277
0.000268206
0.000354147
0.000274075
0.00035325
0.000300103
0.00021258
0.000398023
0.000265615
0.000125327
0.000394839
0.00024408
2.21049e-05
0.000348465
-8.83789e-05
0.00027595
0.00029979
-0.00014607
0.000213451
0.000290025
-0.000167028
0.000173531
0.000290937
-0.000157501
0.000127071
0.000315144
-0.000123242
7.03339e-05
0.000361002
-6.55607e-05
4.78069e-06
0.000412337
1.54187e-05
-5.56233e-05
0.000447546
0.000114712
-8.87045e-05
0.000450154
0.000216713
-7.77132e-05
0.000416806
0.000298276
-2.25119e-05
0.000358155
0.000337492
6.01982e-05
0.000295622
0.000324166
0.000147227
0.000253358
0.000263101
0.000220246
0.000244245
0.000170206
0.000269118
0.000262525
6.6736e-05
0.000290604
0.000289275
-2.89328e-05
0.000288423
-0.000109483
0.000272702
0.000312552
-0.000154675
0.000221713
0.000304969
-0.000129817
0.000229564
0.000301066
-8.49014e-05
0.000213618
0.000314145
-2.92623e-05
0.000162244
0.0003411
3.93402e-05
7.51712e-05
0.000363852
0.000125297
-2.67191e-05
0.000361101
0.000224959
-0.000107921
0.000323217
0.000320722
-0.000140614
0.000257153
0.000384743
-0.000122239
0.000184777
0.000391635
-7.06546e-05
0.00013314
0.000331735
-7.53257e-06
0.000121637
0.000217838
5.33497e-05
0.000152452
8.11018e-05
0.000107475
0.000209466
-4.19931e-05
0.000154101
0.000268319
-0.00012594
0.000195522
-0.000163688
0.000236121
0.000245737
-0.000180392
0.000217127
0.000245012
-0.000103448
0.00026468
0.000245872
-1.78289e-05
0.000274988
0.000256473
6.6274e-05
0.000227493
0.000269413
0.000154059
0.000119279
0.000265214
0.000254187
-2.19178e-05
0.000226183
0.000361177
-0.000147054
0.000152308
0.000449592
-0.000218859
6.4249e-05
0.000484021
-0.000233658
-6.32044e-06
0.00043844
-0.000209435
-3.3935e-05
0.000312461
-0.00016406
-1.16227e-05
0.000135849
-0.00010668
4.77154e-05
-4.28667e-05
-4.10765e-05
0.000120845
-0.00017721
2.97377e-05
0.000185897
-0.000242032
0.000105335
-0.000236551
0.000185889
0.000109623
-0.000209656
0.000210152
0.000116902
-8.27828e-05
0.000279052
0.000127265
4.1627e-05
0.000303088
0.000140615
0.000154789
0.000254175
0.000143673
0.000267079
0.000125721
0.000117887
0.000389678
-4.98258e-05
5.24615e-05
0.000510955
-0.000212661
-4.05144e-05
0.000589121
-0.000315846
-0.000127381
0.000578007
-0.000351188
-0.000174645
0.000460203
-0.000335373
-0.000169125
0.000258275
-0.000286697
-0.000121051
2.47047e-05
-0.000217522
-5.36851e-05
-0.000180295
-0.000136245
1.01288e-05
-0.000310204
-4.8444e-05
5.80239e-05
-0.000348563
4.45558e-05
-0.00030658
0.000141636
-6.66846e-05
0.000191273
-6.06191e-05
0.000264059
-4.66239e-05
0.000291718
-3.51041e-05
0.000237542
-4.22982e-05
8.99839e-05
-7.76735e-05
-0.000118588
-0.000137097
-0.000319825
-0.000202798
-0.000449906
-0.000250832
-0.000485644
-0.000264339
-0.00044438
-0.000241383
-0.000359317
-0.000193931
-0.000259723
-0.000141754
-0.000163113
-0.000102619
-7.36447e-05
-8.31987e-05
1.38902e-05
0.000103392
-0.000240439
-0.000485315
0.000214662
-0.000190698
-0.000291752
0.000218199
-0.000139341
-7.98379e-05
0.000195574
-0.000102845
0.000147565
0.000123446
-9.53349e-05
0.000379132
1.86574e-06
-0.000119017
0.000589808
-0.000139493
-0.000163603
0.000739607
-0.00025776
-0.000213192
0.000788369
-0.000325876
-0.000254084
0.00071351
-0.000341267
-0.000277541
0.000518278
-0.00031255
-0.000281763
0.000235139
-0.000248173
-0.00027427
-7.55903e-05
-0.000158475
-0.00026902
-0.000343085
-5.93803e-05
-0.000272581
-0.00051576
3.06106e-05
-0.000279123
-0.000579824
0.000103719
-0.000547847
0.000159399
-0.000387483
-0.00052875
0.000183127
-0.000337952
-0.000338275
0.000160109
-0.000270624
-0.000128878
0.000126772
-0.000204798
0.000102535
6.19766e-05
-0.00015929
0.00034447
-3.65008e-05
-0.000145812
0.000568296
-0.000150919
-0.000162902
0.000726314
-0.000250726
-0.000195064
0.000769874
-0.000309702
-0.000222817
0.000675749
-0.000317361
-0.00023579
0.000456221
-0.000275644
-0.000239095
0.000156741
-0.000194352
-0.000249372
-0.000152815
-9.2752e-05
-0.000279388
-0.000402845
2.95297e-06
-0.000326051
-0.000554162
7.61781e-05
-0.000372859
-0.000604346
0.000124982
-0.00056524
0.000155748
-0.000487267
-0.000563334
0.000126518
-0.000436049
-0.000395096
7.6093e-05
-0.00035665
-0.000205168
3.24076e-05
-0.00026682
1.28726e-05
-2.31526e-05
-0.000183837
0.000249363
-9.46595e-05
-0.000122474
0.000478051
-0.000174318
-9.16232e-05
0.00065085
-0.000244534
-8.87362e-05
0.00071081
-0.000283364
-0.000101458
0.000625072
-0.000274373
-0.000120713
0.000407095
-0.00021362
-0.000150321
0.000112181
-0.000113368
-0.000201596
-0.000182869
-2.74007e-06
-0.000277429
-0.000412557
8.53805e-05
-0.000364304
-0.000549017
0.000134484
-0.000440846
-0.000596472
0.000149483
-0.000561045
0.000146648
-0.0005255
-0.000588562
5.79108e-05
-0.000473407
-0.000456038
-1.79092e-05
-0.000385495
-0.000296788
-7.34635e-05
-0.000277051
-0.000104254
-0.000122811
-0.0001625
0.000114113
-0.000170408
-5.7042e-05
0.000337559
-0.000214534
2.23499e-05
0.000524924
-0.000248189
6.25159e-05
0.000618103
-0.000257209
6.29191e-05
0.000570024
-0.000223732
3.08089e-05
0.000382
-0.000139207
-3.19521e-05
0.000110846
-1.86764e-05
-0.000126974
-0.000161783
9.9203e-05
-0.000245217
-0.000374502
0.000176052
-0.000364811
-0.000506364
0.000197293
-0.00046211
-0.000563036
0.000174652
-0.000543005
0.000134312
-0.000502209
-0.00059982
-7.50039e-06
-0.000451277
-0.000510782
-0.000105869
-0.000360092
-0.000387982
-0.000174144
-0.000241939
-0.000226767
-0.000220831
-0.000109038
-3.28132e-05
-0.000249766
2.45578e-05
0.000178697
-0.000262486
0.00013956
0.000375951
-0.000259151
0.000212784
0.000507134
-0.000233605
0.000229161
0.000515059
-0.000170473
0.000189079
0.000379937
-5.93739e-05
9.90376e-05
0.000148375
8.09765e-05
-3.12774e-05
-9.68871e-05
0.000203931
-0.000181905
-0.000296606
0.000267479
-0.000324218
-0.000432928
0.000260426
-0.00043348
-0.000508711
0.000200488
-0.000515171
0.000121771
-0.000427234
-0.000591957
-5.45251e-05
-0.000379895
-0.000548695
-0.000171894
-0.000291499
-0.000463231
-0.000252018
-0.000173766
-0.000333842
-0.000298482
-3.74226e-05
-0.000165119
-0.000314018
0.000105174
3.18175e-05
-0.000301506
0.000236756
0.000232904
-0.000265273
0.000332884
0.000395471
-0.000205789
0.000368439
0.00046121
-0.000112683
0.000331198
0.000390806
2.31464e-05
0.000227326
0.000211859
0.000179533
7.51302e-05
-8.96692e-07
0.000303966
-9.47533e-05
-0.000189901
0.00035374
-0.000248697
-0.000336371
0.000321098
-0.000361511
-0.000437553
0.000228217
-0.000479011
0.000113889
-0.000314632
-0.000562936
-7.13832e-05
-0.000272653
-0.00056277
-0.000202918
-0.000192177
-0.000511712
-0.000292674
-8.32289e-05
-0.000411052
-0.000340902
4.48498e-05
-0.000265143
-0.000348858
0.000181215
-8.25416e-05
-0.00031918
0.000311683
0.000117496
-0.000257625
0.000415863
0.000300005
-0.000169156
0.000466533
0.000412045
-4.98769e-05
0.000440907
0.000405133
0.000104778
0.000337285
0.00028494
0.000269707
0.000179023
0.000110079
0.000391302
4.33534e-06
-6.72074e-05
0.000428557
-0.000149474
-0.000225468
0.000376268
-0.000257867
-0.000354088
0.000258998
-0.000435101
0.00011662
-0.000178754
-0.000515521
-5.35364e-05
-0.000143126
-0.000551163
-0.000192549
-7.43582e-05
-0.000528356
-0.000289028
2.0037e-05
-0.000451037
-0.000341484
0.000131969
-0.000323651
-0.000349199
0.000252481
-0.000154134
-0.000313079
0.000369617
4.12745e-05
-0.000237611
0.000467621
0.000232553
-0.000129573
0.00052286
0.0003738
8.56404e-06
0.000508528
0.000417668
0.000174146
0.000415173
0.000353917
0.000339905
0.000265683
0.000219702
0.000455523
0.000101419
5.68737e-05
0.000483774
-4.02218e-05
-0.00011071
0.000421132
-0.000135985
-0.000264941
0.000291807
-0.000385274
0.000134084
-3.3835e-05
-0.000457289
-5.35819e-06
-4.96561e-06
-0.00051683
-0.000143224
4.95099e-05
-0.000512853
-0.00024287
0.000125102
-0.000451198
-0.000302196
0.000216679
-0.000337626
-0.000318349
0.000315897
-0.000179469
-0.000288421
0.000412121
8.52944e-06
-0.000213445
0.000492699
0.000199542
-9.93218e-05
0.000539514
0.000353998
4.69144e-05
0.00052859
0.000430497
0.000214696
0.000448564
0.000411345
0.000375206
0.000319294
0.000313832
0.000483995
0.000179704
0.000166633
0.000509013
6.35647e-05
-6.17713e-06
0.000447317
-1.01051e-05
-0.000180573
0.000321349
-0.000334109
0.000165442
0.000104845
-0.000398546
5.89857e-05
0.000126855
-0.000466298
-6.5916e-05
0.000165611
-0.000468568
-0.000163597
0.000221045
-0.000413294
-0.000231616
0.000289973
-0.00030752
-0.000264133
0.000364574
-0.000158542
-0.000253076
0.000434331
2.02356e-05
-0.000193787
0.000488447
0.000204279
-8.89244e-05
0.000514301
0.00035916
5.21684e-05
0.000495879
0.000449761
0.000212643
0.000426734
0.000456173
0.000362603
0.00032474
0.000382149
0.00046428
0.000222388
0.000245591
0.000491706
0.000145212
7.01149e-05
0.000442743
0.00010376
-0.000116319
0.000336788
-0.000290217
0.000202485
0.00021946
-0.000351361
0.000121897
0.000235859
-0.000409013
2.28443e-05
0.00025979
-0.000402174
-6.55818e-05
0.000295555
-0.000342045
-0.000141543
0.000341637
-0.000236915
-0.000196082
0.000389337
-9.36733e-05
-0.000214427
0.000427399
7.56449e-05
-0.000184127
0.000446938
0.000248569
-0.000102735
0.000441611
0.000394155
1.99551e-05
0.000406299
0.000481498
0.000163107
0.000343975
0.000490432
0.00029627
0.000272624
0.000418254
0.000388495
0.000216266
0.000278802
0.000421171
0.000188516
9.83076e-05
0.000394396
0.000188259
-9.12972e-05
0.0003237
-0.000265938
0.000230946
0.000290784
-0.00032658
0.000167847
0.000304365
-0.000355355
0.000106293
0.00031709
-0.000323295
3.54661e-05
0.000336652
-0.000246137
-4.51359e-05
0.000361578
-0.000132994
-0.000124067
0.000380906
1.00248e-05
-0.000178649
0.000382595
0.000171869
-0.000186616
0.000361081
0.000331469
-0.0001391
0.000318562
0.000459539
-4.53763e-05
0.000262547
0.000526776
7.09341e-05
0.000206307
0.000513356
0.000180544
0.000167936
0.000417061
0.00025981
0.000161131
0.000256151
0.000298574
0.000185381
6.48213e-05
0.000299839
0.000227334
-0.000119597
0.000274769
-0.000272702
0.000236838
0.00030195
-0.000328887
0.000192436
0.000316607
-0.000313551
0.000173103
0.000324661
-0.000243193
0.000125464
0.000334225
-0.000137846
4.43893e-05
0.000341386
-6.93519e-06
-5.80481e-05
0.000332259
0.000143457
-0.000151024
0.000295113
0.000301981
-0.000200887
0.000230992
0.000446833
-0.000191858
0.000153202
0.000548249
-0.000133159
8.18336e-05
0.000577099
-4.96084e-05
3.77739e-05
0.000516562
3.33214e-05
3.51802e-05
0.000372598
0.000100407
7.44086e-05
0.000176066
0.000148331
0.000140788
-2.77903e-05
0.000180333
0.000212838
-0.000198125
0.000202
-0.000312664
0.000218555
0.000245458
-0.000353757
0.000202623
0.000264516
-0.000286775
0.000218845
0.000275515
-0.000172499
0.000193294
0.000282912
-3.21555e-05
0.000114405
0.000277663
0.000125666
-8.07291e-06
0.00024273
0.00029308
-0.000136609
0.000169028
0.00045439
-0.00022576
6.77317e-05
0.000582412
-0.000253142
-3.38474e-05
0.000644441
-0.000228272
-0.000105219
0.000614125
-0.000175089
-0.000125506
0.000485485
-0.000112697
-9.18604e-05
0.000281595
-4.9322e-05
-1.93577e-05
4.92939e-05
1.31931e-05
6.76652e-05
-0.000159006
7.39308e-05
0.000147214
-0.000304997
0.000132657
-0.000374384
0.00018874
0.000129313
-0.000390453
0.000205493
0.000153304
-0.000272637
0.000240922
0.000171285
-0.000117385
0.000229993
0.000180926
5.84859e-05
0.000153893
0.000168114
0.000247279
1.69203e-05
0.000114035
0.000439306
-0.000141972
1.43055e-05
0.000609104
-0.000267645
-0.000107229
0.000716069
-0.000327969
-0.000209906
0.000723287
-0.000327357
-0.000260576
0.000616447
-0.000287025
-0.000249226
0.000411988
-0.00022455
-0.000188813
0.000153626
-0.000149965
-0.000105109
-0.000100804
-6.9851e-05
-2.33198e-05
-0.000299585
1.03447e-05
4.18209e-05
-0.000413667
8.80852e-05
-0.000440264
0.000161379
-1.49064e-05
0.000189223
5.06615e-06
0.000227267
2.00757e-05
0.000226326
2.25309e-05
0.000157666
-1.47954e-06
1.50717e-05
-6.12842e-05
-0.000168437
-0.000149946
-0.000331209
-0.000242628
-0.000423014
-0.000308869
-0.000432277
-0.000329787
-0.000377712
-0.000304559
-0.000287147
-0.000247033
-0.000185196
-0.000178116
-8.87438e-05
-0.000117702
-5.07829e-06
-7.55498e-05
6.76457e-05
0.000133503
-0.000128363
-0.000650438
0.000234091
-7.90337e-05
-0.000475424
0.000219203
-3.98099e-05
-0.000247431
0.000181865
-2.49646e-05
2.2422e-05
0.000107726
-4.60376e-05
0.00030864
-5.37074e-07
-0.000100909
0.000568222
-0.000116954
-0.000172775
0.00075118
-0.000207835
-0.000240636
0.000821232
-0.000255689
-0.000289313
0.000765167
-0.000261549
-0.000311169
0.000589904
-0.000231546
-0.00030569
0.000322013
-0.00016936
-0.000278909
6.88097e-06
-8.09556e-05
-0.000247479
-0.00028712
1.71028e-05
-0.000221656
-0.000512195
0.000105028
-0.000202452
-0.00063811
0.000169406
-0.00066022
0.0002084
-0.000248806
-0.000698134
0.000197512
-0.00020493
-0.000525302
0.00016611
-0.000150907
-0.000304447
0.000129765
-0.000101159
-3.7696e-05
7.23459e-05
-7.40718e-05
0.000254347
-9.29463e-06
-8.35459e-05
0.000529353
-0.000102577
-0.000127313
0.000727579
-0.000183357
-0.000184502
0.000798785
-0.000230067
-0.000230237
0.00072657
-0.000233029
-0.000250735
0.000526904
-0.000192147
-0.000247979
0.000239059
-0.000114154
-0.000238464
-7.91708e-05
-1.62151e-05
-0.000236747
-0.000362971
7.70865e-05
-0.00024962
-0.000567399
0.000144255
-0.00026808
-0.000675628
0.00018096
-0.000685239
0.000194805
-0.000329686
-0.000732892
0.000140697
-0.000285986
-0.000579469
8.65593e-05
-0.000221535
-0.000382253
4.57625e-05
-0.000147557
-0.000137294
2.4683e-06
-7.97938e-05
0.000141801
-4.98771e-05
-3.62461e-05
0.000420665
-0.000109177
-2.95472e-05
0.000640475
-0.000164129
-5.46243e-05
0.000736773
-0.000196274
-9.17407e-05
0.000677336
-0.000188023
-0.000124483
0.000478217
-0.00013219
-0.000151237
0.000189653
-3.72082e-05
-0.000182086
-0.000120962
6.98991e-05
-0.000225056
-0.000389637
0.000155017
-0.000276103
-0.000579063
0.000197195
-0.000321357
-0.000680108
0.000199217
-0.000688532
0.000178849
-0.00036338
-0.000753807
6.68441e-05
-0.000318722
-0.000631653
-1.03832e-05
-0.000246517
-0.000467615
-6.03061e-05
-0.000155253
-0.000255333
-9.60359e-05
-5.63126e-05
-2.70605e-06
-0.000124842
3.34464e-05
0.000266212
-0.00014984
9.2186e-05
0.000503211
-0.000169665
0.000105032
0.000640576
-0.000173859
7.76214e-05
0.000624604
-0.000143588
2.74048e-05
0.000455003
-6.57761e-05
-3.56052e-05
0.000184583
4.94041e-05
-0.000111174
-0.000110657
0.000164467
-0.000196321
-0.000366798
0.000238359
-0.000278598
-0.000551078
0.000251585
-0.00034184
-0.000656901
0.000214686
-0.000676209
0.000155511
-0.000351397
-0.000756629
-1.16806e-05
-0.000305854
-0.00067294
-0.000110125
-0.000229373
-0.000546472
-0.000171767
-0.000128974
-0.000370935
-0.000205628
-1.32671e-05
-0.000150094
-0.000218086
0.000103875
0.000100721
-0.000214137
0.000199705
0.000346232
-0.000198003
0.000247431
0.000526199
-0.000166954
0.000234958
0.000572206
-0.000105603
0.000173323
0.000456426
8.37601e-07
8.00473e-05
0.000220994
0.000137842
-3.25653e-05
-5.37079e-05
0.000259594
-0.000150352
-0.000300937
0.000319405
-0.000254196
-0.000488957
0.000302149
-0.000327112
-0.000609364
0.000225867
-0.000650151
0.000127001
-0.00030099
-0.000738106
-7.9032e-05
-0.00025504
-0.000695778
-0.000195006
-0.000178475
-0.000607132
-0.000267923
-7.78176e-05
-0.000467223
-0.000302852
3.97101e-05
-0.000277067
-0.000304573
0.000163121
-4.61027e-05
-0.000278093
0.000273906
0.000200267
-0.000230093
0.000344809
0.000412963
-0.000163457
0.000351353
0.000521325
-6.83472e-05
0.00029103
0.000472717
6.71795e-05
0.000181275
0.000286272
0.00022401
4.49228e-05
3.82066e-05
0.000348403
-9.28857e-05
-0.000201955
0.000392566
-0.000207639
-0.00039941
0.000346305
-0.000282368
-0.00054083
0.000234412
-0.000611018
9.93616e-05
-0.00022117
-0.000698239
-0.000120218
-0.000175206
-0.000696375
-0.000248285
-0.000102465
-0.000642596
-0.000329952
-9.19459e-06
-0.000533844
-0.000367551
9.8336e-05
-0.000369687
-0.000363769
0.000211554
-0.000156281
-0.00032222
0.000317125
8.66834e-05
-0.000249612
0.000394057
0.000319028
-0.000152153
0.000415857
0.000476125
-2.64766e-05
0.000366878
0.00049332
0.000133153
0.000256339
0.000364174
0.000302345
0.000112167
0.000149682
0.000423999
-3.16494e-05
-8.18265e-05
0.000452245
-0.000146388
-0.000290366
0.000381962
-0.000215455
-0.000455691
0.000242927
-0.000560092
8.03774e-05
-0.000120596
-0.000641366
-0.000125755
-7.50959e-05
-0.000675101
-0.000259324
-9.68816e-06
-0.000650209
-0.000346822
7.00089e-05
-0.000565687
-0.000389338
0.000159189
-0.00042121
-0.000386856
0.000251595
-0.000221724
-0.000340042
0.000338386
1.57114e-05
-0.00025343
0.000405881
0.000256234
-0.000134274
0.000432682
0.000443373
1.45145e-05
0.000397066
0.000513178
0.000189904
0.000297581
0.000440833
0.000362731
0.000160654
0.000265067
0.000477066
2.47407e-05
4.61484e-05
0.000491713
-7.86562e-05
-0.000171917
0.00040608
-0.000134461
-0.000360891
0.000252813
-0.000501011
7.64836e-05
-8.40272e-06
-0.000575574
-9.51167e-05
3.58162e-05
-0.000635699
-0.000226845
9.0633e-05
-0.000630122
-0.000317774
0.000152174
-0.000560846
-0.000368578
0.000217505
-0.000429014
-0.000375876
0.000282778
-0.000239816
-0.000335602
0.000342716
-9.3971e-06
-0.000248275
0.000389678
0.000230185
-0.000120234
0.00040947
0.000429927
4.05686e-05
0.000381904
0.000533387
0.000222053
0.000298991
0.000507866
0.000391086
0.00018168
0.000370247
0.000496126
6.75073e-05
0.000166885
0.000502449
-1.33144e-05
-5.72663e-05
0.000413488
-4.77782e-05
-0.000267261
0.000262183
-0.000440592
8.96138e-05
0.000103775
-0.00051212
-3.78381e-05
0.000145557
-0.000584265
-0.000159132
0.000187708
-0.000585039
-0.000250832
0.000228429
-0.000519922
-0.000313261
0.000266943
-0.000392964
-0.000338698
0.000301334
-0.000210487
-0.000316795
0.000329118
1.1637e-05
-0.000242605
0.000347356
0.000243272
-0.00012025
0.000348995
0.000441497
3.8959e-05
0.000320544
0.000558825
0.000215657
0.000254322
0.000562329
0.000374362
0.000165638
0.000453376
0.000469835
8.57686e-05
0.000263575
0.000474886
3.94495e-05
3.561e-05
0.000396186
3.50075e-05
-0.000190619
0.000264589
-0.000388542
0.000115037
0.000201968
-0.00046214
2.93805e-05
0.000240631
-0.000528926
-7.11578e-05
0.000269455
-0.000520076
-0.000159369
0.000289136
-0.000446394
-0.000234752
0.000300244
-0.000315653
-0.000284501
0.000301678
-0.000135702
-0.000290646
0.000293044
7.77489e-05
-0.000241605
0.000275817
0.000296364
-0.000138599
0.000250211
0.000481978
5.07978e-06
0.000212317
0.000594586
0.00016524
0.000160358
0.000604193
0.000306365
0.000106174
0.000504724
0.000391332
7.11802e-05
0.000318184
0.000401556
6.97787e-05
8.52987e-05
0.000346109
0.000101751
-0.000149998
0.000251107
-0.00035778
0.000142504
0.0002697
-0.000436234
9.03368e-05
0.000305622
-0.000478781
2.02254e-05
0.000323147
-0.000443572
-5.85628e-05
0.000324635
-0.000347908
-0.00014511
0.000310274
-0.000203632
-0.000221726
0.000278382
-2.0562e-05
-0.000261897
0.00023048
0.000185379
-0.000246345
0.00017331
0.000387491
-0.000173057
0.000115591
0.000551085
-5.67637e-05
6.41932e-05
0.000641025
7.5892e-05
2.54575e-05
0.000631109
0.000192363
9.06479e-06
0.000515427
0.0002655
2.44629e-05
0.00031533
0.00028603
7.20657e-05
7.38129e-05
0.000263722
0.000141388
-0.000161514
0.000216962
-0.000358752
0.000161103
0.000291598
-0.000439028
0.00013617
0.000326209
-0.00044154
0.000101251
0.000337217
-0.000366468
3.73515e-05
0.000326478
-0.000236879
-5.59003e-05
0.000291283
-6.86186e-05
-0.000157868
0.000228207
0.000124999
-0.000233509
0.000141491
0.00032609
-0.000254881
4.52905e-05
0.000508526
-0.000216693
-4.17892e-05
0.00063999
-0.000134984
-0.000102667
0.000688734
-3.64391e-05
-0.000124818
0.000633872
5.27103e-05
-0.000102526
0.000477234
0.000116308
-3.97515e-05
0.000248755
0.000152133
4.93611e-05
-2.24352e-06
0.000167277
0.00014586
-0.00022652
0.000170508
-0.000393952
0.000167078
0.000258616
-0.000467056
0.00016761
0.000293457
-0.000421081
0.000163546
0.000304295
-0.000300459
0.000116447
0.000289824
-0.000130109
2.21059e-05
0.000241934
7.11998e-05
-0.000100001
0.000153884
0.000284747
-0.000208306
3.35561e-05
0.000486112
-0.000265455
-9.48017e-05
0.000645832
-0.00026209
-0.000200905
0.00073249
-0.000214669
-0.00025948
0.000719885
-0.000147665
-0.000257852
0.000598784
-7.92366e-05
-0.000199566
0.000386757
-1.71321e-05
-0.00010257
0.000126994
3.79572e-05
8.6391e-06
-0.000126528
8.70067e-05
0.00011258
-0.000327884
0.00013008
-0.000453795
0.000165587
0.000174163
-0.000512852
0.000188524
0.00020959
-0.000417679
0.000202094
0.000224337
-0.000254332
0.000169119
0.000212814
-4.42901e-05
7.95965e-05
0.000161142
0.000193367
-5.35744e-05
5.89855e-05
0.000434102
-0.000189171
-8.29456e-05
0.000641516
-0.000281118
-0.000228823
0.000774898
-0.000311158
-0.000336111
0.000802708
-0.000290286
-0.000376955
0.000712904
-0.000239201
-0.000347449
0.000517844
-0.000173116
-0.000264237
0.000253709
-0.000100129
-0.000155072
-2.65268e-05
-2.54949e-05
-4.63874e-05
-0.000271048
4.618e-05
4.43506e-05
-0.000441129
0.000110592
-0.000523559
0.000164096
6.60886e-05
0.000189128
9.63134e-05
0.000204454
0.000106325
0.000183898
8.84965e-05
0.000109657
3.05115e-05
-1.87408e-05
-7.02612e-05
-0.000169452
-0.000196586
-0.000292607
-0.000314152
-0.000354107
-0.000389529
-0.000350399
-0.000406286
-0.000297102
-0.000367819
-0.000214076
-0.000291004
-0.000119484
-0.000198401
-2.86664e-05
-0.00011125
4.86777e-05
-4.17578e-05
0.000110244
0.000157479
3.30777e-05
-0.000698262
0.000242789
7.42211e-05
-0.000566079
0.000230808
8.99655e-05
-0.000351222
0.000194343
7.12111e-05
-7.25129e-05
0.000129276
1.13446e-05
0.000234418
4.02985e-05
-8.12284e-05
0.000513782
-5.22668e-05
-0.000182845
0.000709422
-0.000124588
-0.000268182
0.000789704
-0.000165563
-0.000321527
0.000750012
-0.000175923
-0.00033702
0.000601059
-0.000157187
-0.000315516
0.000364717
-0.000108146
-0.000264198
7.64658e-05
-3.11341e-05
-0.000198167
-0.000215155
6.08077e-05
-0.000133512
-0.000460659
0.000146624
-7.95598e-05
-0.000625248
0.000208719
-0.000694225
0.000238805
-7.1641e-05
-0.00074069
0.000198143
-3.96105e-05
-0.000607949
0.000175949
-7.5448e-06
-0.000403173
0.00014965
1.69925e-05
-0.000134659
0.000109955
1.83743e-05
0.000171819
5.1923e-05
-1.74915e-05
0.000465717
-1.86455e-05
-8.65641e-05
0.000680528
-8.53909e-05
-0.000164121
0.000766789
-0.000129595
-0.000222105
0.000714652
-0.000139686
-0.00024521
0.000543018
-0.000111001
-0.000233677
0.000285297
-4.62675e-05
-0.000200675
-1.33431e-05
4.05916e-05
-0.000164305
-0.000299681
0.000125242
-0.000138276
-0.000527752
0.000185319
-0.000123776
-0.000671994
0.000213206
-0.000723107
0.000213349
-0.000146868
-0.000766622
0.000139479
-0.000116308
-0.000648261
9.63122e-05
-7.32876e-05
-0.000469077
6.8646e-05
-2.13115e-05
-0.000229623
4.5456e-05
2.72686e-05
5.5596e-05
1.77658e-05
5.28168e-05
0.000349468
-1.84759e-05
3.95944e-05
0.000588717
-5.90951e-05
-6.65969e-06
0.000705967
-8.91988e-05
-6.07931e-05
0.000670286
-8.95236e-05
-0.000101565
0.000499138
-4.75383e-05
-0.000122845
0.000236684
3.26853e-05
-0.00013201
-6.17643e-05
0.000127485
-0.000141042
-0.000338278
0.000202647
-0.0001548
-0.0005518
0.000235001
-0.000168648
-0.000683733
0.000224803
-0.000727294
0.000188406
-0.000191152
-0.000776381
5.90857e-05