/*--------------------------------*- C++ -*----------------------------------*\
| =========                 |                                                 |
| \\      /  F ield         | OpenFOAM: The Open Source CFD Toolbox           |
|  \\    /   O peration     | Version:  3.0.0                                 |
|   \\  /    A nd           | Web:      www.OpenFOAM.org                      |
|    \\/     M anipulation  |                                                 |
\*---------------------------------------------------------------------------*/
FoamFile
{
    version     2.0;
    format      ascii;
    class       volVectorField;
    location    "3";
    object      U;
}
// * * * * * * * * * * * * * * * * * * * * * * * * * * * * * * * * * * * * * //

dimensions      [0 1 -1 0 0 0 0];

internalField   nonuniform List<vector> 
4096
(
(-0.0814987 -0.061647 0.0465643)
(-0.0683273 -0.0133489 0.0602178)
(-0.0571898 0.0282952 0.0640276)
(-0.0449699 0.0645051 0.0503247)
(-0.036755 0.0985032 0.017529)
(-0.0352919 0.131257 -0.0274727)
(-0.0400878 0.157344 -0.0714408)
(-0.0482931 0.166613 -0.10238)
(-0.0564047 0.150122 -0.115759)
(-0.0616714 0.104979 -0.113385)
(-0.0630027 0.0372545 -0.0992097)
(-0.0622463 -0.0370481 -0.0774727)
(-0.0633163 -0.0967817 -0.0524657)
(-0.068462 -0.126649 -0.0272657)
(-0.0763897 -0.124798 -0.00268481)
(-0.076943 -0.100519 0.0199425)
(-0.130064 -0.0678623 0.0372127)
(-0.113506 -0.0191669 0.0417244)
(-0.100176 0.026176 0.0397922)
(-0.0820359 0.0694141 0.0251837)
(-0.0657626 0.111922 -0.00311856)
(-0.0552118 0.15211 -0.0400785)
(-0.0511737 0.181344 -0.0759228)
(-0.0516694 0.186369 -0.100912)
(-0.0528775 0.158073 -0.109936)
(-0.0521543 0.0981644 -0.103035)
(-0.0507007 0.0202158 -0.0839324)
(-0.0533008 -0.0546053 -0.0589175)
(-0.0639704 -0.107266 -0.034326)
(-0.0820889 -0.129639 -0.013258)
(-0.103428 -0.124931 0.00456551)
(-0.110688 -0.101933 0.019191)
(-0.166581 -0.0751138 0.0210845)
(-0.146179 -0.0299157 0.0169907)
(-0.131246 0.0137569 0.00998987)
(-0.10764 0.0573235 -0.0045322)
(-0.0826853 0.100907 -0.0271469)
(-0.0605873 0.141579 -0.0545098)
(-0.0433264 0.170244 -0.0799909)
(-0.0316031 0.173645 -0.0960073)
(-0.0244298 0.143052 -0.0973784)
(-0.0209415 0.0815918 -0.08359)
(-0.0232472 0.00481719 -0.059329)
(-0.035517 -0.0654002 -0.0329004)
(-0.0590151 -0.112018 -0.0114609)
(-0.0900207 -0.130057 0.00270073)
(-0.122748 -0.124203 0.0113941)
(-0.134126 -0.101852 0.0169267)
(-0.183668 -0.0808913 0.00303522)
(-0.161649 -0.0439507 -0.00886249)
(-0.145497 -0.0058432 -0.0204135)
(-0.117353 0.034561 -0.0343276)
(-0.084608 0.0766103 -0.0508329)
(-0.0516438 0.117006 -0.0679634)
(-0.0214886 0.147229 -0.081897)
(0.00235725 0.154243 -0.0874938)
(0.0170507 0.128041 -0.0801862)
(0.0212281 0.0711046 -0.0593106)
(0.0129106 9.9509e-05 -0.0305901)
(-0.00995663 -0.0628584 -0.00388794)
(-0.0453748 -0.103179 0.013433)
(-0.0871674 -0.118643 0.0199994)
(-0.128536 -0.114465 0.0189444)
(-0.143321 -0.0955764 0.0150779)
(-0.178924 -0.0854879 -0.0113314)
(-0.158797 -0.0598186 -0.030177)
(-0.142107 -0.0299514 -0.0456946)
(-0.111435 0.00470015 -0.0588712)
(-0.0737846 0.0430594 -0.0697055)
(-0.0336123 0.0820294 -0.0773076)
(0.00549139 0.114425 -0.080118)
(0.0385798 0.12847 -0.075409)
(0.0598325 0.112608 -0.059731)
(0.0650965 0.0662732 -0.0326034)
(0.0521265 0.00518689 -0.000584607)
(0.0209822 -0.049048 0.0255833)
(-0.0233304 -0.0839257 0.0387097)
(-0.0726204 -0.0990063 0.0381794)
(-0.119312 -0.0990705 0.0280561)
(-0.137505 -0.0862637 0.015123)
(-0.154698 -0.0871734 -0.017611)
(-0.139536 -0.0739957 -0.0423836)
(-0.123342 -0.0535834 -0.061089)
(-0.0927094 -0.0259914 -0.0735984)
(-0.0538445 0.0074764 -0.0798051)
(-0.0111005 0.0440662 -0.0795853)
(0.0317673 0.0779521 -0.0729949)
(0.0697404 0.0993148 -0.0593676)
(0.0959836 0.0963576 -0.036733)
(0.103775 0.0648413 -0.00512394)
(0.0892629 0.0169993 0.0285413)
(0.0537892 -0.0274092 0.0535186)
(0.00478978 -0.0575693 0.0630344)
(-0.048131 -0.0738796 0.0568056)
(-0.0966399 -0.079941 0.0392775)
(-0.118054 -0.0754064 0.0182698)
(-0.11642 -0.084355 -0.0139182)
(-0.107599 -0.0832006 -0.0431152)
(-0.0930266 -0.0720845 -0.0640876)
(-0.0647693 -0.0516369 -0.0761861)
(-0.0278979 -0.023292 -0.0792883)
(0.0135439 0.0104787 -0.0737057)
(0.05577 0.0448174 -0.0604194)
(0.0941737 0.0716522 -0.0402308)
(0.122509 0.0802964 -0.0128121)
(0.132931 0.0643809 0.0209488)
(0.119652 0.0316376 0.0543978)
(0.0841738 -0.00188592 0.0777682)
(0.0351276 -0.02748 0.084805)
(-0.0172101 -0.0456874 0.0749989)
(-0.0641239 -0.0584604 0.0525501)
(-0.0878158 -0.0635931 0.0253427)
(-0.0704338 -0.0769389 -0.00133411)
(-0.0674505 -0.0858174 -0.0326643)
(-0.055561 -0.0827424 -0.0548082)
(-0.0314663 -0.0686762 -0.0668996)
(0.00114367 -0.045136 -0.0688563)
(0.0387199 -0.0144017 -0.0610758)
(0.0774414 0.0193195 -0.0447471)
(0.112936 0.0491893 -0.021314)
(0.139848 0.0661025 0.00820787)
(0.150841 0.0635264 0.0418509)
(0.13965 0.0456214 0.0737075)
(0.107511 0.0234172 0.0956397)
(0.0628687 0.00272145 0.101883)
(0.0154843 -0.0170733 0.0911777)
(-0.0264359 -0.0362534 0.0669193)
(-0.0503364 -0.0512954 0.0363535)
(-0.0227639 -0.0662219 0.0166884)
(-0.0237614 -0.0819284 -0.0136837)
(-0.015468 -0.084769 -0.0355617)
(0.00327552 -0.0757218 -0.0479604)
(0.0302606 -0.0563436 -0.0508313)
(0.062495 -0.0287552 -0.0444073)
(0.0960514 0.00338849 -0.0293226)
(0.126441 0.0341635 -0.00671506)
(0.148787 0.0558757 0.02178)
(0.157119 0.0629153 0.0533786)
(0.14671 0.0571653 0.082944)
(0.119415 0.0450249 0.104038)
(0.0827753 0.0292255 0.11137)
(0.0445955 0.00881194 0.102686)
(0.0111739 -0.0153901 0.0801691)
(-0.00957859 -0.0391786 0.0500197)
(0.0210455 -0.0543236 0.0352621)
(0.0185288 -0.0728611 0.00941346)
(0.0226423 -0.0787938 -0.0101441)
(0.0354766 -0.0729221 -0.022659)
(0.0562448 -0.0567763 -0.0281956)
(0.0823797 -0.0322202 -0.0265055)
(0.109693 -0.00230579 -0.0169574)
(0.133305 0.0278463 0.000604567)
(0.14859 0.0516697 0.0248808)
(0.151313 0.0643833 0.0527627)
(0.139546 0.0663151 0.0795566)
(0.116851 0.0606415 0.100062)
(0.0901192 0.0482205 0.109642)
(0.0645981 0.0279908 0.105436)
(0.0431324 0.00111477 0.0882766)
(0.0297492 -0.0285347 0.0631843)
(0.0556339 -0.0437761 0.049486)
(0.0538899 -0.0606963 0.0318564)
(0.0539449 -0.0663071 0.0170744)
(0.0611189 -0.0613704 0.00528407)
(0.0758121 -0.0471955 -0.00401457)
(0.0955773 -0.0251763 -0.00981519)
(0.115716 0.00235475 -0.00948993)
(0.130975 0.0310332 -0.000629631)
(0.137263 0.0550135 0.0166811)
(0.132518 0.069677 0.0393318)
(0.118006 0.0739945 0.0625693)
(0.0991768 0.069308 0.0817885)
(0.0825643 0.0564827 0.0932774)
(0.0711718 0.0357799 0.0946308)
(0.0638877 0.00876348 0.0860085)
(0.0617005 -0.0218432 0.0710043)
(0.0759233 -0.0373015 0.0563336)
(0.0763268 -0.0479623 0.0498688)
(0.0735061 -0.049437 0.0423352)
(0.0762975 -0.0428631 0.0322984)
(0.0857918 -0.0290159 0.0186448)
(0.0992611 -0.00849093 0.00340671)
(0.111403 0.0171619 -0.0080614)
(0.116891 0.044074 -0.0103205)
(0.112906 0.0665897 -0.00188315)
(0.100212 0.0795509 0.0141225)
(0.0831715 0.0807046 0.0326138)
(0.0684741 0.0707865 0.04934)
(0.061715 0.0522752 0.0617446)
(0.0636037 0.0285237 0.0686305)
(0.0697611 0.00291511 0.0703824)
(0.0795237 -0.0225746 0.0692431)
(0.0780032 -0.0368824 0.0565373)
(0.0805049 -0.0370558 0.0622175)
(0.0770691 -0.0307029 0.0629592)
(0.0777525 -0.0197661 0.0550689)
(0.083534 -0.0041625 0.036642)
(0.0910988 0.0166629 0.0109848)
(0.0946645 0.0417822 -0.0132798)
(0.0895841 0.067177 -0.0274944)
(0.0753665 0.0864534 -0.0287368)
(0.0560542 0.0935393 -0.020238)
(0.0386373 0.0856035 -0.00716034)
(0.0298769 0.0643673 0.00694467)
(0.0329213 0.0354421 0.0205631)
(0.045387 0.00624295 0.033255)
(0.0607424 -0.0172033 0.0454636)
(0.0780713 -0.0328358 0.0583572)
(0.0605818 -0.0424464 0.0540164)
(0.0641192 -0.0293806 0.0697581)
(0.0625477 -0.0127095 0.0772412)
(0.0637494 0.00481118 0.0705126)
(0.0676049 0.0243031 0.0468872)
(0.0700598 0.0475217 0.0110899)
(0.0652808 0.0736273 -0.0249997)
(0.0501188 0.0974987 -0.0499107)
(0.0275244 0.111188 -0.0599138)
(0.00527857 0.107759 -0.0581782)
(-0.00828503 0.0851388 -0.0491364)
(-0.00865902 0.0481169 -0.0355249)
(0.00308618 0.00696032 -0.0187975)
(0.0214275 -0.0271422 6.9235e-05)
(0.0394817 -0.046857 0.020924)
(0.0568403 -0.0509279 0.0439818)
(0.0259956 -0.0511396 0.0517681)
(0.0296202 -0.0242816 0.073029)
(0.0310242 0.0028177 0.0836839)
(0.0342356 0.0274966 0.0758919)
(0.0373552 0.0518198 0.0464233)
(0.0357327 0.0784298 0.001268)
(0.0242873 0.105895 -0.0450288)
(0.00232718 0.12713 -0.0783503)
(-0.0231718 0.132409 -0.093653)
(-0.0418425 0.114653 -0.0937622)
(-0.0470828 0.0743646 -0.0833301)
(-0.0390051 0.0212262 -0.0660975)
(-0.0227175 -0.0297092 -0.0448528)
(-0.00488459 -0.0651077 -0.0212937)
(0.00939917 -0.0786432 0.00427654)
(0.0209404 -0.0717706 0.0316358)
(-0.0185673 -0.0529184 0.0480589)
(-0.0162899 -0.0151084 0.0703262)
(-0.0141057 0.0211133 0.080997)
(-0.0101586 0.0545636 0.0700781)
(-0.00849712 0.0888447 0.0336295)
(-0.013203 0.127308 -0.0218313)
(-0.0259331 0.164387 -0.0793505)
(-0.0439683 0.183928 -0.11991)
(-0.0604271 0.171133 -0.134177)
(-0.0687346 0.125346 -0.125674)
(-0.0665678 0.0598289 -0.104097)
(-0.0561179 -0.00709837 -0.0781863)
(-0.0422433 -0.0599302 -0.0526713)
(-0.0301592 -0.0899125 -0.0284005)
(-0.023237 -0.0956179 -0.00382564)
(-0.0191237 -0.0815562 0.0219081)
(-0.071765 -0.121378 0.0526477)
(-0.0548068 -0.0704361 0.0573256)
(-0.0418806 -0.0163462 0.0541597)
(-0.0296145 0.0387313 0.0363401)
(-0.0230713 0.0921976 0.00373942)
(-0.02531 0.139243 -0.0354725)
(-0.0352615 0.172667 -0.0691928)
(-0.0487202 0.185366 -0.0894095)
(-0.0611835 0.17229 -0.0951069)
(-0.0695404 0.131638 -0.088782)
(-0.0723753 0.0670374 -0.0730701)
(-0.0707784 -0.00999877 -0.0508691)
(-0.0684434 -0.0814714 -0.0261908)
(-0.068724 -0.130549 -0.0030275)
(-0.0720282 -0.149904 0.0172122)
(-0.070836 -0.14187 0.034039)
(-0.110021 -0.12823 0.0442622)
(-0.0926628 -0.0786433 0.0408715)
(-0.0784268 -0.023837 0.0335897)
(-0.0603593 0.036385 0.016728)
(-0.0448261 0.0990287 -0.0101179)
(-0.0368357 0.1566 -0.0417466)
(-0.0381162 0.196819 -0.0695691)
(-0.0458863 0.207647 -0.0864068)
(-0.0544468 0.183442 -0.0895291)
(-0.0593874 0.127034 -0.0796393)
(-0.0602915 0.0495751 -0.0594919)
(-0.0609322 -0.0312671 -0.0341305)
(-0.0660481 -0.0973383 -0.00986261)
(-0.0771521 -0.137686 0.00945032)
(-0.0919968 -0.151231 0.0236223)
(-0.0971423 -0.141504 0.0336713)
(-0.136946 -0.140171 0.0295228)
(-0.117917 -0.0932855 0.0183713)
(-0.102648 -0.0411776 0.00756962)
(-0.0801889 0.0174517 -0.00757536)
(-0.0567678 0.0798035 -0.0277512)
(-0.0373578 0.138492 -0.0502424)
(-0.0254698 0.180666 -0.069826)
(-0.0220291 0.192489 -0.0806396)
(-0.0240657 0.16736 -0.0787137)
(-0.0278282 0.109392 -0.0634268)
(-0.0329613 0.0318891 -0.0382006)
(-0.0427207 -0.0461815 -0.0104643)
(-0.0597199 -0.107504 0.0118437)
(-0.0825257 -0.143732 0.0250495)
(-0.106991 -0.155458 0.0305882)
(-0.115454 -0.145075 0.0319547)
(-0.146848 -0.148462 0.0124718)
(-0.127682 -0.109177 -0.00564485)
(-0.11159 -0.0638389 -0.0198957)
(-0.085889 -0.0106367 -0.0336517)
(-0.0562208 0.0482171 -0.0476707)
(-0.0269609 0.106613 -0.0608967)
(-0.00233282 0.152851 -0.0708774)
(0.0132204 0.171697 -0.0736946)
(0.0180682 0.152967 -0.0650799)
(0.014136 0.0993886 -0.0434143)
(0.00256815 0.0258653 -0.0129337)
(-0.0178112 -0.0472139 0.0166201)
(-0.0465234 -0.103677 0.036022)
(-0.0793612 -0.137486 0.0421588)
(-0.110823 -0.150158 0.0381087)
(-0.121467 -0.142308 0.0299849)
(-0.139389 -0.153652 -0.00265402)
(-0.122252 -0.124848 -0.0268691)
(-0.105768 -0.0884958 -0.0444902)
(-0.0785248 -0.0429593 -0.0574665)
(-0.0454621 0.0101129 -0.0664651)
(-0.0103464 0.0661872 -0.0714271)
(0.0228073 0.115949 -0.0718722)
(0.0481651 0.144944 -0.0658901)
(0.0601136 0.139196 -0.049741)
(0.0571735 0.0965889 -0.0213634)
(0.0404983 0.0312014 0.0140549)
(0.0112579 -0.0355191 0.0447877)
(-0.0267707 -0.0882069 0.0608663)
(-0.066858 -0.122142 0.059924)
(-0.102459 -0.138637 0.046435)
(-0.114941 -0.136377 0.0286694)
(-0.117578 -0.154401 -0.0120959)
(-0.104062 -0.13735 -0.0414741)
(-0.0878974 -0.110737 -0.0621433)
(-0.061088 -0.0735832 -0.074871)
(-0.0278066 -0.0271633 -0.0801483)
(0.00870691 0.0252577 -0.0784308)
(0.0450093 0.0767001 -0.0704607)
(0.075815 0.115077 -0.0560414)
(0.0940717 0.124994 -0.0325785)
(0.0944187 0.0983214 0.00178134)
(0.0759098 0.0450297 0.0409663)
(0.0412979 -0.0140617 0.0720478)
(-0.00251764 -0.0638826 0.0848264)
(-0.0466029 -0.0999287 0.0776266)
(-0.0835479 -0.122365 0.0558792)
(-0.0975418 -0.12822 0.0291129)
(-0.085867 -0.149562 -0.0133268)
(-0.0763999 -0.144212 -0.0466501)
(-0.0613179 -0.127006 -0.0698236)
(-0.0366395 -0.0978029 -0.0828295)
(-0.005691 -0.0577012 -0.0859117)
(0.0287827 -0.00913823 -0.0796207)
(0.0638416 0.0424984 -0.0652179)
(0.0953465 0.087452 -0.0437029)
(0.117083 0.111255 -0.0140412)
(0.12164 0.101884 0.0245817)
(0.104633 0.0633813 0.0656745)
(0.0686933 0.0133923 0.0961516)
(0.0231218 -0.033705 0.106152)
(-0.0214829 -0.0727989 0.0943688)
(-0.0571553 -0.102235 0.0665765)
(-0.0718535 -0.117878 0.0325844)
(-0.0487063 -0.139268 -0.00583293)
(-0.0426302 -0.144347 -0.0413285)
(-0.0293789 -0.13537 -0.066269)
(-0.00812101 -0.112982 -0.0801864)
(0.0187491 -0.0782679 -0.0829889)
(0.0490085 -0.0332834 -0.0749149)
(0.0800668 0.0175204 -0.0570581)
(0.108694 0.0659764 -0.0309194)
(0.130209 0.09947 0.00298971)
(0.137358 0.105249 0.0438289)
(0.123393 0.0821586 0.0849076)
(0.089677 0.0425645 0.114145)
(0.0463836 -0.00116799 0.122491)
(0.00487641 -0.0431237 0.108619)
(-0.026914 -0.0795667 0.0779558)
(-0.0406976 -0.105564 0.0398327)
(-0.0102255 -0.124955 0.00859871)
(-0.00619998 -0.138001 -0.0265753)
(0.00450716 -0.135262 -0.0522472)
(0.0214666 -0.118007 -0.0676851)
(0.043207 -0.0875166 -0.0723701)
(0.0679946 -0.045716 -0.0658163)
(0.0934763 0.00346414 -0.0483027)
(0.116892 0.0528179 -0.0210999)
(0.134786 0.0915221 0.0141958)
(0.141293 0.10811 0.0550249)
(0.129667 0.0985358 0.0945768)
(0.100407 0.0694258 0.122454)
(0.0630619 0.029832 0.130728)
(0.0283547 -0.0139711 0.117765)
(0.00321777 -0.0564485 0.0882007)
(-0.00709552 -0.0920458 0.0502931)
(0.0254452 -0.109024 0.0260984)
(0.0290629 -0.126473 -0.00551798)
(0.0366912 -0.127149 -0.0303174)
(0.0488774 -0.112857 -0.0475129)
(0.0650286 -0.0852231 -0.0560664)
(0.0837155 -0.046134 -0.0543547)
(0.10257 0.000815383 -0.0412278)
(0.119008 0.0490776 -0.0170386)
(0.130414 0.0892989 0.0162072)
(0.132765 0.111797 0.0546001)
(0.121432 0.111557 0.0912856)
(0.0974053 0.0907835 0.117649)
(0.0688828 0.0551083 0.127156)
(0.0445182 0.0105694 0.118036)
(0.0289706 -0.0361245 0.0938244)
(0.0252503 -0.0789789 0.0613949)
(0.0539235 -0.0945133 0.0417417)
(0.0586143 -0.111908 0.0174501)
(0.0631211 -0.11237 -0.00419919)
(0.0706877 -0.0983825 -0.0227158)
(0.0814034 -0.0719352 -0.0365314)
(0.0937631 -0.0348731 -0.0424864)
(0.105076 0.00955264 -0.0373565)
(0.112834 0.0553696 -0.0199362)
(0.115303 0.0943318 0.00792469)
(0.110693 0.118161 0.0414332)
(0.0976513 0.121686 0.0736962)
(0.0787869 0.104608 0.0976926)
(0.0608839 0.070475 0.108651)
(0.0495727 0.0253323 0.105355)
(0.0460478 -0.0232904 0.0903785)
(0.0515668 -0.0691968 0.0688567)
(0.0707944 -0.0846884 0.0517283)
(0.0773967 -0.0970304 0.0380326)
(0.0795921 -0.0930821 0.0220068)
(0.0835183 -0.0763221 0.00319718)
(0.0895849 -0.0490229 -0.016497)
(0.095731 -0.0128807 -0.032027)
(0.0986972 0.0292362 -0.0374299)
(0.0962187 0.071838 -0.0294588)
(0.0879925 0.107393 -0.00954019)
(0.0750646 0.128336 0.0169315)
(0.0597021 0.129454 0.0431173)
(0.0462704 0.109659 0.0635675)
(0.0398938 0.0724898 0.0755756)
(0.0425072 0.0253276 0.0789753)
(0.051392 -0.0230489 0.0756498)
(0.0664018 -0.0662952 0.0687229)
(0.0724752 -0.0818812 0.0555077)
(0.080836 -0.0844662 0.0536376)
(0.082387 -0.0720841 0.0447048)
(0.0844885 -0.0493652 0.0265948)
(0.087263 -0.0187111 0.00108974)
(0.0876641 0.018382 -0.0247192)
(0.0818357 0.0592267 -0.041606)
(0.0683639 0.0984276 -0.0440637)
(0.0493226 0.128507 -0.0333281)
(0.0291038 0.141996 -0.0151825)
(0.0131674 0.133999 0.00420503)
(0.00658081 0.104509 0.0211769)
(0.0117271 0.0593501 0.0347366)
(0.02639 0.00859103 0.0451691)
(0.0446883 -0.0374602 0.0534861)
(0.0655012 -0.0726016 0.0609594)
(0.0575359 -0.0864378 0.0556754)
(0.0667364 -0.0760101 0.0636283)
(0.0695184 -0.0525042 0.0610857)
(0.0720011 -0.0213077 0.043893)
(0.0732683 0.0151453 0.0131684)
(0.06896 0.0553061 -0.0221875)
(0.0547901 0.0960255 -0.0496257)
(0.0309996 0.131341 -0.0616211)
(0.0031983 0.153313 -0.059431)
(-0.0204962 0.154504 -0.0488052)
(-0.0329254 0.13135 -0.0345525)
(-0.0307836 0.0870363 -0.0188014)
(-0.0158677 0.0315178 -0.002178)
(0.00600395 -0.0222269 0.0148547)
(0.0278177 -0.0634456 0.0322208)
(0.0481579 -0.0872501 0.0498836)
(0.0278182 -0.0965989 0.0544612)
(0.0370818 -0.07185 0.0676186)
(0.0419087 -0.036751 0.0688317)
(0.045962 0.00346338 0.0519757)
(0.0468462 0.0464268 0.0169544)
(0.0391756 0.0901163 -0.0265653)
(0.0186889 0.130367 -0.0633664)
(-0.012046 0.160185 -0.0834656)
(-0.0432164 0.171204 -0.0869678)
(-0.0640147 0.156738 -0.0791249)
(-0.068694 0.11603 -0.0645634)
(-0.0581723 0.0567225 -0.0460166)
(-0.0381252 -0.00715363 -0.0253043)
(-0.01574 -0.0608866 -0.00378702)
(0.00321174 -0.094856 0.0180806)
(0.018077 -0.106722 0.0399136)
(-0.00882893 -0.0983272 0.0492327)
(-0.000685563 -0.0638715 0.0630331)
(0.00350629 -0.0206239 0.0660102)
(0.00655127 0.0289593 0.0495993)
(0.0050337 0.0839814 0.0115636)
(-0.00529632 0.141202 -0.0392539)
(-0.0256929 0.190296 -0.0856451)
(-0.0514359 0.215684 -0.113099)
(-0.0736747 0.206275 -0.117836)
(-0.0851346 0.162666 -0.104909)
(-0.0835544 0.0960465 -0.0821134)
(-0.0714108 0.0225488 -0.0561973)
(-0.053923 -0.0424408 -0.0314588)
(-0.0367522 -0.0884995 -0.0093403)
(-0.024015 -0.111652 0.0110998)
(-0.0153827 -0.113473 0.0308508)
(-0.0435173 -0.166464 0.0577874)
(-0.0259074 -0.119352 0.0552129)
(-0.0142563 -0.0590519 0.0466412)
(-0.0062179 0.00892829 0.0272672)
(-0.00622123 0.0769997 -0.00252321)
(-0.0166471 0.135543 -0.0354684)
(-0.0346877 0.175856 -0.0617472)
(-0.0541889 0.192793 -0.0758156)
(-0.0698693 0.183865 -0.0777141)
(-0.078899 0.14831 -0.0694698)
(-0.0803259 0.0885166 -0.0526616)
(-0.0750663 0.0126302 -0.0293874)
(-0.0666526 -0.0649869 -0.0038858)
(-0.0592292 -0.127794 0.0188429)
(-0.0548064 -0.164716 0.0361358)
(-0.0497837 -0.172512 0.0477691)
(-0.0728951 -0.170288 0.049167)
(-0.0579923 -0.125661 0.0412376)
(-0.0457506 -0.0678049 0.0315118)
(-0.0314617 0.00210996 0.0152724)
(-0.0202761 0.0783257 -0.00815923)
(-0.0176148 0.149077 -0.0348021)
(-0.0256114 0.198869 -0.0576106)
(-0.0404004 0.21597 -0.0705433)
(-0.0546675 0.197023 -0.0712084)
(-0.063015 0.145764 -0.0599819)
(-0.064269 0.07166 -0.039017)
(-0.0615129 -0.0107439 -0.0129887)
(-0.0595969 -0.0850864 0.011505)
(-0.0616705 -0.138843 0.0295353)
(-0.0676414 -0.167351 0.0403452)
(-0.0694698 -0.170417 0.045746)
(-0.0936337 -0.183916 0.0349268)
(-0.0789527 -0.141251 0.0206925)
(-0.0659199 -0.0868503 0.00916467)
(-0.0475095 -0.0202998 -0.0040092)
(-0.0280443 0.0540742 -0.0202271)
(-0.0126335 0.126075 -0.0381739)
(-0.00610583 0.179675 -0.05411)
(-0.0097274 0.199673 -0.0628542)
(-0.0189726 0.180621 -0.0601385)
(-0.0280059 0.127595 -0.0446428)
(-0.0347337 0.0524043 -0.0190609)
(-0.0413475 -0.0288031 0.00936722)
(-0.0510065 -0.0995298 0.0319619)
(-0.064298 -0.14939 0.0438408)
(-0.0790156 -0.175406 0.0460311)
(-0.0842534 -0.17686 0.0428762)
(-0.101825 -0.191715 0.0170164)
(-0.0876417 -0.15571 -0.00333308)
(-0.0737505 -0.108909 -0.0174696)
(-0.0524084 -0.0498189 -0.0288245)
(-0.0270493 0.0188661 -0.0389331)
(-0.0016028 0.0896832 -0.0479993)
(0.0186152 0.148612 -0.0549476)
(0.0278727 0.177932 -0.0565674)
(0.0250697 0.166605 -0.0481193)
(0.0146038 0.117714 -0.0268579)
(0.000334675 0.0450912 0.0039414)
(-0.017397 -0.0328935 0.0344446)
(-0.0388385 -0.0999368 0.0542889)
(-0.061908 -0.147274 0.059032)
(-0.0829367 -0.173127 0.0515357)
(-0.0899133 -0.175954 0.0386886)
(-0.0976929 -0.195013 -0.00107649)
(-0.0847143 -0.168262 -0.0269845)
(-0.070091 -0.130894 -0.0442195)
(-0.0471639 -0.0811244 -0.0549835)
(-0.0187736 -0.0203577 -0.0606067)
(0.0120933 0.0465408 -0.0619731)
(0.0409539 0.10901 -0.0596851)
(0.0607175 0.150165 -0.0525633)
(0.065235 0.153469 -0.0365412)
(0.0549979 0.115609 -0.00833293)
(0.0346341 0.0497451 0.0278999)
(0.00740301 -0.023679 0.0600308)
(-0.0236138 -0.0880285 0.0765179)
(-0.0538034 -0.135298 0.0738659)
(-0.0785275 -0.163793 0.0566327)
(-0.0863777 -0.170962 0.0338213)
(-0.083431 -0.193102 -0.0154302)
(-0.072006 -0.176835 -0.0460281)
(-0.0570063 -0.149371 -0.0662632)
(-0.0340563 -0.109157 -0.0771894)
(-0.00559372 -0.0567272 -0.0797633)
(0.0259975 0.00492262 -0.0750368)
(0.0573251 0.0683076 -0.0644835)
(0.0824525 0.119487 -0.04854)
(0.0935189 0.139876 -0.0244752)
(0.0863275 0.118448 0.0106114)
(0.0634518 0.0636141 0.0514921)
(0.030202 -0.00381833 0.0842957)
(-0.00697559 -0.0662808 0.0971525)
(-0.0411815 -0.115447 0.0876185)
(-0.0670525 -0.148708 0.0616476)
(-0.075063 -0.16259 0.0296109)
(-0.0617789 -0.185406 -0.0226371)
(-0.0516906 -0.179867 -0.0566752)
(-0.0367746 -0.161912 -0.0793662)
(-0.0152458 -0.130437 -0.0909723)
(0.0108378 -0.0854361 -0.0919579)
(0.0395734 -0.028763 -0.0831386)
(0.0684724 0.0340438 -0.0661735)
(0.0934345 0.0918123 -0.0425406)
(0.107875 0.12696 -0.0111994)
(0.105032 0.123494 0.0294367)
(0.0834765 0.0828003 0.0731086)
(0.0484374 0.0231339 0.105339)
(0.00902109 -0.0374665 0.114666)
(-0.0259355 -0.0894747 0.0996047)
(-0.050553 -0.12867 0.0670245)
(-0.0577684 -0.150877 0.0277818)
(-0.0352586 -0.172511 -0.0209096)
(-0.0258874 -0.176994 -0.0567308)
(-0.0116321 -0.167407 -0.0811705)
(0.00721083 -0.143174 -0.094097)
(0.0290504 -0.104099 -0.0953388)
(0.0525294 -0.0514971 -0.0850677)
(0.075939 0.0100736 -0.0644838)
(0.0967508 0.071196 -0.0354496)
(0.110626 0.116423 0.00140904)
(0.110951 0.12867 0.045614)
(0.0929608 0.103232 0.0900105)
(0.0599599 0.0530911 0.120654)
(0.0222063 -0.0048225 0.127144)
(-0.0102072 -0.0596066 0.108785)
(-0.0312203 -0.105041 0.072772)
(-0.0361685 -0.136387 0.0296721)
(-0.00635796 -0.156084 -0.0107841)
(0.0030578 -0.168814 -0.0463022)
(0.0159537 -0.165622 -0.0717355)
(0.0310706 -0.146576 -0.0867692)
(0.0473639 -0.11169 -0.0904801)
(0.0640894 -0.0621909 -0.0818981)
(0.0802491 -0.00226026 -0.0612261)
(0.0945073 0.0596263 -0.0300969)
(0.104505 0.110094 0.00958578)
(0.10524 0.133541 0.0550928)
(0.090912 0.121961 0.0985007)
(0.0626733 0.0821649 0.127155)
(0.030179 0.0280478 0.132145)
(0.00362751 -0.0287468 0.113382)
(-0.0113473 -0.0800337 0.0779308)
(-0.0119847 -0.120443 0.0354224)
(0.0219877 -0.138667 0.00483178)
(0.0321941 -0.156624 -0.0278073)
(0.0430498 -0.156927 -0.0532175)
(0.0537486 -0.140487 -0.0710155)
(0.0638062 -0.107899 -0.0792946)
(0.0729573 -0.0606041 -0.0755443)
(0.0807751 -0.00267997 -0.0584884)
(0.086864 0.057948 -0.0290526)
(0.0903995 0.109616 0.0100739)
(0.0884265 0.139082 0.0543065)
(0.0763349 0.137613 0.0951957)
(0.054338 0.107001 0.121737)
(0.030291 0.0570704 0.126775)
(0.012933 -0.00082544 0.110786)
(0.00647869 -0.0569989 0.0802673)
(0.0124774 -0.105169 0.0433902)
(0.046161 -0.123242 0.0214234)
(0.0578178 -0.142289 -0.00526125)
(0.0662415 -0.142319 -0.0291247)
(0.072431 -0.125405 -0.0497447)
(0.0762483 -0.0930282 -0.064105)
(0.077552 -0.0469851 -0.0677698)
(0.0762532 0.00869212 -0.0575452)
(0.0728047 0.0665405 -0.0333471)
(0.0677947 0.116269 0.00176295)
(0.0604927 0.146827 0.0418885)
(0.0488627 0.150077 0.078453)
(0.0336591 0.12491 0.102375)
(0.0205578 0.0776989 0.108599)
(0.0153246 0.0189505 0.0982537)
(0.0195535 -0.0405885 0.0768032)
(0.0338811 -0.0935911 0.0504526)
(0.0622927 -0.112872 0.0349441)
(0.0755991 -0.128137 0.0170089)
(0.0818706 -0.123551 -0.00342876)
(0.0842641 -0.102738 -0.0261739)
(0.0825985 -0.0682127 -0.0472145)
(0.0763293 -0.0222084 -0.0599053)
(0.0654861 0.0312893 -0.0587399)
(0.0514953 0.0852905 -0.0424315)
(0.0366485 0.130584 -0.0142867)
(0.0227334 0.157695 0.0190308)
(0.0107495 0.159371 0.0493633)
(0.00266824 0.133601 0.0699335)
(0.00191184 0.0853136 0.0780831)
(0.0102532 0.0248841 0.0754661)
(0.0257387 -0.0359633 0.0659824)
(0.0481572 -0.0890992 0.0534129)
(0.0669214 -0.109809 0.0436674)
(0.0814286 -0.116532 0.0357155)
(0.0865526 -0.103189 0.0201871)
(0.0866953 -0.0750418 -0.00349243)
(0.0810716 -0.0356451 -0.0308344)
(0.0681571 0.0121714 -0.0529586)
(0.0480031 0.0642399 -0.0617291)
(0.0234798 0.113821 -0.0546179)
(-0.000827605 0.152329 -0.035235)
(-0.020403 0.171219 -0.0105019)
(-0.0316125 0.164355 0.0127179)
(-0.0318815 0.130818 0.0302549)
(-0.0205147 0.0766782 0.0413746)
(2.63e-06 0.0135288 0.047447)
(0.0243988 -0.0460514 0.0503652)
(0.0515601 -0.0938521 0.051526)
(0.0581317 -0.114727 0.0485521)
(0.0728493 -0.109396 0.049158)
(0.0781392 -0.0844699 0.0387089)
(0.0780957 -0.0463158 0.0152686)
(0.0707988 0.000570896 -0.0171488)
(0.053169 0.0522004 -0.0479207)
(0.0250553 0.103546 -0.0661532)
(-0.0086991 0.147734 -0.0680174)
(-0.0403393 0.176625 -0.0573381)
(-0.0624124 0.182521 -0.0406924)
(-0.0699035 0.161059 -0.0230195)
(-0.0615651 0.114263 -0.00637597)
(-0.0403189 0.051396 0.00895592)
(-0.0121779 -0.0140099 0.0230159)
(0.0159267 -0.069336 0.0357865)
(0.0422858 -0.107491 0.0470306)
(0.0366575 -0.127191 0.0510128)
(0.050811 -0.107958 0.0563529)
(0.0569954 -0.0705246 0.0497348)
(0.0581424 -0.0216215 0.0274992)
(0.0511483 0.0334504 -0.00799446)
(0.0314006 0.0890854 -0.0460532)
(-0.00179153 0.138895 -0.0734164)
(-0.0415094 0.175781 -0.0838367)
(-0.0761114 0.192286 -0.0797883)
(-0.0957537 0.182166 -0.0669928)
(-0.0965033 0.143885 -0.0497601)
(-0.0805812 0.0833117 -0.0303802)
(-0.0542753 0.0129677 -0.0103283)
(-0.0250776 -0.0523488 0.00908029)
(0.000722909 -0.10099 0.0269805)
(0.0216025 -0.127811 0.0427259)
(0.00896119 -0.128669 0.0484122)
(0.0220046 -0.100942 0.0543361)
(0.0271921 -0.0567654 0.0507426)
(0.0270981 0.000835966 0.0317)
(0.0185252 0.06856 -0.00365185)
(-0.00208758 0.138939 -0.046774)
(-0.0334805 0.198123 -0.0830928)
(-0.0676671 0.230313 -0.101862)
(-0.0941551 0.226181 -0.10149)
(-0.10598 0.186931 -0.0866654)
(-0.101963 0.122381 -0.0636239)
(-0.08549 0.0467692 -0.0378969)
(-0.0623312 -0.025228 -0.0136579)
(-0.0384885 -0.0824135 0.00689113)
(-0.0186176 -0.118797 0.0237654)
(-0.00395421 -0.133619 0.0377613)
(-0.00134494 -0.181327 0.0619787)
(0.0151868 -0.145543 0.0572455)
(0.0227283 -0.0874862 0.0466931)
(0.0233381 -0.0152321 0.0280997)
(0.0137223 0.0596938 0.00244888)
(-0.00713537 0.123701 -0.0242152)
(-0.0343151 0.166924 -0.0445487)
(-0.0599343 0.185851 -0.0550921)
(-0.078262 0.180195 -0.0562979)
(-0.086903 0.150446 -0.0492587)
(-0.0854831 0.0985365 -0.0342998)
(-0.0751274 0.0299266 -0.0124806)
(-0.0589831 -0.0449889 0.0123179)
(-0.0415947 -0.112402 0.0346651)
(-0.0269449 -0.160202 0.0505092)
(-0.0150265 -0.18187 0.0587277)
(-0.0255153 -0.181681 0.0513712)
(-0.0138781 -0.147699 0.043536)
(-0.00583018 -0.0938859 0.0347346)
(0.00224457 -0.0229043 0.021763)
(0.00683462 0.0577354 0.00355859)
(0.00271595 0.133537 -0.0174646)
(-0.0122041 0.187066 -0.0360691)
(-0.0331058 0.207378 -0.0471442)
(-0.0516271 0.193287 -0.048117)
(-0.0619573 0.149339 -0.0385107)
(-0.0625696 0.0833923 -0.0195852)
(-0.0557081 0.00655478 0.00464767)
(-0.046006 -0.0677238 0.0277996)
(-0.0379718 -0.127355 0.0441396)
(-0.0338064 -0.165369 0.0521353)
(-0.0305581 -0.179476 0.0534907)
(-0.043834 -0.193919 0.0366104)
(-0.0338996 -0.160983 0.0233826)
(-0.0249832 -0.111052 0.0140443)
(-0.0123669 -0.0450625 0.00517181)
(0.00173841 0.0319646 -0.00529686)
(0.0125404 0.108546 -0.0176181)
(0.0142345 0.16702 -0.0297867)
(0.00514465 0.191705 -0.037489)
(-0.00928767 0.178282 -0.0360297)
(-0.0218724 0.132507 -0.0229634)
(-0.0292016 0.0646039 5.03173e-05)
(-0.0322869 -0.0125752 0.0264535)
(-0.0343637 -0.0847584 0.0473751)
(-0.0377994 -0.140916 0.0570451)
(-0.0426265 -0.175615 0.055875)
(-0.0439603 -0.186959 0.0483258)
(-0.0544894 -0.199059 0.0168828)
(-0.0453767 -0.171269 -0.00221111)
(-0.0353166 -0.129221 -0.0136676)
(-0.019435 -0.072362 -0.0205661)
(0.000966301 -0.00319264 -0.0251152)
(0.0226194 0.0707787 -0.0287442)
(0.0394191 0.13486 -0.0318493)
(0.0444089 0.17026 -0.0322968)
(0.0364863 0.165499 -0.0251839)
(0.0216591 0.123634 -0.00656899)
(0.00586204 0.0570183 0.0215438)
(-0.00894453 -0.0186875 0.0500191)
(-0.0232443 -0.0883844 0.0678856)
(-0.0369394 -0.141799 0.0698357)
(-0.0484353 -0.174809 0.0583939)
(-0.0520201 -0.185764 0.0407125)
(-0.0575452 -0.199159 -0.0050345)
(-0.0487727 -0.178789 -0.0296208)
(-0.0374248 -0.146207 -0.0440082)
(-0.0193902 -0.0999329 -0.0505842)
(0.00431247 -0.0405505 -0.0512872)
(0.0314286 0.0277863 -0.047806)
(0.0571633 0.0946698 -0.0417044)
(0.0733787 0.142402 -0.0327806)
(0.0732038 0.153031 -0.0172368)
(0.0582581 0.122022 0.00904838)
(0.0357153 0.0608758 0.0430948)
(0.010817 -0.0118433 0.0732559)
(-0.0135617 -0.0796049 0.0873203)
(-0.0347589 -0.132233 0.0810408)
(-0.0502646 -0.16601 0.0591317)
(-0.0545771 -0.179176 0.0311473)
(-0.0538747 -0.194168 -0.0249854)
(-0.0448356 -0.182507 -0.0539806)
(-0.0322273 -0.159813 -0.0711771)
(-0.013337 -0.124007 -0.0781801)
(0.0107409 -0.0742634 -0.0764767)
(0.038227 -0.0124761 -0.0675827)
(0.0657387 0.0543619 -0.0534353)
(0.0868579 0.111786 -0.0350759)
(0.0931007 0.1396 -0.0102259)
(0.0809486 0.124732 0.0242456)
(0.0554996 0.0735151 0.0637487)
(0.0242828 0.00551638 0.0945978)
(-0.00645993 -0.0606494 0.104271)
(-0.0318032 -0.114096 0.0900287)
(-0.0486102 -0.150602 0.0586009)
(-0.0523855 -0.168101 0.021348)
(-0.0442878 -0.184056 -0.0387293)
(-0.0342431 -0.181755 -0.070527)
(-0.0205876 -0.168661 -0.0897793)
(-0.00225841 -0.142246 -0.0975065)
(0.0195356 -0.100648 -0.0946189)
(0.0433824 -0.0444449 -0.0821434)
(0.0670873 0.0212844 -0.0618399)
(0.0866174 0.0847879 -0.0353929)
(0.0952737 0.126861 -0.00213872)
(0.0870202 0.129267 0.0391938)
(0.0628057 0.0911611 0.0822708)
(0.0299546 0.0300377 0.112322)
(-0.0028066 -0.0342003 0.117396)
(-0.0286931 -0.0892093 0.0963929)
(-0.0441503 -0.129652 0.0576685)
(-0.0460564 -0.153072 0.0135516)
(-0.0293039 -0.169837 -0.0432165)
(-0.0176264 -0.17681 -0.0760292)
(-0.00344755 -0.172271 -0.0965431)
(0.0127744 -0.15341 -0.105499)
(0.0299125 -0.117855 -0.103056)
(0.0471392 -0.0656189 -0.0893839)
(0.0634506 -0.00106256 -0.0655754)