/*--------------------------------*- C++ -*----------------------------------*\
| =========                 |                                                 |
| \\      /  F ield         | OpenFOAM: The Open Source CFD Toolbox           |
|  \\    /   O peration     | Version:  3.0.0                                 |
|   \\  /    A nd           | Web:      www.OpenFOAM.org                      |
|    \\/     M anipulation  |                                                 |
\*---------------------------------------------------------------------------*/
FoamFile
{
    version     2.0;
    format      ascii;
    class       surfaceScalarField;
    location    "3.5";
    object      phi;
}
// * * * * * * * * * * * * * * * * * * * * * * * * * * * * * * * * * * * * * //

dimensions      [0 3 -1 0 0 0 0];

internalField   nonuniform List<scalar> 
11520
(
-0.000217151
-0.000455609
0.000233578
-0.000135125
-0.000291933
0.000227875
-6.60138e-05
-0.000105483
0.000200449
-2.53222e-05
0.000105183
0.000133094
-2.24549e-05
0.000330203
2.56547e-05
-5.52688e-05
0.000542288
-9.80343e-05
-0.000113429
0.000694294
-0.000202165
-0.000184887
0.000738059
-0.000262694
-0.000258087
0.000651358
-0.000275445
-0.000321235
0.000448793
-0.000245927
-0.000365237
0.000176338
-0.000181657
-0.000387771
-0.000103175
-9.46432e-05
-0.000391944
-0.000331945
-2.33683e-06
-0.000378967
-0.000476709
7.81569e-05
-0.000347867
-0.000532431
0.000140572
-0.000508028
0.000183913
-0.000361587
-0.000492019
0.000183521
-0.000289682
-0.000332538
0.000155432
-0.000216738
-0.000145196
0.000119507
-0.000160188
7.48877e-05
5.95767e-05
-0.000133452
0.000315126
-2.66696e-05
-0.00014225
0.00054296
-0.000125103
-0.000182048
0.000704807
-0.000209922
-0.000238302
0.000747343
-0.000257561
-0.000293295
0.00064902
-0.000257806
-0.000335791
0.000431652
-0.000213009
-0.000365704
0.000150431
-0.000134765
-0.000389856
-0.000127286
-4.2831e-05
-0.000412483
-0.000347832
4.06187e-05
-0.000429094
-0.000486059
0.000101726
-0.000431583
-0.000541975
0.000139501
-0.000520081
0.000159172
-0.000459123
-0.000512872
0.00010078
-0.000398031
-0.000372323
5.34412e-05
-0.000326726
-0.000196467
1.29824e-05
-0.000260877
1.99309e-05
-3.44754e-05
-0.000212465
0.000262882
-9.33975e-05
-0.000188916
0.000498536
-0.000157938
-0.000191771
0.000671107
-0.000212352
-0.000214623
0.000722498
-0.000236634
-0.000246336
0.000627958
-0.000217669
-0.000279742
0.000412856
-0.000156134
-0.000315904
0.000138814
-6.71411e-05
-0.000359151
-0.000125461
2.36959e-05
-0.000407955
-0.000332306
9.15432e-05
-0.000452654
-0.000464707
0.00012508
-0.000481711
-0.000524785
0.000129666
-0.000510142
0.000119697
-0.000493364
-0.000517155
5.31727e-06
-0.00044415
-0.000406819
-5.68519e-05
-0.000376798
-0.000253046
-0.000100029
-0.000303972
-5.25412e-05
-0.000134061
-0.000235426
0.000180421
-0.000164361
-0.000179535
0.000413937
-0.00019131
-0.000144021
0.000595328
-0.000208623
-0.000133135
0.00066532
-0.000202998
-0.000144943
0.000592832
-0.000161779
-0.000175211
0.000399091
-8.4255e-05
-0.00022273
0.000146956
1.22146e-05
-0.000286548
-9.58406e-05
9.77077e-05
-0.000359637
-0.000287453
0.000145827
-0.000428098
-0.000416471
0.000148382
-0.000478426
-0.000485002
0.00011677
-0.000483829
7.47983e-05
-0.000458502
-0.000503563
-8.14554e-05
-0.000421572
-0.000430077
-0.000156168
-0.000360165
-0.000305784
-0.000201609
-0.000284457
-0.000130549
-0.000223476
-0.000202514
8.23275e-05
-0.000227757
-0.000123095
0.000304976
-0.000219081
-5.78627e-05
0.000491179
-0.000198822
-1.9597e-05
0.000584633
-0.000161291
-1.42102e-05
0.00054701
-9.73787e-05
-4.15115e-05
0.000390149
-5.68046e-06
-9.77541e-05
0.00017153
9.54354e-05
-0.000176942
-4.38632e-05
0.000173113
-0.000267692
-0.000219073
0.000200616
-0.000353275
-0.000346367
0.000172838
-0.000418408
-0.00042646
0.000106316
-0.00044563
3.20386e-05
-0.000360416
-0.000471164
-0.000142896
-0.000335364
-0.000435674
-0.000228484
-0.000282766
-0.000344466
-0.000276285
-0.000210694
-0.000199737
-0.000288946
-0.000126014
-1.31517e-05
-0.000272633
-3.69699e-05
0.000191969
-0.000234659
4.42366e-05
0.000376672
-0.000181759
0.000101547
0.000490595
-0.000115361
0.000121456
0.000492169
-3.08104e-05
0.000100119
0.000381009
7.20468e-05
4.18352e-05
0.000204126
0.00017464
-4.39374e-05
2.09267e-05
0.000243653
-0.000142788
-0.000136091
0.000252711
-0.000236578
-0.000261598
0.000199067
-0.000308657
-0.000354325
0.000102918
-0.000399215
-1.37151e-06
-0.000215
-0.000423025
-0.000167683
-0.000200148
-0.000421113
-0.000262445
-0.000158584
-0.000361929
-0.000313033
-9.64324e-05
-0.000248318
-0.000320733
-1.94655e-05
-8.99974e-05
-0.000291481
6.51823e-05
9.37758e-05
-0.000233633
0.000146835
0.000270627
-0.000156966
0.000210306
0.000397038
-6.83037e-05
0.000240144
0.000432484
3.13879e-05
0.000227035
0.000366736
0.000140687
0.000174151
0.000234744
0.000241278
9.22502e-05
8.66522e-05
0.000301789
-3.0997e-06
-5.02069e-05
0.00029722
-9.40794e-05
-0.000172033
0.000225934
-0.00016392
-0.000275935
0.000109463
-0.000348704
-1.79221e-05
-4.37288e-05
-0.000366372
-0.000153334
-3.59522e-05
-0.000388791
-0.000253425
-6.13427e-06
-0.000355947
-0.000306878
4.1762e-05
-0.000269626
-0.000314794
0.000103403
-0.000137704
-0.000282154
0.000172967
2.39139e-05
-0.000216404
0.000241871
0.000188319
-0.000127878
0.000298193
0.000318092
-2.67328e-05
0.000327786
0.000376153
8.12521e-05
0.000320261
0.000347859
0.000190709
0.000276625
0.000256578
0.000285496
0.000207655
0.000141777
0.000338252
0.000128023
2.52498e-05
0.000326761
5.25683e-05
-9.02348e-05
0.00024921
-4.16503e-06
-0.000201653
0.000125485
-0.000298792
-1.33416e-05
0.00012944
-0.000310642
-0.000106472
0.000134466
-0.000345276
-0.00020445
0.000153672
-0.000329034
-0.000259537
0.000185668
-0.000262277
-0.000272865
0.000227982
-0.000151559
-0.000247269
0.000275973
-1.00265e-05
-0.000187057
0.000322879
0.0001398
-0.000100439
0.000360282
0.000265627
1.33493e-06
0.000377752
0.000334579
0.000108767
0.000367549
0.000330751
0.000212517
0.000331132
0.000268899
0.000297952
0.000279558
0.000178678
0.000343686
0.00022564
7.7755e-05
0.000332199
0.000178736
-3.07201e-05
0.000261031
0.000146509
-0.000144022
0.000145874
-0.000256545
1.25508e-05
0.000279919
-0.000266533
-4.01609e-05
0.000287594
-0.000299673
-0.000125582
0.000299314
-0.000287092
-0.00017903
0.00031662
-0.000229129
-0.000201472
0.000339031
-0.000131673
-0.000192452
0.000362674
-5.5833e-06
-0.000150832
0.00038187
0.000130267
-8.00036e-05
0.000391675
0.000247834
9.62454e-06
0.000386272
0.00031733
0.00010767
0.000363551
0.000323673
0.000199797
0.000328455
0.000275452
0.000272904
0.000293481
0.000194946
0.000311854
0.000269785
9.87116e-05
0.000305381
0.00026055
-6.51206e-06
0.000251699
0.000263686
-0.000117014
0.000161164
-0.000230243
5.29276e-05
0.000385179
-0.000242227
3.04305e-05
0.000400955
-0.00026136
-3.13309e-05
0.000410217
-0.000238166
-7.79086e-05
0.000416963
-0.000176371
-0.000110568
0.000421977
-8.2097e-05
-0.000125083
0.000421341
3.56263e-05
-0.000112869
0.000410148
0.000160599
-6.99539e-05
0.000386362
0.000267599
-2.4156e-06
0.000350934
0.000329793
7.64785e-05
0.000308577
0.000332301
0.000151796
0.000269628
0.000280026
0.000210514
0.000248187
0.000191331
0.000243097
0.000253405
8.51918e-05
0.000244724
0.000283069
-2.46036e-05
0.000215691
0.00032553
-0.000130058
0.000162192
-0.000227929
9.62687e-05
0.000427173
-0.000243526
9.37312e-05
0.000455962
-0.000237062
6.35367e-05
0.000469261
-0.00019019
2.92673e-05
0.000471898
-0.000112498
-1.23362e-05
0.000464319
-1.04396e-05
-5.38585e-05
0.000441684
0.000108348
-7.8086e-05
0.000399648
0.000227838
-7.1571e-05
0.000340302
0.000324249
-3.48608e-05
0.000272172
0.000372118
1.901e-05
0.000208376
0.000357127
7.39353e-05
0.000164673
0.000283009
0.000118085
0.000155097
0.000168715
0.000146651
0.000184691
3.93364e-05
0.000159715
0.000245967
-8.24297e-05
0.000159061
0.000321034
-0.000182164
0.000147915
-0.000253401
0.000132027
0.000398387
-0.000269576
0.000146227
0.000442171
-0.000229318
0.000147826
0.000465483
-0.00015006
0.000127832
0.000471246
-4.67327e-05
7.95607e-05
0.000457414
7.3907e-05
1.15585e-05
0.000416354
0.000203625
-5.16901e-05
0.000345852
0.000324884
-8.50196e-05
0.000253113
0.000411633
-8.27581e-05
0.000155647
0.000438714
-5.65351e-05
7.50852e-05
0.000392877
-2.22869e-05
3.08757e-05
0.000280584
1.06899e-05
3.36616e-05
0.000127209
4.10065e-05
8.15851e-05
-3.25955e-05
7.04616e-05
0.000161511
-0.000168098
9.94337e-05
0.000253784
-0.000260542
0.000127942
-0.000302188
0.000156621
0.000303896
-0.000312612
0.000188706
0.000361091
-0.000235131
0.000213462
0.000397759
-0.000121517
0.00020449
0.000412395
1.21097e-05
0.000151013
0.000397854
0.000160028
5.97063e-05
0.000343738
0.000311891
-3.91172e-05
0.000249029
0.000443136
-0.000110263
0.000128812
0.000521522
-0.000140522
1.13473e-05
0.000519818
-0.000139402
-7.45288e-05
0.000429194
-0.000120717
-0.000110676
0.000266048
-9.07182e-05
-9.45908e-05
6.81014e-05
-5.01506e-05
-3.65441e-05
-0.00012043
-1.94775e-07
4.69399e-05
-0.000264606
5.56699e-05
0.000139048
-0.000346671
0.000113975
-0.000362624
0.000171813
0.000161419
-0.00036134
0.000217662
0.000226792
-0.000247821
0.000251165
0.000274414
-0.000103824
0.000246444
0.000297421
5.96066e-05
0.00018832
0.000284382
0.000238195
7.90186e-05
0.00022174
0.000420222
-5.04832e-05
0.000111352
0.000571451
-0.000156025
-2.31572e-05
0.000642459
-0.000214074
-0.000142676
0.000601386
-0.000227624
-0.000217132
0.000453108
-0.000208905
-0.000237395
0.000234388
-0.000166682
-0.000211503
-2.93826e-06
-0.000107204
-0.000154394
-0.00021082
-3.72347e-05
-8.10576e-05
-0.000355755
3.64271e-05
-2.19436e-06
-0.000425181
0.000109221
-0.000421743
0.000177439
3.172e-06
0.000212981
6.42833e-05
0.00024378
0.000108935
0.000241029
0.000126198
0.000181563
0.000105176
6.04221e-05
4.16984e-05
-9.60813e-05
-5.58974e-05
-0.000236035
-0.000164982
-0.00031604
-0.000257127
-0.000325803
-0.000312344
-0.000281602
-0.000325398
-0.000206989
-0.000302683
-0.000121828
-0.000256432
-3.95126e-05
-0.000198617
3.46107e-05
-0.00013712
0.000101054
0.000160699
-0.000132786
-0.000622219
0.000203773
-5.19308e-05
-0.0004483
0.00019124
9.38543e-06
-0.000221965
0.000162542
3.73244e-05
4.66668e-05
0.000105001
2.42465e-05
0.000329052
1.79748e-05
-2.56811e-05
0.000579096
-7.83405e-05
-9.90105e-05
0.000744572
-0.00015556
-0.00018059
0.000789296
-0.000197818
-0.000257486
0.0007049
-0.000204724
-0.00031854
0.000508286
-0.000179865
-0.000355435
0.000236361
-0.000126157
-0.000365446
-6.02378e-05
-5.11089e-05
-0.000353425
-0.000327898
3.00654e-05
-0.000324112
-0.000525655
9.94838e-05
-0.000279924
-0.000633181
0.000148448
-0.000643824
0.000177877
-0.000257577
-0.0006544
0.000153776
-0.000191686
-0.000484514
0.000125754
-0.000127223
-0.000262797
9.58764e-05
-7.8516e-05
7.47863e-06
5.00582e-05
-6.00986e-05
0.000300266
-1.63014e-05
-8.12653e-05
0.000567981
-9.28215e-05
-0.000137634
0.000749331
-0.000158313
-0.000210396
0.000798132
-0.000193636
-0.00027717
0.000704863
-0.000190995
-0.00032357
0.00049346
-0.000151783
-0.000347367
0.000209554
-8.41612e-05
-0.000355805
-9.04603e-05
-4.17008e-06
-0.000357071
-0.000353558
6.75443e-05
-0.00035343
-0.000543993
0.000116424
-0.000340911
-0.00064713
0.000140931
-0.000655208
0.000149148
-0.000338356
-0.000668791
7.67025e-05
-0.000285509
-0.000517082
3.3162e-05
-0.000225122
-0.00031306
2.85855e-06
-0.000168084
-5.61451e-05
-2.78896e-05
-0.000126981
0.000232356
-6.6591e-05
-0.00011369
0.000508707
-0.000111955
-0.000133153
0.000708963
-0.000152521
-0.00017628
0.000775383
-0.000170758
-0.000225052
0.000689898
-0.000153933
-0.00026601
0.000479265
-0.000100981
-0.000296888
0.000196856
-2.35646e-05
-0.000322985
-9.65337e-05
5.58662e-05
-0.000348194
-0.000349997
0.000113192
-0.00036944
-0.00053346
0.000135793
-0.000379595
-0.000635939
0.000128631
-0.000646759
0.000108477
-0.000365149
-0.000666642
-1.47254e-05
-0.000324966
-0.000542951
-7.1165e-05
-0.000270713
-0.000365519
-0.000101823
-0.000209849
-0.00013317
-0.0001179
-0.000151101
0.000137544
-0.000128297
-0.000106024
0.000410183
-0.000137862
-8.68488e-05
0.000625796
-0.000144632
-9.75021e-05
0.000720461
-0.000137422
-0.000129039
0.000662152
-0.000102497
-0.000169214
0.00047138
-3.61953e-05
-0.000212462
0.000204402
4.79163e-05
-0.000258929
-7.4918e-05
0.000122559
-0.000306784
-0.000317411
0.000161096
-0.000348552
-0.000496927
0.000153617
-0.000375504
-0.000603625
0.000111407
-0.000624031
5.96089e-05
-0.000335748
-0.000647065
-0.000103094
-0.000307129
-0.000557345
-0.000170393
-0.000260131
-0.000412124
-0.000202003
-0.000199578
-0.000211354
-0.000205845
-0.000131194
3.25775e-05
-0.000191174
-6.49024e-05
0.00029136
-0.000166549
-1.59857e-05
0.000515317
-0.00013726
2.11291e-06
0.000641218
-0.000100147
-1.28201e-05
0.000624056
-4.43501e-05
-5.15164e-05
0.000469498
3.48985e-05
-0.000104948
0.000230092
0.000123177
-0.000167648
-2.91876e-05
0.000190083
-0.000232449
-0.000259972
0.000207977
-0.000288596
-0.000438087
0.000170145
-0.000326336
-0.00055304
9.34719e-05
-0.00059003
9.51066e-06
-0.000256765
-0.000610761
-0.000171749
-0.000237758
-0.000556305
-0.000248531
-0.000199323
-0.000445089
-0.000281756
-0.000144493
-0.000278386
-0.000276744
-7.68969e-05
-6.51383e-05
-0.000242513
-3.91197e-06
0.000173239
-0.000189523
6.07775e-05
0.000396639
-0.000127771
9.95366e-05
0.000548223
-6.11246e-05
0.000101198
0.000575795
1.57896e-05
6.85309e-05
0.000468092
0.000106119
1.12231e-05
0.000266241
0.000195799
-6.02638e-05
3.27516e-05
0.000253201
-0.000134036
-0.000184781
0.000251292
-0.00019704
-0.00036248
0.000186464
-0.000238898
-0.00048813
7.98661e-05
-0.000547548
-3.34366e-05
-0.000140797
-0.000560676
-0.000207837
-0.000128462
-0.000538613
-0.000292473
-9.9203e-05
-0.000459459
-0.000327921
-5.48648e-05
-0.00032509
-0.000318367
2.51948e-06
-0.000141945
-0.000272058
6.82973e-05
7.34891e-05
-0.000199661
0.000132526
0.000288854
-0.00011341
0.00017966
0.000455222
-2.24365e-05
0.00019429
0.000520455
7.20982e-05
0.000171619
0.000460889
0.000170561
0.00011826
0.000302488
0.00025839
4.7295e-05
9.99047e-05
0.000305601
-2.59018e-05
-0.00010171
0.000287346
-8.69929e-05
-0.000278
0.000202546
-0.00012569
-0.000414664
7.46938e-05
-0.000499584
-6.07085e-05
-3.1883e-06
-0.000503306
-0.000205735
6.38298e-06
-0.000506625
-0.000294984
2.69011e-05
-0.000453733
-0.000333122
5.76435e-05
-0.000346263
-0.000324363
9.81102e-05
-0.000189142
-0.000275423
0.000146232
4.16411e-06
-0.000195201
0.000196329
0.000206746
-9.58671e-05
0.00023763
0.000376734
1.04543e-05
0.000256163
0.000466382
0.000116792
0.000242324
0.000446739
0.000218697
0.000198193
0.000330483
0.000301632
0.000136538
0.000160634
0.000339177
7.41481e-05
-2.28563e-05
0.000310297
2.49907e-05
-0.000195427
0.000215794
-1.87708e-06
-0.000341465
7.91536e-05
-0.000450454
-6.61308e-05
0.000138566
-0.000446832
-0.000168291
0.000149853
-0.000465775
-0.000256587
0.000163531
-0.000429728
-0.000297221
0.000179682
-0.000340199
-0.000295081
0.000199539
-0.000202213
-0.000254056
0.000223475
-2.77004e-05
-0.000179128
0.000249694
0.000160071
-7.99837e-05
0.00027262
0.000324912
3.02306e-05
0.0002829
0.000424686
0.000140183
0.000270927
0.000430926
0.000240303
0.000236108
0.000347511
0.000315743
0.00018963
0.00020578
0.000345018
0.000147246
3.92733e-05
0.000312453
0.000120606
-0.000128232
0.000220477
0.000114732
-0.000280067
9.03496e-05
-0.000407561
-4.883e-05
0.000265684
-0.000401657
-0.000106428
0.000283597
-0.000423834
-0.000185436
0.000293439
-0.000391577
-0.000227023
0.000296193
-0.000308107
-0.000236318
0.000294665
-0.000180088
-0.00021305
0.00029122
-1.90628e-05
-0.000156025
0.000287404
0.000154201
-7.03172e-05
0.000282383
0.000307811
3.17458e-05
0.000272977
0.000405754
0.000136008
0.000253233
0.000422036
0.000228431
0.000223542
0.000356206
0.000293901
0.000194041
0.00023073
0.000316404
0.000177968
7.39665e-05
0.000286761
0.000182428
-9.01916e-05
0.000209199
0.000206402
-0.000244045
0.000101168
-0.000379005
-1.38177e-05
0.000358873
-0.000376912
-3.49053e-05
0.00038789
-0.000389079
-9.51025e-05
0.000398239
-0.000345556
-0.000134279
0.000391297
-0.000254319
-0.000157415
0.000370545
-0.000125246
-0.000159172
0.000339416
2.94757e-05
-0.000130278
0.000302226
0.00019065
-6.92133e-05
0.000263529
0.000330012
1.40803e-05
0.00022606
0.000416224
0.000103477
0.00019061
0.000427124
0.000182159
0.000161297
0.000360701
0.000235332
0.000148011
0.000234544
0.000252569
0.000160213
7.51979e-05
0.000231291
0.000199222
-9.10703e-05
0.000177561
0.000256937
-0.000243985
0.000104417
-0.00037272
2.86374e-05
0.000402096
-0.000378175
3.34876e-05
0.000445058
-0.000368066
-4.39147e-07
0.000460966
-0.000298993
-3.32045e-05
0.000450245
-0.000186281
-6.96529e-05
0.000415175
-4.41614e-05
-9.98731e-05
0.000358926
0.00011317
-0.000105532
0.000288385
0.000266469
-7.68484e-05
0.00021374
0.000390122
-2.03256e-05
0.000145067
0.00045683
4.70768e-05
9.09514e-05
0.000447943
0.000107232
6.03109e-05
0.000362291
0.000147135
6.2247e-05
0.000217347
0.000161911
0.000100801
4.22001e-05
0.000154158
0.000170664
-0.000132229
0.000130357
0.000257685
-0.000281785
9.86948e-05
-0.000392404
6.88061e-05
0.00038689
-0.000404547
9.24447e-05
0.000443821
-0.000362865
8.5694e-05
0.000469515
-0.000258776
6.19215e-05
0.000461822
-0.000113915
1.48869e-05
0.000419355
5.29459e-05
-4.30819e-05
0.000343136
0.000222818
-8.51196e-05
0.000242804
0.000373849
-9.20665e-05
0.00013501
0.000481384
-6.62267e-05
3.82099e-05
0.000521587
-2.44923e-05
-3.11624e-05
0.000479451
1.5577e-05
-6.0503e-05
0.000357678
4.46437e-05
-4.3734e-05
0.000179051
6.25339e-05
1.58895e-05
-2.06994e-05
7.37376e-05
0.000106423
-0.000205437
8.21076e-05
0.000210309
-0.000348288
9.05597e-05
-0.000434239
0.000102029
0.00031518
-0.000448677
0.000140234
0.00038278
-0.000371052
0.000154048
0.000420232
-0.000229787
0.000138049
0.000421613
-4.81106e-05
8.38274e-05
0.000379428
0.000152201
2.63558e-06
0.000290561
0.000345719
-7.31505e-05
0.000166332
0.000502522
-0.000114707
3.1684e-05
0.000594498
-0.000118989
-8.46482e-05
0.000600062
-0.000101545
-0.000159532
0.000510946
-7.73282e-05
-0.000180957
0.000339909
-5.15239e-05
-0.000149833
0.000120392
-2.26164e-05
-7.74052e-05
-0.000104435
1.11132e-05
1.96868e-05
-0.000295667
4.88081e-05
0.0001247
-0.000427683
8.83565e-05
-0.000488134
0.000127829
0.000199698
-0.000501461
0.000173504
0.000272149
-0.00038785
0.000195512
0.00031858
-0.000213339
0.000183565
0.000329375
3.37074e-06
0.000126043
0.000292305
0.000239184
2.91063e-05
0.000198487
0.00046464
-7.55864e-05
5.96827e-05
0.000635944
-0.000150643
-8.96161e-05
0.000712456
-0.000182733
-0.000209647
0.000673767
-0.000181297
-0.000275504
0.000526976
-0.000159078
-0.000282744
0.000302965
-0.000122498
-0.000241558
4.64868e-05
-7.44842e-05
-0.000168065
-0.000196175
-1.89888e-05
-7.85021e-05
-0.000387576
3.87743e-05
1.45455e-05
-0.000505924
9.44152e-05
-0.000543885
0.00014498
7.16118e-05
0.000175825
0.0001367
0.000194922
0.000176333
0.000186613
0.000180847
0.000133907
0.000139604
3.25549e-05
5.16716e-05
-9.23711e-05
-6.87767e-05
-0.00019749
-0.000192615
-0.000252338
-0.000289284
-0.000254092
-0.000340854
-0.000216349
-0.000344761
-0.000155083
-0.000309368
-8.40197e-05
-0.000247123
-1.44568e-05
-0.000171937
4.68628e-05
-9.40984e-05
9.84093e-05
0.000141545
-4.80466e-06
-0.000685104
0.000176702
6.31452e-05
-0.00053076
0.000167784
0.000103122
-0.000297708
0.000146298
0.000106747
-7.06462e-06
0.00010324
6.90857e-05
0.000302574
3.80161e-05
-2.66364e-06
0.000570645
-3.40012e-05
-9.17737e-05
0.000741455
-9.226e-05
-0.000179734
0.00078647
-0.000127306
-0.000253103
0.000707473
-0.000139132
-0.000302443
0.000524422
-0.000127599
-0.000321718
0.000268752
-9.07514e-05
-0.000308993
-1.97447e-05
-3.14597e-05
-0.000271742
-0.000294944
3.75317e-05
-0.00021831
-0.000517094
9.93198e-05
-0.000156801
-0.000657482
0.000142233
-0.000701113
0.000164778
-0.00011175
-0.000711501
0.000123181
-6.28012e-05
-0.000560145
0.00010619
-1.75196e-05
-0.000336642
8.95292e-05
1.45375e-05
-5.15073e-05
6.24437e-05
1.94403e-05
0.000262839
1.85315e-05
-1.48779e-05
0.000549549
-3.74074e-05
-8.40093e-05
0.00074165
-8.93762e-05
-0.000166024
0.000796144
-0.000121295
-0.000235957
0.000711571
-0.000125159
-0.000278476
0.000514717
-9.95586e-05
-0.000290457
0.000245266
-4.86948e-05
-0.000279122
-5.05549e-05
1.53056e-05
-0.000255183
-0.000325589
7.42507e-05
-0.00022775
-0.000541379
0.000113275
-0.000199115
-0.000674453
0.000129267
-0.000711719
0.000129383
-0.000185542
-0.000719485
5.14514e-05
-0.000149604
-0.000583727
2.08061e-05
-0.000107343
-0.000381982
5.93695e-06
-6.3847e-05
-0.000118231
-4.66184e-06
-3.0876e-05
0.000184438
-2.11616e-05
-2.43456e-05
0.000478328
-4.72649e-05
-5.32099e-05
0.000694563
-7.65695e-05
-0.000107438
0.000773689
-9.40744e-05
-0.000164664
0.000700946
-8.60809e-05
-0.000207246
0.000504773
-4.84551e-05
-0.000230058
0.00023317
1.13433e-05
-0.000238035
-6.1411e-05
7.46991e-05
-0.000238992
-0.000330781
0.00011934
-0.00023715
-0.000539272
0.000131844
-0.000231401
-0.000667397
0.000115827
-0.000702887
8.70207e-05
-0.000220433
-0.000711282
-3.67332e-05
-0.000195701
-0.000599124
-8.05001e-05
-0.000158241
-0.000426388
-9.48779e-05
-0.000109858
-0.000193623
-9.08913e-05
-5.77288e-05
8.40264e-05
-8.00141e-05
-1.6486e-05
0.000370421
-7.11973e-05
-3.68963e-06
0.000604338
-6.72027e-05
-2.51114e-05
0.000717623
-5.99347e-05
-6.77518e-05
0.000676052
-3.49625e-05
-0.000113243
0.000499036
1.50331e-05
-0.000151401
0.0002383
8.09444e-05
-0.000181665
-4.7885e-05
0.000139297
-0.000206543
-0.000309545
0.000164738
-0.000225872
-0.000512766
0.00014644
-0.000236641
-0.00064004
9.48183e-05
-0.000679573
3.38923e-05
-0.000215015
-0.000686556
-0.000127778
-0.000199025
-0.000602806
-0.000182701
-0.000166798
-0.000463019
-0.000197598
-0.000118184
-0.000266119
-0.000181964
-5.70505e-05
-2.08679e-05
-0.000147412
5.17223e-06
0.000247209
-0.000105561
4.9125e-05
0.000488573
-6.54485e-05
5.76301e-05
0.00063611
-2.71389e-05
3.10817e-05
0.000638615
1.9635e-05
-1.49189e-05
0.000497064
8.28704e-05
-6.56727e-05
0.000259355
0.000152877
-0.000114126
-1.21721e-05
0.000202823
-0.000157301
-0.000264713
0.00020632
-0.000191478
-0.000464575
0.000156131
-0.000212593
-0.00059454
6.90873e-05
-0.000643726
-2.39565e-05
-0.000172591
-0.000646464
-0.000205294
-0.000162283
-0.000592687
-0.000268958
-0.000135837
-0.000486556
-0.000284665
-9.23275e-05
-0.000325969
-0.000260404
-3.35373e-05
-0.000114772
-0.000207399
3.29136e-05
0.000129493
-0.000138258
9.11247e-05
0.000368076
-6.54853e-05
0.000120857
0.000541166
4.08622e-06
0.000111659
0.000589483
7.41199e-05
7.10557e-05
0.000493787
0.00015
1.50709e-05
0.000289787
0.000221351
-4.38931e-05
3.95673e-05
0.000260425
-9.74231e-05
-0.000201742
0.00024185
-0.000138906
-0.000399035
0.000162407
-0.000163682
-0.00053418
4.42829e-05
-0.000597744
-7.70579e-05
-9.98796e-05
-0.000594475
-0.000254766
-9.16765e-05
-0.000569206
-0.000324157
-7.12559e-05
-0.000494386
-0.000340512
-3.76814e-05
-0.000366735
-0.000311174
8.81123e-06
-0.000186801
-0.000246522
6.44283e-05
3.2935e-05
-0.00015872
0.000118997
0.000261619
-6.15219e-05
0.000156061
0.000447802
3.38646e-05
0.000160504
0.000532874
0.000124264
0.000130683
0.000484076
0.000210094
7.83647e-05
0.000320766
0.000279729
1.86019e-05
9.82537e-05
0.000306678
-3.59342e-05
-0.000128453
0.000268593
-7.62493e-05
-0.000322486
0.000166312
-9.74177e-05
-0.000464074
2.57564e-05
-0.00054534
-0.000115709
-5.19923e-06
-0.00053704
-0.000267208
4.9068e-06
-0.000535611
-0.000338685
1.93702e-05
-0.000486208
-0.000355763
3.93242e-05
-0.000384792
-0.00032626
6.61117e-05
-0.000230159
-0.000258852
9.96712e-05
-3.22029e-05
-0.000163623
0.000136128
0.000182748
-5.34524e-05
0.00016562
0.00037058
5.81839e-05
0.000174751
0.000478052
0.000162484
0.000155818
0.000467795
0.000253911
0.000113817
0.000345284
0.000319115
6.258e-05
0.000154218
0.00033445
1.68775e-05
-5.46747e-05
0.000282222
-1.2959e-05
-0.000243925
0.000167069
-2.24446e-05
-0.000392082
1.6647e-05
-0.000492135
-0.000132543
0.000100704
-0.000482455
-0.000241507
0.000116358
-0.000497085
-0.000310768
0.000126053
-0.000463807
-0.000329316
0.000130363
-0.000378482
-0.000305701
0.000132739
-0.000240728
-0.000245864
0.000137172
-5.99716e-05
-0.000155792
0.000145584
0.000140108
-4.57562e-05
0.000155149
0.000320931
7.03148e-05
0.000157566
0.000436206
0.000179612
0.000144019
0.000450495
0.000271149
0.000114195
0.000361056
0.000329796
7.84203e-05
0.000199315
0.000335695
5.07297e-05
8.54883e-06
0.00027692
4.08997e-05
-0.000175141
0.000161523
5.18048e-05
-0.000329166
1.65291e-05
-0.000446169
-0.000125066
0.000204711
-0.000440469
-0.00018554
0.000229492
-0.000460343
-0.000246958
0.000236043
-0.000430064
-0.000267318
0.000224687
-0.000347889
-0.000255555
0.000200887
-0.000216712
-0.000213267
0.000172481
-4.71711e-05
-0.000140419
0.000146837
0.000138615
-4.31791e-05
0.000127677
0.000306553
6.52832e-05
0.00011294
0.000417351
0.0001696
9.65975e-05
0.000440484
0.000254785
7.66421e-05
0.000370159
0.000304753
5.99176e-05
0.000228305
0.000304139
5.73924e-05
5.05008e-05
0.000247334
7.58756e-05
-0.000129446
0.00014502
0.000114563
-0.000288068
2.13827e-05
-0.000416376
-9.66328e-05
0.000291003
-0.000419538
-0.000112887
0.00032759
-0.000432184
-0.000159847
0.000333951
-0.000389581
-0.000181122
0.000309567
-0.000295763
-0.000185156
0.000261041
-0.000159373
-0.000167984
0.000199339
6.20364e-06
-0.000121951
0.000136951
0.000179723
-4.79339e-05
8.40023e-05
0.000331212
4.23709e-05
4.49096e-05
0.000427755
0.000132166
1.87686e-05
0.000444514
0.000204269
5.03911e-06
0.000375915
0.000243306
8.13742e-06
0.000238577
0.000239199
3.44546e-05
6.30789e-05
0.000192395
8.56902e-05
-0.00011796
0.000114839
0.000156114
-0.00027972
2.56451e-05
-0.000410352
-5.52247e-05
0.000344524
-0.000424135
-3.77326e-05
0.000393987
-0.000417678
-6.44076e-05
0.000403911
-0.00034831
-8.44008e-05
0.000371864
-0.000228354
-0.000105014
0.000303528
-7.42201e-05
-0.000116691
0.000211619
9.58975e-05
-0.000103317
0.000113496
0.000260523
-5.95252e-05
2.5871e-05
0.000393542
4.96904e-06
-3.99591e-05
0.000467893
7.27689e-05
-7.88529e-05
0.000464165
0.000126475
-8.84318e-05
0.000379106
0.000153523
-6.62889e-05
0.000228672
0.000149674
-1.18045e-05
4.28258e-05
0.000119927
7.04489e-05
-0.000145039
7.51833e-05
0.000169424
-0.000307904
2.79035e-05
-0.000430846
-9.98334e-06
0.000354854
-0.00045274
3.04294e-05
0.000415635
-0.000418461
2.56956e-05
0.000432638
-0.000312585
9.19393e-06
0.0004002
-0.000155343
-2.56864e-05
0.00032012
2.83695e-05
-6.5591e-05
0.00020478
0.000212563
-8.64454e-05
7.61344e-05
0.000372876
-7.57739e-05
-4.20356e-05
0.000486302
-4.08158e-05
-0.000131358
0.000531439
1.28451e-06
-0.000180846
0.00049433
3.49003e-05
-0.000185716
0.000376406
5.22132e-05
-0.000146358
0.000197713
5.41342e-05
-6.88325e-05
-7.99218e-06
4.70302e-05
3.60516e-05
-0.000205797
3.79814e-05
0.000152951
-0.000366242
3.19976e-05
-0.00047353
3.34325e-05
0.000318969
-0.000498405
8.70026e-05
0.000386964
-0.000432151
9.97426e-05
0.000413002
-0.000287762
8.71879e-05
0.000387883
-8.91159e-05
4.27187e-05
0.000306807
0.000132884
-2.08026e-05
0.000178041
0.000342003
-7.3825e-05
2.67251e-05
0.000505425
-9.59397e-05
-0.00011502
0.000599369
-9.03114e-05
-0.000220431
0.000607718
-7.24122e-05
-0.000273669
0.000524712
-5.44728e-05
-0.000270492
0.000361349
-3.96439e-05
-0.00021667
0.000146174
-2.48993e-05
-0.000124514
-8.24035e-05
-6.63088e-06
-1.07771e-05
-0.000287408
1.66824e-05
0.000109462
-0.000441406
4.32815e-05
-0.000528661
7.23485e-05
0.00024315
-0.000554077
0.000129028
0.000312572
-0.000455382
0.00014932
0.000345715
-0.000276764
0.000139424
0.000331704
-4.05962e-05
9.15354e-05
0.000259188
0.00022129
1.32153e-05
0.000129005
0.000463725
-6.71248e-05
-3.39748e-05
0.00063895
-0.000121188
-0.00018834
0.000713921
-0.00014292
-0.000297689
0.000677712
-0.000141942
-0.000344642
0.000540289
-0.000127701
-0.000330556
0.000328241
-0.000103477
-0.000268161
7.88426e-05
-6.95476e-05
-0.000174103
-0.000167936
-2.75137e-05
-6.52686e-05
-0.000375993
1.85237e-05
4.39921e-05
-0.000520128
6.38768e-05
-0.000587472
0.00010478
0.000149639
0.000147403
0.00021184
0.000163607
0.000239803
0.000155862
0.000223999
0.000114316
0.000155931
3.69578e-05
4.0046e-05
-5.5996e-05
-0.00010079
-0.000133349
-0.000231926
-0.000176303
-0.000323728
-0.000184275
-0.000362688
-0.000164448
-0.000350283
-0.000124129
-0.000297346
-7.07441e-05
-0.000216811
-1.27014e-05
-0.000123713
4.15989e-05
-3.04629e-05
8.72178e-05
0.000122706
0.00014985
-0.000628087
0.000150506
0.000193775
-0.000514491
0.000161336
0.000204997
-0.000308906
0.000155459
0.00017927
-3.39647e-05
0.000131217
0.000115312
0.000265324
8.73331e-05
2.26394e-05
0.000523251
3.2922e-05
-7.91434e-05
0.000682629
-1.85352e-05
-0.000169739
0.000721526
-5.99386e-05
-0.0002355
0.000649538
-8.82873e-05
-0.000268843
0.000489629
-9.84009e-05
-0.000266137
0.000269245
-8.40048e-05
-0.00022779
1.84433e-05
-4.42673e-05
-0.000162071
-0.000228267
1.16524e-05
-8.16659e-05
-0.000439214
6.90208e-05
-9.64095e-07
-0.000586906
0.000114681
-0.000654926
0.000141004
5.33149e-05
-0.000647976
9.74062e-05
8.12091e-05
-0.00053639
0.000100195
0.000101932
-0.000342213
0.000102113
0.00011294
-7.91214e-05
9.6593e-05
0.000102438
0.00021948
7.48774e-05
5.74649e-05
0.000494792
3.60254e-05
-1.85452e-05
0.000679116
-9.85262e-06
-0.000102686
0.000732663
-4.82919e-05
-0.000169577
0.000659573
-6.8303e-05
-0.000204134
0.000488586
-6.39577e-05
-0.00020291
0.000254513
-3.51877e-05
-0.000172319
-6.61574e-06
9.77375e-06
-0.000124206
-0.00025813
5.60014e-05
-7.30794e-05
-0.000466161
8.90952e-05
-2.85724e-05
-0.000606129
0.000103984
-0.000664825
0.000103057
-2.01408e-05
-0.000649622
3.07377e-05
-4.50127e-06
-0.00054957
1.83467e-05
1.62115e-05
-0.000378403
2.14135e-05
4.37244e-05
-0.000142489
3.1193e-05
6.87404e-05
0.000137341
3.59615e-05
7.28803e-05
0.000416061
2.73258e-05
4.2765e-05
0.00062655
6.11192e-06
-1.34619e-05
0.000710344
-1.55284e-05
-7.16596e-05
0.000653926
-2.22364e-05
-0.00011179
0.000485502
-5.24089e-06
-0.000126138
0.000247438
3.27671e-05
-0.000118033
-1.70469e-05
7.70246e-05
-9.76894e-05
-0.000267417
0.000108283
-7.56035e-05
-0.000469531
0.000113128
-5.76797e-05
-0.000601519
9.32929e-05
-0.000653575
6.05913e-05
-7.21391e-05