/*--------------------------------*- C++ -*----------------------------------*\
| =========                 |                                                 |
| \\      /  F ield         | OpenFOAM: The Open Source CFD Toolbox           |
|  \\    /   O peration     | Version:  3.0.0                                 |
|   \\  /    A nd           | Web:      www.OpenFOAM.org                      |
|    \\/     M anipulation  |                                                 |
\*---------------------------------------------------------------------------*/
FoamFile
{
    version     2.0;
    format      ascii;
    class       volVectorField;
    location    "3.5";
    object      U;
}
// * * * * * * * * * * * * * * * * * * * * * * * * * * * * * * * * * * * * * //

dimensions      [0 1 -1 0 0 0 0];

internalField   nonuniform List<vector> 
4096
(
(-0.0705151 -0.11353 0.0617985)
(-0.0440373 -0.070304 0.0616741)
(-0.0245243 -0.0228946 0.0555155)
(-0.00964582 0.0278939 0.0381785)
(-0.00342235 0.0799481 0.00906147)
(-0.00736508 0.127735 -0.0262456)
(-0.0198691 0.161855 -0.0577676)
(-0.0376714 0.172674 -0.0772213)
(-0.0572825 0.154923 -0.0820042)
(-0.0753889 0.109736 -0.073638)
(-0.089159 0.0450531 -0.0551403)
(-0.0973649 -0.0252989 -0.030689)
(-0.100647 -0.0856299 -0.0053503)
(-0.099844 -0.124664 0.0167444)
(-0.0953354 -0.139101 0.034188)
(-0.0828502 -0.131352 0.0465222)
(-0.106862 -0.120438 0.0485515)
(-0.0824445 -0.0788489 0.0422443)
(-0.0643857 -0.0304717 0.0333047)
(-0.0469716 0.0257145 0.0172674)
(-0.0353408 0.0868871 -0.00667954)
(-0.0327543 0.144994 -0.034992)
(-0.039672 0.186267 -0.0603896)
(-0.053313 0.19693 -0.0754618)
(-0.0686425 0.171358 -0.0765029)
(-0.0813776 0.114994 -0.0640915)
(-0.0902072 0.0419308 -0.0420623)
(-0.096681 -0.0303967 -0.0165123)
(-0.10278 -0.0877749 0.00639718)
(-0.108589 -0.123335 0.0232572)
(-0.112962 -0.137091 0.0341623)
(-0.106467 -0.130917 0.040079)
(-0.131314 -0.129373 0.0268201)
(-0.108715 -0.0901625 0.0151825)
(-0.0929289 -0.0428414 0.00442131)
(-0.0747331 0.0139529 -0.00906648)
(-0.0591333 0.0767203 -0.0263073)
(-0.0493668 0.136669 -0.0456005)
(-0.0469319 0.179449 -0.0622506)
(-0.0511774 0.190646 -0.070167)
(-0.0589752 0.164636 -0.0653357)
(-0.0672992 0.107911 -0.0481414)
(-0.0756701 0.0357581 -0.0233896)
(-0.0856122 -0.0342214 0.00147228)
(-0.0978989 -0.0890529 0.0199416)
(-0.111096 -0.123502 0.0295099)
(-0.123076 -0.138022 0.0318276)
(-0.120527 -0.132831 0.0300688)
(-0.138131 -0.133 0.00194388)
(-0.119165 -0.100122 -0.0140083)
(-0.105763 -0.0572097 -0.0260868)
(-0.087401 -0.00307634 -0.0365412)
(-0.0684765 0.0585595 -0.0465162)
(-0.0518706 0.119077 -0.0557511)
(-0.0397979 0.164366 -0.0620199)
(-0.0340595 0.179237 -0.0612424)
(-0.0345739 0.156748 -0.0499161)
(-0.0399226 0.103326 -0.0283476)
(-0.0495682 0.0351805 -0.00190673)
(-0.0639544 -0.030155 0.0211303)
(-0.0823183 -0.0812596 0.0342204)
(-0.101932 -0.114585 0.0358108)
(-0.119867 -0.130762 0.0288915)
(-0.121074 -0.128223 0.0189773)
(-0.125769 -0.132088 -0.020236)
(-0.112335 -0.108078 -0.0398594)
(-0.101157 -0.0720366 -0.0530355)
(-0.0833284 -0.0234024 -0.0606292)
(-0.0624887 0.0342353 -0.063829)
(-0.0411464 0.0931458 -0.0634748)
(-0.0218541 0.140552 -0.0594387)
(-0.00802495 0.161395 -0.049839)
(-0.00236213 0.146648 -0.0322666)
(-0.00521386 0.100874 -0.00707845)
(-0.015877 0.0398916 0.0201712)
(-0.0336708 -0.0191584 0.0408658)
(-0.0565118 -0.066244 0.0486265)
(-0.0807064 -0.0990078 0.0426448)
(-0.102509 -0.117864 0.0269751)
(-0.107539 -0.119812 0.00894965)
(-0.0965832 -0.126273 -0.0349153)
(-0.0894186 -0.112229 -0.057864)
(-0.080441 -0.0845283 -0.0720469)
(-0.064255 -0.0433521 -0.0774304)
(-0.0437013 0.00806933 -0.0752278)
(-0.020875 0.0631885 -0.0670377)
(0.00178669 0.11113 -0.0542847)
(0.0204661 0.138113 -0.0370667)
(0.0309148 0.133591 -0.014287)
(0.0308719 0.0989456 0.0134395)
(0.0205212 0.0478657 0.0407284)
(0.00136743 -0.00348907 0.0590545)
(-0.0235167 -0.0462129 0.0623399)
(-0.0498058 -0.0786765 0.0501672)
(-0.0730606 -0.100801 0.0272651)
(-0.0813628 -0.108864 0.00184134)
(-0.0558944 -0.115621 -0.039385)
(-0.0539847 -0.111171 -0.0650706)
(-0.0472268 -0.0921356 -0.0802002)
(-0.0337379 -0.0591621 -0.0843967)
(-0.0156049 -0.0149978 -0.0788216)
(0.00551555 0.0349423 -0.065426)
(0.0275419 0.0816082 -0.046565)
(0.0471464 0.113006 -0.023859)
(0.059988 0.118389 0.0023889)
(0.0625081 0.0960621 0.0311959)
(0.0538446 0.0565305 0.0576042)
(0.0357472 0.0140154 0.0738023)
(0.0117722 -0.0237623 0.0740508)
(-0.0136012 -0.05564 0.0579711)
(-0.0356718 -0.0810051 0.0303476)
(-0.0455672 -0.0961957 -0.00075826)
(-0.0102944 -0.101514 -0.0336011)
(-0.0110691 -0.104863 -0.0606384)
(-0.00645314 -0.0936012 -0.0764969)
(0.00366193 -0.068386 -0.0807448)
(0.017864 -0.0314555 -0.0743234)
(0.034936 0.0127308 -0.0590084)
(0.0531977 0.056635 -0.0373735)
(0.0700927 0.0899858 -0.0119561)
(0.0820504 0.102764 0.0156733)
(0.0854081 0.0915022 0.043903)
(0.0786355 0.0634635 0.0684685)
(0.0633712 0.0301419 0.0828313)
(0.0432093 -0.00219376 0.081842)
(0.0221107 -0.0327543 0.0648053)
(0.00409769 -0.0606698 0.0358328)
(-0.00442088 -0.0828661 0.00203857)
(0.0335497 -0.0862781 -0.0199599)
(0.0334809 -0.0945579 -0.0459572)
(0.0362722 -0.0890438 -0.0619086)
(0.0428667 -0.0700637 -0.0673613)
(0.052447 -0.0394289 -0.0627697)
(0.0641608 -0.000826425 -0.0491342)
(0.0766587 0.0394423 -0.0284588)
(0.0880739 0.0725405 -0.00349357)
(0.0958872 0.0895231 0.0232364)
(0.0972646 0.086342 0.049364)
(0.0909722 0.0676783 0.0712467)
(0.0788781 0.0422513 0.0839592)
(0.0645457 0.0149616 0.0833964)
(0.0508317 -0.0136167 0.0684768)
(0.0399107 -0.0427728 0.0420874)
(0.0366743 -0.0703879 0.00988442)
(0.0696429 -0.0726913 -0.00228758)
(0.0733804 -0.0824316 -0.0242309)
(0.0750969 -0.0796727 -0.0390907)
(0.0786644 -0.0644894 -0.0464196)
(0.0837717 -0.0384283 -0.0459808)
(0.0897573 -0.00454384 -0.0374243)
(0.0954446 0.0319071 -0.0213833)
(0.0995185 0.0632659 -6.0388e-05)
(0.100544 0.0815669 0.0234672)
(0.0970792 0.0828115 0.0461518)
(0.0891208 0.0698432 0.0647146)
(0.0792939 0.0491176 0.0757708)
(0.0712958 0.024806 0.0766404)
(0.0668428 -0.00208422 0.066338)
(0.0654494 -0.0309703 0.0464136)
(0.0712692 -0.0608502 0.02079)
(0.0930494 -0.0633842 0.0153659)
(0.102508 -0.0710503 0.000408353)
(0.104412 -0.0674191 -0.0117332)
(0.106134 -0.0529309 -0.0209258)
(0.107708 -0.0290861 -0.0262005)
(0.108373 0.00159906 -0.025437)
(0.106936 0.0347113 -0.0171776)
(0.102518 0.0635221 -0.00236697)
(0.0949486 0.0808612 0.0159151)
(0.0846609 0.0828952 0.0340325)
(0.0734215 0.0712106 0.0488865)
(0.064835 0.0507586 0.0583225)
(0.0625777 0.025855 0.0611148)
(0.067313 -0.00107415 0.0568648)
(0.0760684 -0.0287615 0.0463031)
(0.092658 -0.0566522 0.0316538)
(0.100526 -0.0603539 0.0305041)
(0.115715 -0.0626809 0.0242335)
(0.119517 -0.054479 0.0161689)
(0.121179 -0.0373787 0.00563471)
(0.120765 -0.0129775 -0.00597775)
(0.11709 0.0166435 -0.0146819)
(0.108753 0.047521 -0.0163814)
(0.0954386 0.0735291 -0.0101514)
(0.0785555 0.0880762 0.00133002)
(0.0608103 0.0874043 0.0141188)
(0.0460167 0.0724008 0.0253065)
(0.0385007 0.0474983 0.0336846)
(0.0412326 0.0180834 0.0391028)
(0.0535105 -0.011232 0.041639)
(0.070615 -0.0375511 0.0416055)
(0.0959708 -0.0596594 0.039895)
(0.0911169 -0.0642543 0.0427179)
(0.110342 -0.0586252 0.0448193)
(0.117563 -0.0428792 0.0411018)
(0.121072 -0.0201838 0.0296916)
(0.120493 0.00775233 0.0118719)
(0.113826 0.0390193 -0.00673158)
(0.0992998 0.0695129 -0.0192543)
(0.0775322 0.0929998 -0.0225168)
(0.0519422 0.103023 -0.0184916)
(0.0278134 0.0960114 -0.011015)
(0.0108147 0.0730484 -0.00256519)
(0.00521935 0.0394335 0.00629578)
(0.0122979 0.00259792 0.0156864)
(0.0295604 -0.0304918 0.0254145)
(0.051446 -0.055307 0.0351874)
(0.0803228 -0.0698158 0.0448955)
(0.0663083 -0.0741152 0.0526074)
(0.0872785 -0.0589447 0.060595)
(0.0985435 -0.0341898 0.0599787)
(0.105244 -0.00397351 0.0476858)
(0.106036 0.029957 0.024384)
(0.0978374 0.0654146 -0.00327143)
(0.0783088 0.0973075 -0.0258386)
(0.0491927 0.118517 -0.0379557)
(0.0167733 0.122438 -0.0406846)
(-0.0108222 0.105923 -0.0372204)
(-0.0270768 0.0713184 -0.0293717)
(-0.0293369 0.0263309 -0.017741)
(-0.0189292 -0.018811 -0.00309452)
(0.000137469 -0.0552535 0.0133293)
(0.0226641 -0.0778955 0.0304509)
(0.0494546 -0.0850855 0.047433)
(0.0299915 -0.0877173 0.0593612)
(0.0510962 -0.0623562 0.0694649)
(0.065441 -0.0288224 0.0698055)
(0.0749823 0.00904587 0.0562188)
(0.0772855 0.0495921 0.028287)
(0.068371 0.0900775 -0.00716693)
(0.0454469 0.123949 -0.0387327)
(0.0116825 0.142647 -0.0581842)
(-0.0233128 0.139246 -0.0647511)
(-0.0493699 0.111519 -0.061102)
(-0.0614184 0.0641903 -0.0497592)
(-0.0599215 0.00816892 -0.0329654)
(-0.0483648 -0.043786 -0.0131129)
(-0.0309327 -0.0819081 0.00772686)
(-0.0113601 -0.101606 0.0282976)
(0.0101857 -0.102736 0.0476057)
(-0.00975035 -0.0930776 0.0583019)
(0.00972985 -0.061433 0.0675605)
(0.0233061 -0.0221976 0.0678133)
(0.0319958 0.0234939 0.0528479)
(0.0325305 0.0757567 0.0206576)
(0.0221273 0.131205 -0.0230402)
(0.000385557 0.17724 -0.0645365)
(-0.0284907 0.195354 -0.0899783)
(-0.0563526 0.175499 -0.0944907)
(-0.0759031 0.123816 -0.0823758)
(-0.0841504 0.0565954 -0.0611505)
(-0.082008 -0.00944117 -0.0371083)
(-0.0724196 -0.0625008 -0.0140244)
(-0.0586867 -0.0968803 0.00682524)
(-0.0435761 -0.11162 0.0257166)
(-0.0273606 -0.10878 0.0426872)
(-0.0490083 -0.160013 0.0566286)
(-0.0225327 -0.112919 0.0535816)
(-0.00384537 -0.0533812 0.0458337)
(0.00853281 0.0138058 0.0293898)
(0.0109839 0.0806645 0.00423001)
(0.00236072 0.136972 -0.0238054)
(-0.0147224 0.173214 -0.0464627)
(-0.0358425 0.183643 -0.0588814)
(-0.0570482 0.166467 -0.0607905)
(-0.0752298 0.123303 -0.0534787)
(-0.0878431 0.0597584 -0.0382169)
(-0.093543 -0.0138629 -0.0173804)
(-0.092965 -0.0838994 0.00485004)
(-0.0876705 -0.137493 0.0240183)
(-0.0790231 -0.166915 0.0381202)
(-0.0652382 -0.169549 0.0471926)
(-0.0783169 -0.161631 0.0435419)
(-0.0568439 -0.117713 0.0357178)
(-0.040289 -0.0601694 0.0267828)
(-0.0249 0.00976089 0.0128851)
(-0.0152318 0.0852894 -0.00681976)
(-0.015328 0.153667 -0.0290629)
(-0.026239 0.199158 -0.0478059)
(-0.0443583 0.210535 -0.0577831)
(-0.0633876 0.185758 -0.056966)
(-0.0782127 0.130871 -0.0459256)
(-0.0868612 0.0574828 -0.0270862)
(-0.0904621 -0.0199274 -0.00491695)
(-0.091506 -0.0877072 0.0150727)
(-0.091564 -0.136473 0.0291393)
(-0.0907807 -0.162537 0.0369656)
(-0.0834099 -0.16445 0.0403127)
(-0.097295 -0.17021 0.0229798)
(-0.0793269 -0.128262 0.0107811)
(-0.0655138 -0.0729885 0.00130239)
(-0.0498568 -0.00460772 -0.0089788)
(-0.0362178 0.0708718 -0.0215796)
(-0.0285011 0.141329 -0.0355487)
(-0.0295599 0.190202 -0.0473867)
(-0.0388356 0.20401 -0.0523971)
(-0.0517295 0.179725 -0.047444)
(-0.0634687 0.124363 -0.0325252)
(-0.0722657 0.0508408 -0.0109658)
(-0.0791869 -0.0257156 0.0111408)
(-0.085878 -0.0919798 0.0274066)
(-0.0925512 -0.139637 0.0346293)
(-0.098248 -0.165591 0.0341687)
(-0.0944922 -0.167467 0.0300998)
(-0.101718 -0.172193 -0.000832553)
(-0.0879919 -0.136239 -0.0165072)
(-0.0768758 -0.0867963 -0.0262787)
(-0.0618 -0.0235018 -0.032868)
(-0.0456643 0.04879 -0.0381664)
(-0.0314776 0.119667 -0.0428501)
(-0.0227407 0.173068 -0.0458443)
(-0.0220673 0.193058 -0.0440234)
(-0.0283127 0.173478 -0.0340617)
(-0.0378667 0.120979 -0.0153884)
(-0.048418 0.0498709 0.00812107)
(-0.0598743 -0.023861 0.0290986)
(-0.072388 -0.0874333 0.0405354)
(-0.0848052 -0.133729 0.0399682)
(-0.0953228 -0.160186 0.0303792)
(-0.0943579 -0.163658 0.0181654)
(-0.0911839 -0.169478 -0.0230574)
(-0.082291 -0.141776 -0.0415801)
(-0.0735464 -0.100179 -0.0516595)
(-0.059622 -0.0443832 -0.0550885)
(-0.0425681 0.0219393 -0.053884)
(-0.0245206 0.0905385 -0.0497588)
(-0.00877112 0.147386 -0.0435432)
(0.000273883 0.175728 -0.0340443)
(0.000298182 0.165396 -0.0186388)
(-0.0070612 0.120177 0.00355002)
(-0.0190803 0.0545457 0.0283221)
(-0.0342791 -0.0148251 0.047468)
(-0.0513004 -0.0755038 0.0537037)
(-0.0678283 -0.121159 0.0453721)
(-0.0813339 -0.149285 0.0268787)
(-0.0828128 -0.156235 0.00640417)
(-0.0680445 -0.162283 -0.039401)
(-0.0636596 -0.14377 -0.0604736)
(-0.0569781 -0.110941 -0.0710286)
(-0.0449666 -0.0638718 -0.0721679)
(-0.0289874 -0.00524162 -0.0658927)
(-0.0104112 0.058698 -0.054493)
(0.00821526 0.116543 -0.0400814)
(0.022473 0.152706 -0.0232448)
(0.02794 0.154192 -0.00258196)
(0.0236071 0.120167 0.0225258)
(0.0115861 0.0630688 0.0478278)
(-0.00557434 -0.000424089 0.0647785)
(-0.0250819 -0.057986 0.0661691)
(-0.0436517 -0.103537 0.051054)
(-0.0581776 -0.134222 0.0248953)
(-0.061408 -0.146341 -0.00319898)
(-0.0363318 -0.150905 -0.0469244)
(-0.0349822 -0.141374 -0.0702108)
(-0.0300291 -0.117269 -0.0814532)
(-0.0205738 -0.0789764 -0.0814503)
(-0.00744737 -0.0284023 -0.072052)
(0.00863191 0.0297281 -0.055686)
(0.0260294 0.0862906 -0.0351304)
(0.0413881 0.12777 -0.0123344)
(0.0500992 0.140421 0.0126292)
(0.0490859 0.119276 0.0396308)
(0.0387833 0.0729728 0.0645744)
(0.0219444 0.0168691 0.079221)
(0.00242197 -0.036992 0.0767919)
(-0.0157856 -0.0824362 0.0568354)
(-0.029283 -0.116059 0.0253004)
(-0.0328041 -0.134519 -0.00868387)
(-0.000620819 -0.136575 -0.0446542)
(7.20556e-05 -0.134741 -0.0693243)
(0.00372635 -0.118353 -0.0813935)
(0.01029 -0.0878819 -0.08163)
(0.0193392 -0.0447 -0.0715331)
(0.0307402 0.00747374 -0.0531648)
(0.0437375 0.0611694 -0.0293578)
(0.0563139 0.104883 -0.00288628)
(0.0649476 0.125678 0.0247369)
(0.065949 0.116357 0.0523691)
(0.0580808 0.0815837 0.0760401)
(0.0435114 0.033983 0.0884907)
(0.026523 -0.0153728 0.0838064)
(0.0113475 -0.0602084 0.0617828)
(0.00111116 -0.0965883 0.0281492)
(-0.000311054 -0.12165 -0.0086637)
(0.0344086 -0.121268 -0.0337966)
(0.0372657 -0.124934 -0.0582191)
(0.0401711 -0.114298 -0.0709718)
(0.0438784 -0.0897733 -0.0728748)
(0.0482754 -0.0525351 -0.0647553)
(0.0537196 -0.00574435 -0.0477449)
(0.060251 0.0442551 -0.024088)
(0.0670831 0.0875733 0.00316235)
(0.0721792 0.112701 0.0313276)
(0.0725057 0.112037 0.0581302)
(0.0661924 0.0873589 0.0796796)
(0.0547823 0.0480503 0.0901474)
(0.0424159 0.00353343 0.0849642)
(0.0329057 -0.0400351 0.0640708)
(0.028377 -0.0784432 0.032353)
(0.0320967 -0.10925 -0.00302757)
(0.0642054 -0.107514 -0.0173894)
(0.071639 -0.113736 -0.0391292)
(0.0746125 -0.105923 -0.0519419)
(0.0759949 -0.0846273 -0.0566049)
(0.075849 -0.0512407 -0.0529462)
(0.0748686 -0.0086999 -0.0405686)
(0.0737696 0.0374189 -0.0205107)
(0.0728345 0.0784669 0.00442697)
(0.0715298 0.104481 0.0307495)
(0.0681917 0.108414 0.0551609)
(0.0615169 0.0904628 0.0738149)
(0.0530123 0.0572608 0.0824591)
(0.046448 0.0165613 0.0782442)
(0.0446383 -0.0256437 0.0614402)
(0.0479179 -0.065035 0.0357352)
(0.0597037 -0.099412 0.00668671)
(0.0845554 -0.0980123 0.00076267)
(0.0979401 -0.103363 -0.0155715)
(0.102077 -0.094642 -0.0272848)
(0.102214 -0.0731875 -0.0351487)
(0.0983663 -0.041026 -0.0377908)
(0.0912491 -0.00112182 -0.0327573)
(0.0820719 0.0414823 -0.0192901)
(0.0721898 0.0791423 0.000499706)
(0.0625647 0.103285 0.0227182)
(0.053263 0.107747 0.0432422)
(0.0444668 0.0920531 0.058371)
(0.0382025 0.0610415 0.0653801)
(0.0376923 0.0214741 0.0631988)
(0.0443439 -0.0203993 0.0526182)
(0.0563537 -0.0598618 0.0361865)
(0.0774381 -0.0944536 0.0176828)
(0.0923567 -0.0948383 0.0175498)
(0.111464 -0.095888 0.00868351)
(0.117983 -0.0823046 -0.000642296)
(0.118426 -0.0570139 -0.0114478)
(0.112394 -0.0230625 -0.0212837)
(0.100162 0.0162717 -0.0253466)
(0.0832154 0.0562028 -0.0205647)
(0.0640386 0.0899284 -0.00799244)
(0.045304 0.110014 0.00832591)
(0.0291472 0.111224 0.0238362)
(0.0176242 0.0929703 0.0352496)
(0.0133681 0.0594049 0.0412534)
(0.0186229 0.0173645 0.042171)
(0.0330145 -0.0259399 0.0390656)
(0.0527888 -0.0648507 0.0334427)
(0.0813936 -0.0961317 0.0273361)
(0.0863266 -0.0986536 0.0317079)
(0.109396 -0.0925222 0.0305317)
(0.11919 -0.0708316 0.0242332)
(0.121558 -0.0383717 0.0111846)
(0.115265 0.000604018 -0.00568999)
(0.0995533 0.0420086 -0.0194053)
(0.0759028 0.0807612 -0.0241867)
(0.0481366 0.110478 -0.0198102)
(0.0209607 0.124598 -0.0102581)
(-0.0011997 0.118797 -3.39159e-05)
(-0.0145184 0.0931166 0.00839504)
(-0.0162918 0.0524103 0.0148583)
(-0.00595661 0.00474546 0.020197)
(0.0141107 -0.0412626 0.0249881)
(0.0388658 -0.0789628 0.0296215)
(0.0705087 -0.104472 0.034595)
(0.0672556 -0.10868 0.0430856)
(0.0918547 -0.0934389 0.0476137)
(0.104993 -0.0619703 0.0438252)
(0.110431 -0.020238 0.0292455)
(0.1058 0.0264033 0.00641083)
(0.0887114 0.0723879 -0.0161915)
(0.0600189 0.111434 -0.0301515)
(0.0250136 0.137084 -0.0336882)
(-0.00877938 0.143547 -0.030443)
(-0.0343576 0.127568 -0.0243361)
(-0.0470192 0.0906897 -0.0168525)
(-0.0453664 0.0398202 -0.00780647)
(-0.0311871 -0.0148982 0.00294541)
(-0.00850752 -0.063545 0.0148787)
(0.0174328 -0.0991002 0.0272902)
(0.0470887 -0.117923 0.0396035)
(0.0379591 -0.123751 0.0507129)
(0.0622152 -0.0981945 0.0574602)
(0.0775669 -0.0567849 0.0548562)
(0.0856732 -0.00571266 0.0394018)
(0.083316 0.0490435 0.0123346)
(0.0665636 0.100176 -0.0178582)
(0.0350258 0.139735 -0.0404824)
(-0.00457276 0.160864 -0.0511063)
(-0.0411818 0.158583 -0.0518098)
(-0.0657638 0.131134 -0.0460283)
(-0.0748023 0.0822786 -0.0356889)
(-0.0696107 0.0214014 -0.0218539)
(-0.0539675 -0.0395205 -0.0058255)
(-0.0322791 -0.0897796 0.0108744)
(-0.00876279 -0.122521 0.0271304)
(0.015779 -0.135017 0.0421476)
(0.00578211 -0.127078 0.0498803)
(0.0279771 -0.0961845 0.0559098)
(0.0417839 -0.0499915 0.0541519)
(0.0483622 0.00897402 0.0393465)
(0.0446455 0.0767433 0.0103416)
(0.0279467 0.143916 -0.0258986)
(-0.000615704 0.194568 -0.0568191)
(-0.0345239 0.212892 -0.0731799)
(-0.0645907 0.193129 -0.0738214)
(-0.0840048 0.142037 -0.0628165)
(-0.0905284 0.0735966 -0.0451797)
(-0.0855397 0.00259298 -0.0251189)
(-0.0721664 -0.0592035 -0.00574744)
(-0.0539973 -0.104663 0.0113966)
(-0.0344293 -0.130761 0.0262327)
(-0.0150167 -0.137366 0.0391201)
(-0.0134875 -0.17951 0.0486122)
(0.00919337 -0.136878 0.0451126)
(0.0231443 -0.0742035 0.0381024)
(0.0296293 0.000529378 0.0248947)
(0.0256972 0.0751259 0.00534957)
(0.0107326 0.135817 -0.0158803)
(-0.011553 0.172819 -0.0325643)
(-0.0355594 0.182883 -0.0416636)
(-0.0569641 0.166678 -0.043354)
(-0.0730157 0.126685 -0.0381711)
(-0.0817941 0.0674831 -0.026219)
(-0.0822817 -0.00323014 -0.00879042)
(-0.0753541 -0.0746421 0.0104865)
(-0.0633244 -0.134768 0.0270841)
(-0.0488419 -0.173907 0.0383956)
(-0.0327282 -0.186482 0.0445133)
(-0.0377669 -0.176439 0.0352491)
(-0.0218346 -0.137543 0.0289392)
(-0.00975683 -0.0792095 0.0225763)
(0.000962413 -0.0046574 0.0130205)
(0.00681674 0.0771091 -0.00115796)
(0.00333133 0.150392 -0.0179375)
(-0.0110987 0.197901 -0.0325245)
(-0.0322289 0.209907 -0.0405086)
(-0.0528825 0.186947 -0.0400554)
(-0.0676235 0.135809 -0.0312827)
(-0.0743042 0.0664708 -0.0157858)
(-0.0737866 -0.00931927 0.00284033)
(-0.0687691 -0.079732 0.0195896)
(-0.0620777 -0.134845 0.0306437)
(-0.0554817 -0.16876 0.0354601)
(-0.0470713 -0.178415 0.036144)
(-0.0542591 -0.184004 0.0162486)
(-0.0427838 -0.146591 0.00635783)
(-0.0331744 -0.0914773 0.000318003)
(-0.0216922 -0.0203755 -0.00508969)
(-0.0107777 0.0597253 -0.0121843)
(-0.00471056 0.135072 -0.0212703)
(-0.0077589 0.187526 -0.0300078)
(-0.0198597 0.203677 -0.0342196)
(-0.0355083 0.182114 -0.0306185)
(-0.0487479 0.13052 -0.0186448)
(-0.0568453 0.0603041 -0.000785436)
(-0.060306 -0.0158552 0.0177017)
(-0.0612045 -0.0857436 0.0308257)
(-0.0612843 -0.139931 0.0352106)
(-0.0611394 -0.173053 0.0320088)
(-0.0569881 -0.181887 0.0254995)
(-0.0608411 -0.184396 -0.0066545)
(-0.0533811 -0.15208 -0.0197635)
(-0.0460671 -0.103633 -0.0256662)
(-0.034874 -0.039526 -0.0272302)
(-0.021206 0.0354045 -0.0271409)
(-0.00809364 0.110405 -0.0272195)
(-0.000380504 0.168451 -0.0275553)
(-0.00195181 0.192621 -0.0256079)
(-0.0113543 0.176838 -0.0177462)
(-0.0233973 0.127954 -0.0026169)
(-0.0341815 0.0590437 0.016846)
(-0.0427966 -0.0157331 0.0341074)
(-0.0499075 -0.0838495 0.0424443)
(-0.0559611 -0.136453 0.0391459)
(-0.0606506 -0.168888 0.0270217)
(-0.0593015 -0.178052 0.0124435)
(-0.0572579 -0.18011 -0.0295176)
(-0.0533115 -0.154725 -0.0453813)
(-0.0478264 -0.11452 -0.0514052)
(-0.037457 -0.059321 -0.0498614)
(-0.022936 0.00790321 -0.0434946)
(-0.00617652 0.0794115 -0.0349685)
(0.00868666 0.140986 -0.0261567)
(0.0159795 0.174719 -0.0166018)
(0.0130233 0.169165 -0.00349241)
(0.00275792 0.127375 0.0148565)
(-0.0101497 0.0627311 0.0353382)
(-0.0230872 -0.00912159 0.050566)
(-0.035135 -0.0750839 0.0535319)
(-0.0455362 -0.126583 0.0423711)
(-0.0532937 -0.159281 0.0213963)
(-0.0538497 -0.170283 -0.00136249)
(-0.0447675 -0.171695 -0.0481225)
(-0.043285 -0.154029 -0.0663184)
(-0.0391425 -0.122601 -0.0726568)
(-0.0302486 -0.0769452 -0.0688872)
(-0.0169452 -0.0185838 -0.0576536)
(-0.000279914 0.0471614 -0.041987)
(0.0168783 0.109172 -0.0248415)
(0.0293288 0.151003 -0.00757592)
(0.0320934 0.157814 0.0110638)
(0.024888 0.127019 0.0323816)
(0.0116598 0.0698163 0.0531875)
(-0.00369485 0.00256461 0.0658409)
(-0.0186566 -0.0608538 0.0635121)
(-0.031361 -0.111679 0.0452274)
(-0.040284 -0.145467 0.0164977)
(-0.0417334 -0.159658 -0.0136527)
(-0.0254914 -0.159592 -0.0589693)
(-0.0248515 -0.14965 -0.0789719)
(-0.0215533 -0.12677 -0.0857498)
(-0.0147374 -0.090229 -0.0808186)
(-0.0044997 -0.0404832 -0.0665855)
(0.00884479 0.0188135 -0.0460315)
(0.0237732 0.0789317 -0.0225674)
(0.0367351 0.125735 0.00116469)
(0.0427973 0.143679 0.0246989)
(0.0392067 0.12548 0.0482875)
(0.0277744 0.0782094 0.0686479)
(0.0124878 0.017332 0.0784757)
(-0.00291902 -0.0428097 0.071589)
(-0.0156149 -0.0929776 0.04785)
(-0.0237025 -0.128345 0.0135305)
(-0.024578 -0.14677 -0.022072)
(-0.00180988 -0.145074 -0.060188)
(-3.8363e-05 -0.142078 -0.0811749)
(0.00291267 -0.126697 -0.0885124)
(0.00721483 -0.0979488 -0.0837715)
(0.0129763 -0.0556163 -0.0689134)
(0.0206247 -0.00239923 -0.0463966)
(0.0299578 0.0545036 -0.019509)
(0.0393132 0.103025 0.00839777)
(0.045216 0.128682 0.035348)
(0.0441539 0.12195 0.0601834)
(0.035666 0.0856578 0.0794114)
(0.0226731 0.0326572 0.0865417)
(0.00935811 -0.0232363 0.0764693)
(-0.000846772 -0.0724018 0.0497972)
(-0.00596327 -0.109522 0.0130377)
(-0.00416445 -0.132768 -0.0249007)
(0.0235762 -0.130092 -0.0520192)
(0.0285295 -0.132441 -0.0727436)
(0.0316095 -0.12261 -0.0807364)
(0.0331966 -0.0994692 -0.0777282)
(0.0336172 -0.0626617 -0.0649309)
(0.0340719 -0.0145382 -0.0437417)
(0.0356525 0.0385919 -0.0167891)
(0.0384421 0.0862367 0.0123672)
(0.0408123 0.115644 0.040622)
(0.0398743 0.117207 0.0654174)
(0.0339389 0.0908626 0.0829545)
(0.0245547 0.0461048 0.0878406)
(0.0155396 -0.00490885 0.0763974)
(0.0102938 -0.0526515 0.0499083)
(0.0103838 -0.0914242 0.014575)
(0.0174104 -0.119449 -0.0216984)
(0.0474833 -0.117067 -0.0368864)
(0.057263 -0.122316 -0.0555366)
(0.0610267 -0.115113 -0.0640284)
(0.0601307 -0.094578 -0.0641399)
(0.0550098 -0.0608667 -0.0559485)
(0.0475845 -0.0164488 -0.039243)
(0.0401997 0.0328632 -0.0155258)
(0.0345312 0.0778083 0.0118228)
(0.0307316 0.107463 0.0389525)
(0.0272284 0.113292 0.0621605)
(0.0223741 0.0939206 0.0774298)
(0.0168746 0.0559088 0.0806221)
(0.0137189 0.00925258 0.0697158)
(0.0155197 -0.0370945 0.0466065)
(0.0227783 -0.0772368 0.0167008)
(0.0374405 -0.109098 -0.0135426)
(0.0663674 -0.10851 -0.0184313)
(0.0818279 -0.113544 -0.0328893)
(0.0869571 -0.105198 -0.0413097)
(0.0843583 -0.0836245 -0.0453485)
(0.074299 -0.0501482 -0.0436655)
(0.0591504 -0.00773998 -0.0339757)
(0.0424071 0.0380977 -0.0162459)
(0.0272944 0.0791796 0.00659745)
(0.015669 0.106297 0.0302093)
(0.00755605 0.112361 0.0501745)
(0.00225701 0.095759 0.0625505)
(0.000329176 0.0611319 0.06459)
(0.00375692 0.0167023 0.0559385)
(0.013754 -0.029149 0.0389311)
(0.0292165 -0.0703003 0.0177863)
(0.0526031 -0.104059 -0.00275809)
(0.0770757 -0.106242 -0.000119989)
(0.0978604 -0.107788 -0.00864637)
(0.105069 -0.0942891 -0.0161424)
(0.102089 -0.0677745 -0.0241169)
(0.0885551 -0.0313649 -0.0298536)
(0.066757 0.0110364 -0.0287424)
(0.0411593 0.0540688 -0.0188767)
(0.0165886 0.090593 -0.00254668)
(-0.0033347 0.112971 0.0156447)
(-0.0168386 0.115545 0.031008)
(-0.0232885 0.097037 0.0401582)
(-0.0219622 0.061315 0.0418427)
(-0.0120431 0.0158429 0.0370225)
(0.00590887 -0.0310601 0.0279825)
(0.028994 -0.0727951 0.0174445)
(0.0597725 -0.105868 0.00821567)
(0.0776497 -0.110695 0.0160224)
(0.102102 -0.105994 0.0138159)
(0.111824 -0.0840431 0.00786848)
(0.11004 -0.0490893 -0.00334407)
(0.0952151 -0.00643159 -0.0162921)
(0.068762 0.0384678 -0.0241908)
(0.0358001 0.0799181 -0.0229803)
(0.0029034 0.11162 -0.01417)
(-0.0244041 0.127328 -0.00241511)
(-0.0425873 0.122766 0.00784313)
(-0.0497547 0.0976052 0.0143011)
(-0.045236 0.0562197 0.0170368)
(-0.0296964 0.00648864 0.0174873)
(-0.0055573 -0.0427468 0.017112)
(0.0228008 -0.084397 0.0169657)
(0.0571935 -0.114349 0.0180299)
(0.0677278 -0.121149 0.0291775)
(0.093442 -0.108355 0.0318629)
(0.105511 -0.0762228 0.0274557)
(0.106255 -0.0306633 0.0141161)
(0.0927641 0.0209595 -0.0048401)
(0.0645525 0.0707701 -0.0211505)
(0.0264926 0.111851 -0.0284767)
(-0.0129979 0.138477 -0.0271664)
(-0.0458945 0.145831 -0.0215655)
(-0.0667459 0.131158 -0.0153721)
(-0.0730751 0.0957229 -0.00971788)
(-0.0651955 0.0455224 -0.00398083)
(-0.0455795 -0.0102858 0.00260725)
(-0.0181999 -0.0621779 0.0100879)
(0.0118408 -0.102834 0.0180687)
(0.0450786 -0.128035 0.0262352)
(0.0487114 -0.137236 0.0385532)
(0.0735833 -0.115069 0.0432692)
(0.0869803 -0.0724298 0.0398068)
(0.0903345 -0.0161689 0.0257302)
(0.0799301 0.0448507 0.00291867)
(0.0530102 0.100144 -0.0205887)
(0.0128819 0.140997 -0.0363218)
(-0.030497 0.16208 -0.0420946)
(-0.0658814 0.160195 -0.0407326)
(-0.0861736 0.134445 -0.0352997)
(-0.0897903 0.088095 -0.027087)
(-0.0790654 0.0289418 -0.0164529)
(-0.0580447 -0.0327138 -0.00404755)
(-0.0312042 -0.0868435 0.00892347)
(-0.00312893 -0.125982 0.0213298)
(0.0254126 -0.146092 0.0324162)
(0.0255239 -0.139876 0.0408837)
(0.0480534 -0.113394 0.0447646)
(0.0600734 -0.0668672 0.0421802)
(0.0626365 -0.00322716 0.0297167)
(0.0527041 0.0710772 0.00661899)
(0.0283208 0.142813 -0.0210917)
(-0.00709368 0.194284 -0.0437305)
(-0.0446313 0.212028 -0.0552199)
(-0.0746712 0.193414 -0.0555031)
(-0.0915112 0.145705 -0.0474436)
(-0.0941682 0.0809765 -0.0340377)
(-0.0847789 0.0116984 -0.0179614)
(-0.0667306 -0.0515657 -0.00173257)
(-0.0437996 -0.101572 0.0126852)
(-0.0198473 -0.134146 0.0245486)
(0.0032776 -0.147791 0.0340037)
(0.0279938 -0.165531 0.0416516)
(0.0459104 -0.134354 0.0412385)
(0.053122 -0.0784559 0.0372083)
(0.0519281 -0.00665873 0.0283399)
(0.0406567 0.0667316 0.0144322)
(0.0193701 0.12562 -0.00133675)
(-0.00743888 0.159968 -0.0146812)
(-0.0334057 0.168228 -0.0236891)
(-0.0539942 0.153019 -0.0281689)
(-0.0668311 0.117886 -0.0275052)
(-0.0706503 0.0670923 -0.020615)
(-0.0650124 0.00635745 -0.00771549)
(-0.0510139 -0.0567379 0.00836261)
(-0.0315313 -0.113165 0.0234547)
(-0.0107017 -0.154347 0.0342767)
(0.0095966 -0.174283 0.0398088)
(0.00738326 -0.161337 0.0278133)
(0.0179807 -0.132646 0.0255352)
(0.0239733 -0.0815708 0.023384)
(0.0286061 -0.0119746 0.0191526)
(0.0297299 0.0664614 0.0108475)
(0.0229189 0.136953 -0.00103075)
(0.00618662 0.181833 -0.0131254)
(-0.0161292 0.19278 -0.0215829)
(-0.0366174 0.172291 -0.0241019)
(-0.0499178 0.127764 -0.0198323)
(-0.053935 0.0677993 -0.00932018)
(-0.0492668 0.00134606 0.00483319)
(-0.0384725 -0.062554 0.018332)
(-0.0252017 -0.115531 0.027332)
(-0.0130213 -0.151429 0.0307627)
(-0.00247354 -0.166901 0.030045)
(-0.00856238 -0.16697 0.010034)
(-0.00307361 -0.139327 0.00424336)
(0.00103849 -0.0919636 0.00267175)
(0.0074833 -0.0273208 0.00267429)
(0.0152961 0.0478169 0.00135201)
(0.0202462 0.119919 -0.00291525)
(0.0169346 0.170848 -0.0091901)
(0.00444988 0.187556 -0.0139552)
(-0.0116844 0.16958 -0.0134779)
(-0.0249173 0.124931 -0.00616828)
(-0.0317816 0.063645 0.00660105)
(-0.0320919 -0.00420042 0.0205577)
(-0.0279138 -0.0687112 0.030304)
(-0.0221669 -0.121258 0.0323206)
(-0.0172529 -0.155914 0.0273117)
(-0.0126076 -0.169746 0.0189783)
(-0.0196552 -0.165679 -0.0122418)
(-0.0180324 -0.141857 -0.0216037)
(-0.0155261 -0.101348 -0.0231081)
(-0.00854916 -0.0450315 -0.019511)
(0.00286081 0.0231666 -0.0139987)
(0.0158531 0.0936843 -0.0093609)
(0.0245696 0.150377 -0.00691948)
(0.0236231 0.176424 -0.00508475)
(0.0138358 0.165427 -8.33909e-05)
(0.00113786 0.123759 0.0104439)
(-0.00926804 0.063075 0.0247801)
(-0.0154903 -0.00464811 0.0373977)
(-0.0182842 -0.0684245 0.0420548)
(-0.0193826 -0.119416 0.0359226)
(-0.0201648 -0.152307 0.0215419)
(-0.0193917 -0.164984 0.00481399)
(-0.0253459 -0.159889 -0.0359864)
(-0.026307 -0.141331 -0.048397)
(-0.024853 -0.108977 -0.0500718)
(-0.0179325 -0.0624344 -0.0436346)
(-0.00523086 -0.003293 -0.0322896)
(0.0115043 0.0623694 -0.0193194)
(0.0275471 0.121841 -0.00746298)
(0.0360289 0.157719 0.00271745)
(0.0332188 0.157654 0.0136997)
(0.0223412 0.123155 0.0278553)
(0.00944821 0.0659131 0.0432712)
(-0.00166216 -7.53712e-05 0.0536093)
(-0.0100963 -0.0623204 0.0523726)
(-0.0163356 -0.111649 0.0377305)
(-0.0209432 -0.143211 0.0140077)
(-0.0225021 -0.155713 -0.0109995)
(-0.0255444 -0.150403 -0.0570601)
(-0.0275099 -0.137904 -0.0716656)
(-0.0265093 -0.114107 -0.0734567)
(-0.0203064 -0.0775466 -0.0648383)
(-0.00857536 -0.0279866 -0.0489218)
(0.00769318 0.0310407 -0.029119)
(0.0253466 0.0899946 -0.00886784)
(0.0386018 0.133251 0.00967142)
(0.0416879 0.145247 0.0270802)
(0.0341895 0.121368 0.0447951)
(0.0210698 0.0706994 0.0606006)
(0.0073502 0.00839275 0.0679384)
(-0.00443505 -0.0514661 0.06067)
(-0.013525 -0.0990979 0.0381475)
(-0.0198362 -0.129856 0.00623274)
(-0.0221851 -0.143157 -0.0259156)
(-0.0203625 -0.137872 -0.0715347)
(-0.0215652 -0.131765 -0.0872689)
(-0.0204754 -0.116299 -0.0889655)
(-0.0157327 -0.0889832 -0.078917)
(-0.00707984 -0.048184 -0.0600443)
(0.00517587 0.00416814 -0.0355863)
(0.0194776 0.0606334 -0.00914834)
(0.0321904 0.107805 0.0161562)
(0.0381326 0.129765 0.0391327)
(0.0344446 0.117448 0.0596857)
(0.0235029 0.0757623 0.0750712)
(0.0100596 0.0192123 0.0790274)
(-0.0022448 -0.0371275 0.0663203)
(-0.011567 -0.082824 0.0375591)
(-0.0172879 -0.113209 -0.000267462)
(-0.0186571 -0.128236 -0.037287)
(-0.00993215 -0.123671 -0.0766759)
(-0.00866807 -0.123697 -0.0924523)