/*--------------------------------*- C++ -*----------------------------------*\
| =========                 |                                                 |
| \\      /  F ield         | OpenFOAM: The Open Source CFD Toolbox           |
|  \\    /   O peration     | Version:  3.0.0                                 |
|   \\  /    A nd           | Web:      www.OpenFOAM.org                      |
|    \\/     M anipulation  |                                                 |
\*---------------------------------------------------------------------------*/
FoamFile
{
    version     2.0;
    format      ascii;
    class       volScalarField;
    location    "5";
    object      p;
}
// * * * * * * * * * * * * * * * * * * * * * * * * * * * * * * * * * * * * * //

dimensions      [0 2 -2 0 0 0 0];

internalField   nonuniform List<scalar> 
4096
(
-0.0357059
-0.0494863
-0.0535675
-0.0507005
-0.0413277
-0.0272065
-0.0119217
0.000753144
0.00859644
0.0115599
0.0109485
0.008011
0.00298211
-0.00486148
-0.0160985
-0.0262586
-0.0341741
-0.047243
-0.0492214
-0.0466326
-0.0397315
-0.0290976
-0.0166235
-0.00473526
0.00434517
0.00963807
0.0110205
0.00869089
0.00276532
-0.00677564
-0.0190402
-0.0260964
-0.0192282
-0.0339434
-0.0358611
-0.0342072
-0.0290345
-0.0206207
-0.0106539
-0.00134759
0.0055782
0.00960007
0.0110391
0.0101999
0.00688795
0.000292552
-0.00932212
-0.01163
-0.00120033
-0.0160864
-0.0176613
-0.0172388
-0.014722
-0.0100041
-0.00423984
0.0011112
0.00508489
0.00769111
0.00949504
0.0107288
0.0107565
0.00799806
0.0022069
0.00523937
0.017111
0.00365368
0.00259055
0.00174755
0.00122015
0.00155298
0.00231442
0.00300943
0.00356634
0.00455898
0.00672519
0.0101352
0.0137253
0.0152224
0.0138533
0.0217405
0.0330731
0.0224138
0.0218888
0.0199322
0.016796
0.0131431
0.00918002
0.00530464
0.00230621
0.00138579
0.00350632
0.00865807
0.0154384
0.0210343
0.0240946
0.035547
0.0443487
0.0373489
0.0373535
0.0347619
0.0298373
0.0232861
0.0157074
0.00811215
0.00199459
-0.000929806
0.000599242
0.00662052
0.0155572
0.0243719
0.0311667
0.0444807
0.049361
0.0462646
0.0467473
0.0440233
0.0383494
0.0303449
0.0207615
0.0108555
0.00257474
-0.0020747
-0.00156608
0.00429098
0.0139898
0.0245643
0.0338561
0.0473181
0.0477642
0.0480406
0.0489042
0.0464648
0.0409481
0.0328586
0.0229742
0.0123442
0.00311902
-0.0025991
-0.00319242
0.00169446
0.0107914
0.0215169
0.0317794
0.0440667
0.040353
0.0427358
0.0438586
0.0420026
0.0373183
0.0301824
0.021198
0.0115069
0.00252694
-0.00342407
-0.00482591
-0.00126487
0.00628565
0.0157843
0.0255037
0.0359239
0.0285223
0.0313757
0.0326584
0.0315488
0.0281832
0.0228315
0.0158505
0.00796178
0.000494032
-0.00482868
-0.00657139
-0.00430039
0.00125355
0.00856563
0.0164086
0.024629
0.0137595
0.015527
0.0167337
0.0164681
0.0148595
0.0120461
0.00803853
0.00304924
-0.00203151
-0.00594207
-0.00751238
-0.00636995
-0.00304085
0.00139047
0.00621603
0.0118172
-0.00255402
-0.00286322
-0.0022142
-0.0016363
-0.00104766
-0.000539803
-0.000596065
-0.00180827
-0.00352373
-0.0054261
-0.00641321
-0.00631377
-0.00542284
-0.00443294
-0.00355836
-0.00163537
-0.0189782
-0.0216008
-0.0219903
-0.0207551
-0.0178947
-0.0137484
-0.00917146
-0.00555215
-0.00349009
-0.00285313
-0.003099
-0.00406571
-0.00590381
-0.00882712
-0.0124934
-0.0152949
-0.03276
-0.0378013
-0.0391627
-0.0375867
-0.0330952
-0.0261296
-0.0172581
-0.00897425
-0.00270527
0.000843354
0.00160694
-0.000391423
-0.00499987
-0.0117786
-0.0198014
-0.0271433
-0.0329877
-0.0435187
-0.0478957
-0.0463751
-0.0389286
-0.0268147
-0.0129366
-0.00108057
0.00628969
0.00889644
0.0080543
0.00517027
0.000703933
-0.0058716
-0.0150274
-0.0250281
-0.0418609
-0.0530207
-0.0547109
-0.0488964
-0.0371711
-0.0226416
-0.00905935
0.000960632
0.00663597
0.00849084
0.00746267
0.00418303
-0.00134612
-0.00977038
-0.0214674
-0.0331085
-0.0392618
-0.0499998
-0.050956
-0.0469077
-0.0388522
-0.028059
-0.0165729
-0.00624914
0.00163915
0.00650094
0.00801124
0.00583707
-0.000277835
-0.0101687
-0.022824
-0.0321055
-0.0247952
-0.0371274
-0.0385509
-0.0359113
-0.0298589
-0.0213366
-0.0121418
-0.00398919
0.0022179
0.00628753
0.00821262
0.00769744
0.00420354
-0.00285031
-0.0129159
-0.0181081
-0.00688778
-0.0195523
-0.0210273
-0.0200673
-0.0169617
-0.0121597
-0.00689704
-0.00223368
0.00147481
0.00446329
0.00693131
0.00851692
0.00829488
0.00499753
-0.00132861
-0.00138252
0.0117936
6.11799e-05
-0.00118437
-0.00198819
-0.0021805
-0.00174788
-0.00116574
-0.000662813
7.33609e-05
0.00171414
0.0046291
0.00834469
0.0115595
0.0123766
0.0103757
0.0155208
0.028822
0.0188877
0.0179546
0.0157735
0.0126144
0.00895828
0.00504833
0.00139606
-0.00101554
-0.00104178
0.00192181
0.00736374
0.0137041
0.0184897
0.0208025
0.0303135
0.0414759
0.0340512
0.0334772
0.0303462
0.025039
0.0183222
0.0108594
0.00372655
-0.00152456
-0.00332406
-0.000784375
0.00566406
0.0142827
0.0223135
0.0283177
0.0407021
0.0479264
0.0433344
0.043088
0.0395773
0.0332108
0.0248136
0.0152157
0.00579318
-0.0015965
-0.00504272
-0.00336594
0.00319305
0.0129274
0.0230303
0.0316651
0.0451698
0.0473616
0.0455143
0.045545
0.0422096
0.0359064
0.027291
0.0170485
0.0067784
-0.00180043
-0.00655816
-0.00604325
-0.000234452
0.00937529
0.0201792
0.0301727
0.0432041
0.0400322
0.0404641
0.0407815
0.0381265
0.0328481
0.0253454
0.0160552
0.00599859
-0.00273415
-0.00832031
-0.00906395
-0.00465184
0.00374682
0.0139075
0.0239275
0.035354
0.0272201
0.0290098
0.0296994
0.0281874
0.0247123
0.0193646
0.0121814
0.00377187
-0.00436731
-0.0102133
-0.0120619
-0.00941236
-0.00305313
0.00525711
0.0139431
0.023098
0.0107328
0.0126572
0.0138105
0.0138167
0.0127778
0.010428
0.00631236
0.000473874
-0.00601704
-0.0113681
-0.0139081
-0.0130271
-0.00925053
-0.0038539
0.00206224
0.00833601
-0.00725855
-0.00645259
-0.00501938
-0.00326957
-0.00136138
5.63392e-06
-0.000226755
-0.00263337
-0.00655946
-0.0105665
-0.0131812
-0.0138462
-0.0129386
-0.0113354
-0.00950253
-0.00704794
-0.0245753
-0.025706
-0.0244944
-0.0212396
-0.0163898
-0.0110988
-0.00702145
-0.00529971
-0.00584967
-0.007623
-0.00959189
-0.0114467
-0.0135214
-0.0162106
-0.0193178
-0.0216259
-0.0384787
-0.0419332
-0.0414729
-0.0375632
-0.0308066
-0.0225592
-0.0146599
-0.00869059
-0.00511935
-0.00369029
-0.00418921
-0.00675157
-0.0116145
-0.0184868
-0.0263938
-0.0334582
-0.040281
-0.048911
-0.0509356
-0.0463099
-0.0360844
-0.0229936
-0.0107097
-0.00185776
0.00293192
0.00429863
0.00313229
1.38582e-05
-0.00497293
-0.012225
-0.0219434
-0.0324985
-0.0394192
-0.047335
-0.0474595
-0.0406459
-0.0287801
-0.0151241
-0.00318406
0.00487675
0.00862162
0.00878225
0.00641178
0.00221163
-0.00373104
-0.0117984
-0.0222262
-0.0331178
-0.0388367
-0.0465247
-0.0467196
-0.0418338
-0.0330483
-0.0218182
-0.010363
-0.000761641
0.00576028
0.00890118
0.00873049
0.00521681
-0.00167274
-0.0116146
-0.0235646
-0.033735
-0.0283426
-0.0369598
-0.0374925
-0.0336798
-0.0263694
-0.0168918
-0.00719142
0.000942323
0.0065804
0.0095892
0.0100603
0.00785422
0.00270834
-0.00543515
-0.0157597
-0.0234005
-0.0134599
-0.0222066
-0.0229096
-0.0207041
-0.0162212
-0.0101589
-0.00389592
0.00143131
0.00535072
0.0079391
0.00927211
0.00902647
0.00661907
0.00151814
-0.00575021
-0.00933257
0.0032975
-0.00491663
-0.005692
-0.00540547
-0.00435239
-0.00259718
-0.00070426
0.000984742
0.00257824
0.0044351
0.00663005
0.0086283
0.0094741
0.00813547
0.00477117
0.00597314
0.019461
0.0121827
0.0114232
0.00989368
0.00767275
0.00517003
0.00259755
0.000379941
-0.000737815
-1.26368e-05
0.00274275
0.00684004
0.0109781
0.0135881
0.0143719
0.0202403
0.0324162
0.0263281
0.0255767
0.022627
0.0177997
0.011875
0.0055402
-0.000173148
-0.00393982
-0.00458866
-0.00171994
0.00395581
0.0108725
0.017015
0.0215363
0.03114
0.0401309
0.0353787
0.0346078
0.0308135
0.024458
0.0164413
0.00763886
-0.000602641
-0.00655687
-0.0086515
-0.00617743
0.000273945
0.00903807
0.0177882
0.02516
0.0370133
0.0414891
0.0381738
0.0373612
0.03336
0.026688
0.0181194
0.00840508
-0.00110011
-0.00851521
-0.0119603
-0.0103607
-0.00405013
0.00539949
0.0155535
0.0246556
0.0370785
0.0364873
0.0346325
0.0338119
0.0301969
0.024329
0.0166588
0.0075542
-0.00195421
-0.0100069
-0.0145693
-0.0141908
-0.00886113
0.000128007
0.0104237
0.020096
0.0316058
0.0261995
0.0255841
0.0247976
0.0221411
0.0179844
0.0123774
0.00514895
-0.00319888
-0.0110904
-0.0163745
-0.0173411
-0.0135596
-0.0060504
0.00321446
0.0122995
0.02185
0.0123683
0.0124271
0.0119004
0.0105702
0.00877334
0.00608985
0.00170091
-0.00452844
-0.0114036
-0.0168303
-0.0189227
-0.0169884
-0.0116684
-0.00455217
0.00269111
0.00962136
-0.00309423
-0.00323978
-0.00335361
-0.0029906
-0.00194294
-0.00108678
-0.00190997
-0.0052208
-0.0102532
-0.0150876
-0.0178462
-0.017713
-0.0150878
-0.0111684
-0.00712756
-0.00344578
-0.0185514
-0.0197578
-0.0195046
-0.0173575
-0.01337
-0.00879575
-0.00567279
-0.00540941
-0.00772293
-0.0110466
-0.0137748
-0.0152063
-0.0156164
-0.0157509
-0.0161183
-0.0164893
-0.0321742
-0.0349909
-0.0347951
-0.0314017
-0.0251303
-0.0174107
-0.0105096
-0.00624579
-0.00493381
-0.00569426
-0.00755942
-0.0101798
-0.0137122
-0.0182704
-0.0235313
-0.0283886
-0.0379922
-0.0444267
-0.0449871
-0.0393862
-0.0287809
-0.0161881
-0.00537892
0.00132465
0.00380424
0.00319303
0.000671019
-0.00311564
-0.00812133
-0.014684
-0.02302
-0.0321101
-0.0314273
-0.0368985
-0.0360201
-0.0293535
-0.0187836
-0.00711577
0.00279243
0.00917238
0.0116715
0.011024
0.00825675
0.00401271
-0.00163651
-0.00894403
-0.0179104
-0.0270419
-0.0335469
-0.0391795
-0.0385902
-0.0332438
-0.0242977
-0.0133079
-0.00266292
0.00560131
0.0105024
0.0120873
0.0107271
0.00659831
-0.00027198
-0.00956176
-0.0203352
-0.0299838
-0.0281212
-0.0336453
-0.03298
-0.0280478
-0.0199934
-0.0103276
-0.00108419
0.00610941
0.0105492
0.01228
0.0114937
0.00813977
0.00210465
-0.00641714
-0.0164022
-0.0247443
-0.0178977
-0.0228909
-0.0223457
-0.0187934
-0.0131182
-0.00639975
-3.18902e-05
0.00494087
0.00816127
0.00973985
0.00974196
0.00790556
0.00390088
-0.0022855
-0.00977945
-0.0151368
-0.00504003
-0.00928597
-0.00894254
-0.00727478
-0.00486408
-0.00207112
0.000456017
0.00235931
0.00373177
0.0048507
0.0056994
0.00583794
0.00465332
0.00180073
-0.00210086
-0.0033884
0.00836158
0.00480998
0.00490412
0.00455944
0.00364051
0.00232974
0.000712213
-0.000870193
-0.0017907
-0.00148645
8.13273e-05
0.00230951
0.00432687
0.00525199
0.00536739
0.00849265
0.0200269
0.0168809
0.0166517
0.0145499
0.0107863
0.00596649
0.000677145
-0.00416438
-0.00740795
-0.00811764
-0.00610166
-0.00201804
0.00293859
0.00752136
0.0113352
0.0184514
0.0279966
0.0249395
0.0243227
0.0209839
0.015356
0.00823264
0.000403542
-0.00689824
-0.0121012
-0.013887
-0.0117888
-0.00642862
0.000830583
0.00827873
0.0149178
0.0248521
0.0310178
0.0279239
0.0268863
0.0229733
0.0167057
0.00879861
-5.84393e-05
-0.00870435
-0.0152277
-0.018041
-0.0162947
-0.0104401
-0.00189649
0.00730259
0.0156229
0.02677
0.028806
0.0257995
0.024354
0.0205286
0.0148232
0.00763167
-0.000776113
-0.00946517
-0.0165938
-0.0203565
-0.0193489
-0.0138433
-0.00513821
0.00461047
0.0134843
0.0241789
0.0220969
0.0193831
0.0175851
0.0144042
0.0102441
0.00501098
-0.00165468
-0.00932019
-0.0163763
-0.0207318
-0.0207967
-0.0163647
-0.00853302
0.000643781
0.00907129
0.0179763
0.0122609
0.00994702
0.00797135
0.00583972
0.00388612
0.00147023
-0.00250925
-0.00826671
-0.014527
-0.0191591
-0.0203114
-0.0174363
-0.0113148
-0.00373502
0.003297
0.00959798
0.000911294
-0.00124736
-0.00306358
-0.00381896
-0.00318786
-0.00230858
-0.00301356
-0.00620646
-0.0110141
-0.0153976
-0.0174371
-0.0163347
-0.0125794
-0.00758235
-0.00298781
0.00034615
-0.0109705
-0.0133939
-0.0146742
-0.0137804
-0.0105288
-0.0063255
-0.00352922
-0.00365538
-0.0063051
-0.00973396
-0.0121988
-0.0128468
-0.0119618
-0.010485
-0.00944781
-0.00935064
-0.0227023
-0.0259021
-0.0265228
-0.0239695
-0.0183303
-0.0111179
-0.00489591
-0.00161194
-0.00141452
-0.00310977
-0.00538252
-0.00762617
-0.00992601
-0.01266
-0.0160277
-0.0194367
-0.0313823
-0.0358724
-0.0351801
-0.0291448
-0.0190509
-0.00788464
0.000991055
0.00585729
0.00697199
0.00552921
0.00260391
-0.00130484
-0.00617979
-0.0122493
-0.0195317
-0.0269892
-0.0184856
-0.0235805
-0.0227407
-0.0174116
-0.00889077
0.00082242
0.00941394
0.0151293
0.0174521
0.0170117
0.0147564
0.0112337
0.00654288
0.000252537
-0.00749093
-0.0143687
-0.0237128
-0.0289928
-0.0279995
-0.0226866
-0.0140758
-0.00388729
0.00560958
0.0125472
0.0162655
0.0170622
0.0154132
0.0114901
0.00522692
-0.00304124
-0.0127639
-0.0202439
-0.0226232
-0.0270138
-0.0253232
-0.0198928
-0.0119462
-0.00298376
0.00505706
0.0108831
0.0141097
0.0149452
0.0136
0.010007
0.00406058
-0.00400978
-0.0132947
-0.0199135
-0.0173816
-0.0204827
-0.0186754
-0.0142714
-0.0083004
-0.00190959
0.00359545
0.00743479
0.00950103
0.010024
0.00907392
0.00646799
0.00198208
-0.00423391
-0.0112452
-0.0155096
-0.00948063
-0.0110999
-0.00943905
-0.00673919
-0.00361923
-0.000682408
0.00144263
0.00254003
0.00286308
0.00280087
0.00227494
0.00110804
-0.00107121
-0.0042741
-0.00774764
-0.00864216
-0.000274963
-0.000594742
0.000718284
0.00147045
0.00143561
0.000604164
-0.00102342
-0.00308292
-0.00489569
-0.00585501
-0.00586139
-0.00529647
-0.00468806
-0.00421839
-0.00361668
-0.000708271
0.00850893
0.00877039
0.00956181
0.00847188
0.00564557
0.00148128
-0.00354836
-0.00857999
-0.0124872
-0.0143496
-0.013888
-0.0115711
-0.00805865
-0.00404222
0.000291398
0.00673059
0.0152398
0.0151758
0.015353
0.012875
0.00814324
0.00175131
-0.00565703
-0.0128936
-0.0184656
-0.0211155
-0.0203452
-0.0165505
-0.0106428
-0.00380284
0.00321685
0.0122692
0.0187263
0.0176846
0.0171983
0.013998
0.00856579
0.00142365
-0.00687385
-0.0151684
-0.0217289
-0.0249761
-0.0241316
-0.0194781
-0.0120954
-0.00356928
0.0047692
0.0149986
0.0185196
0.0163246
0.015169
0.0119372
0.0070478
0.000699436
-0.00697427
-0.015078
-0.0218673
-0.025515
-0.0249141
-0.0201744
-0.0123993
-0.0034389
0.00492664
0.0146732
0.0150266
0.0118995
0.0100953
0.00739669
0.00406981
-0.000205202
-0.00595272
-0.0127768
-0.0191011
-0.0229295
-0.0228722
-0.0187729
-0.0116312
-0.00335598
0.00403547
0.011803
0.00931923
0.00561947
0.0032342
0.0014315
0.000314484
-0.00105208
-0.00397717
-0.00871052
-0.0139816
-0.0177552
-0.0184032
-0.0154863
-0.00979654
-0.00309312
0.00259908
0.00743511
0.00263795
-0.00137366
-0.00409967
-0.0047934
-0.0034791
-0.00162674
-0.00131485
-0.00347854
-0.00723513
-0.0106472
-0.011971
-0.0105492
-0.00690871
-0.00249294
0.000923986
0.00259571
-0.00442611
-0.00867566
-0.0112021
-0.0106861
-0.00709597
-0.0022117
0.00132415
0.00194853
9.56391e-05
-0.00255945
-0.00433224
-0.00451189
-0.00335981
-0.00188929
-0.00135711
-0.00255384
-0.012417
-0.0169646
-0.0185873
-0.0164605
-0.0107087
-0.00318852
0.00320923
0.00655451
0.00684953
0.00535447
0.00340356
0.0016064
-0.000106648
-0.0022365
-0.00531419
-0.00909108
-0.0196419
-0.023823
-0.0227367
-0.0170294
-0.00805322
0.00149751
0.00891445
0.0129976
0.0140396
0.0129581
0.0105247
0.00706022
0.00254407
-0.00317947
-0.00994671
-0.0159677
-0.00403491
-0.0106888
-0.0110952
-0.00758342
-0.000673992
0.00826704
0.0168957
0.0231256
0.0262122
0.0266928
0.0254269
0.0228871
0.0190518
0.0135647
0.00636158
0.0010283
-0.0114968
-0.0183593
-0.017375
-0.0124928
-0.00455549
0.00483685
0.0134477
0.0197025
0.0231841
0.0242277
0.0231707
0.0200624
0.014822
0.00736839
-0.0018733
-0.00716935
-0.012569
-0.0183393
-0.0162159
-0.01116
-0.0041154
0.00356593
0.0102889
0.0150639
0.0177256
0.0185044
0.0175089
0.0145823
0.00958989
0.00251698
-0.00604805
-0.0094597
-0.0113308
-0.015306
-0.0127464
-0.00845476
-0.00325111
0.00197545
0.00612715
0.00872468
0.00988098
0.00989132
0.0088506
0.00652925
0.00275867
-0.00249587
-0.0086282
-0.00945983
-0.00823858
-0.00982348
-0.00718766
-0.00425848
-0.00151019
0.000577605
0.00149249
0.00125767
0.000330961
-0.000837633
-0.00195402
-0.0033336
-0.00514055
-0.00748619
-0.00986668
-0.00767631
-0.00365386
-0.00273208
-0.000409492
0.000810275
0.000782907
-0.000560323
-0.0031803
-0.00655986
-0.00984073
-0.0122518
-0.0134657
-0.0136177
-0.012968
-0.0117547
-0.00979259
-0.00444307
0.00130564
0.00389097
0.00572003
0.00527218
0.0027272
-0.00166144
-0.00743942
-0.0136911
-0.0191236
-0.022664
-0.0238074
-0.0225687
-0.0193591
-0.0146731
-0.00875873
-0.000672185
0.00555273
0.00842187
0.00964369
0.00793226
0.00369918
-0.00265864
-0.0105041
-0.0188122
-0.0257376
-0.0300321
-0.0309426
-0.0284771
-0.0231454
-0.0158023
-0.00726993
0.00265313
0.00812249
0.0100209
0.0105803
0.0082785
0.00356165
-0.00326853
-0.0117295
-0.02066
-0.0282622
-0.0328823
-0.0335802
-0.0303117
-0.0237027
-0.0150654
-0.00564104
0.00482889
0.00854376
0.0087706
0.00866705
0.00648571
0.00255374
-0.00316328
-0.0106106
-0.0188766
-0.0262064
-0.0307601
-0.031392
-0.0279623
-0.0212157
-0.0126693
-0.00395116
0.0055333
0.0070408
0.00548102
0.00469537
0.00319219
0.00108228
-0.00221144
-0.00729551
-0.0137533
-0.0200258
-0.0242042
-0.0249654
-0.0220353
-0.0161472
-0.00888855
-0.00205681
0.00495937
0.00441315
0.00129551
-0.000233949
-0.000736702
-0.000416426
-0.000488028
-0.00235091
-0.00622337
-0.0108747
-0.0144344
-0.0154508
-0.0134952
-0.00919081
-0.00401955
0.000266479
0.00378467
0.00168153
-0.00268083
-0.00488518
-0.00437773
-0.00155305
0.00176785
0.00338076
0.00242139
-0.000285585
-0.0030172
-0.00427802
-0.00351581
-0.00117854
0.00149817
0.00298988
0.00279513
-0.000840331
-0.0061978
-0.00875165
-0.00729208
-0.00229214
0.00399699
0.00881777
0.0106846
0.0100221
0.0083034
0.00690765
0.00644065
0.00664738
0.00663097
0.00528053
0.00195329
-0.00427881
-0.0102474
-0.0121871
-0.00941986
-0.00258134
0.00594173
0.0131582
0.0172879
0.018475
0.0178375
0.0164138
0.014701
0.0125925
0.00959711
0.00518124
-0.000313035
-0.00554985
-0.0108117
-0.0102878
-0.00549316
0.00228339
0.0108269
0.0178894
0.0224635
0.0245254
0.0245927
0.0231634
0.0204625
0.0164645
0.0110397
0.00430038
-0.00129175
0.00656578
-0.00224767
-0.00404927
-0.00153714
0.00521226
0.0147978
0.0245436
0.0318826
0.036024
0.0375199
0.0370655
0.0351221
0.0316467
0.026225
0.0186619
0.0133011
-0.00101469
-0.010041
-0.00945877
-0.00508191
0.00233066
0.0112629
0.0195937
0.0260334
0.030192
0.0322095
0.0321584
0.0299141
0.0253431
0.0182336
0.00875657
0.00466933
-0.00187803
-0.0104873
-0.00882838
-0.00479742
0.0010186
0.00763911
0.0136255
0.0181993
0.0212173
0.0227583
0.0227539
0.0209586
0.0172167
0.0112461
0.00313473
0.00252816
-0.00272213
-0.00969232
-0.00740461
-0.00413424
-0.000260636
0.00366333
0.00675564
0.00872667
0.00976464
0.0101147
0.00978956
0.0085656
0.00626906
0.00249417
-0.00281504
7.40555e-05
-0.00295188
-0.00690046
-0.00435829
-0.00215886
-0.000553056
0.000245903
-0.000115633
-0.00141025
-0.00302367
-0.00439537
-0.0052961
-0.00584059
-0.00620269
-0.00690071
-0.00813082
-0.0019974
-0.0020858
-0.0025095
7.01831e-05
0.00090973
5.8223e-05
-0.00242769
-0.00641837
-0.0112065
-0.0157164
-0.0189998
-0.0205323
-0.0202496
-0.0183366
-0.0154145
-0.0119308
-0.00294632
-0.000594863
0.00206007
0.00437082
0.00386121
0.000825484
-0.00450679
-0.0116383
-0.0194752
-0.0265246
-0.0314436
-0.033429
-0.0322424
-0.0280965
-0.0217472
-0.0139352
-0.00289098
0.000814827
0.00518755
0.00710586
0.00564066
0.0012233
-0.00584299
-0.0149293
-0.0247361
-0.0334359
-0.0393857
-0.0415393
-0.0395593
-0.0337175
-0.0249388
-0.0143778
-0.0021812
0.00180976
0.00605407
0.00754763
0.00579318
0.00122067
-0.00601461
-0.0154142
-0.0256773
-0.0348816
-0.0411626
-0.0432993
-0.0408963
-0.0343247
-0.0246475
-0.0134194
-0.00152138
0.00177459
0.00471525
0.0058167
0.00453041
0.00110814
-0.00464387
-0.0126359
-0.0218377
-0.0303976
-0.0363804
-0.0384595
-0.0361883
-0.0299821
-0.0210947
-0.0111672
-0.000928659
0.000904896
0.00195603
0.0026391
0.00240217
0.00119669
-0.00171511
-0.00687835
-0.0137525
-0.0207362
-0.0259428
-0.028003
-0.0264256
-0.0216212
-0.0148414
-0.00766277
-0.000467989
-0.000174905
-0.00114916
-0.00100603
6.95271e-05
0.00167196
0.00238742
0.00091696
-0.00282137
-0.00760062
-0.0116848
-0.0137265
-0.0131981
-0.0104546
-0.00656604
-0.002928
0.000214238
-0.000602998
-0.00356329
-0.00413276
-0.00183025
0.00259315
0.00700317
0.00940256
0.00906166
0.00677694
0.00405695
0.00214296
0.00158527
0.00212971
0.00290189
0.00287763
0.0016936
-0.000267449
-0.00508968
-0.00625925
-0.00293095
0.00374907
0.0113178
0.0170929
0.019853
0.020013
0.0187834
0.0171707
0.0156909
0.0141773
0.0120373
0.0086266
0.00372369
-9.43289e-05
-0.00626957
-0.00728306
-0.00295904
0.00534246
0.0149179
0.0228371
0.0278163
0.0300182
0.0302214
0.0290725
0.0268525
0.0234778
0.0186447
0.0121697
0.0049041
0.00573764
-0.000930787
-0.00119529
0.00288814
0.0101847
0.0187173
0.0265196
0.0323634
0.0358016
0.0370525
0.0364728
0.0342855
0.0304791
0.0249201
0.017682
0.0116454
0.0103127
0.000313138
-0.00184116
0.00115558
0.00909726
0.0201202
0.0309904
0.0392774
0.0442088
0.0460943
0.0457532
0.0435799
0.0395852
0.0333828
0.0248209
0.0185182
0.00464165
-0.00581184
-0.00578714
-0.00171091
0.00558822
0.0145921
0.0233088
0.0305157
0.0357192
0.0387328
0.0393994
0.0375406
0.0330832
0.0258408
0.0159216
0.0117233
0.0047143
-0.00640435
-0.00591808
-0.00293592
0.00215403
0.0085227
0.0147743
0.0200824
0.0241116
0.0266844
0.0276096
0.0266665
0.0237665
0.0184812
0.0105181
0.0107267
0.00341504
-0.00683466
-0.00583045
-0.00386761
-0.0010144
0.00238357
0.00545824
0.00787138
0.00966741
0.0109217
0.0115955
0.0115215
0.0105544
0.00798311
0.00310109
0.0076175
0.00190287
-0.0056192
-0.00411936
-0.00316505
-0.0026418
-0.00258954
-0.00334335
-0.0046723
-0.00600149
-0.00677047
-0.00679135
-0.00604581
-0.00475933
-0.00390524
-0.00449967
0.00376811
0.00101839
-0.00250692
-0.000727906
-0.000858093
-0.00269097
-0.00605519
-0.0108048
-0.0161596
-0.0209727
-0.024195
-0.0251255
-0.023625
-0.0199312
-0.0152103
-0.0107072
0.000485114
0.000681538
0.00126185
0.00310418
0.00192328
-0.00195043
-0.00823774
-0.0164194
-0.0252783
-0.0331689
-0.0385509
-0.0403986
-0.0382789
-0.0324613
-0.0242276
-0.015113
-0.00187283
0.000527553
0.00410766
0.00589983
0.00403454
-0.00106324
-0.00910507
-0.0194087
-0.0305032
-0.0404105
-0.0472517
-0.0497185
-0.0472358
-0.040048
-0.0294825
-0.0173225
-0.00319934
0.000203626
0.00506652
0.00682194
0.00495922
-0.000115794
-0.00826321
-0.018891
-0.0305267
-0.0410732
-0.0484867
-0.0513031
-0.0488659
-0.0414172
-0.0302718
-0.0173467
-0.00369831
-0.000508714
0.00407941
0.00587872
0.00483012
0.0011525
-0.00536013
-0.0144606
-0.0249245
-0.0347641
-0.0419312
-0.0449284
-0.0430709
-0.0365879
-0.0267078
-0.0152642
-0.00360533
-0.00151083
0.00179578
0.00365807
0.00407696
0.0029296
-0.000509413
-0.0065581
-0.0144469
-0.022478
-0.0287514
-0.0318325
-0.0310526
-0.0266
-0.0194804
-0.0112503
-0.00296821
-0.00223941
-0.000797751
0.000971191
0.00314643
0.00515768
0.00563836
0.00358009
-0.000830665
-0.00630681
-0.0112102
-0.0142469
-0.0148061
-0.0130453
-0.0095436
-0.0055584
-0.00168008
-0.00204216
-0.00277937
-0.00138253
0.00241475
0.00757696
0.0120775
0.0142212
0.0135943
0.0110255
0.00782705
0.00506931
0.00329524
0.00250778
0.0020586
0.00155314
0.000707644
-0.000861166
-0.00389158
-0.00298649
0.00207941
0.00982339
0.0177016
0.0234771
0.0263112
0.0266179
0.0253144
0.0231414
0.0204926
0.0173636
0.0135308
0.00892
0.00384726
0.000915815
-0.00412168
-0.00330643
0.00264432
0.0119381
0.0217244
0.0297768
0.0351702
0.0379697
0.0385726
0.0372745
0.0341903
0.0293429
0.0227501
0.0147406
0.00690957
0.0103993
0.00318454
0.00285319
0.00713746
0.0148331
0.0242142
0.0331859
0.0401739
0.0445356
0.0463262
0.0458935
0.043493
0.0391548
0.0328165
0.0246512
0.0178188
0.00790483
-0.00153177
-0.00274365
0.0018217
0.0113832
0.0234256
0.0347778
0.0432428
0.0481436
0.0498159
0.0489081
0.0458443
0.0407887
0.0334827
0.0239886
0.0166344
0.00448578
-0.00590157
-0.00622859
-0.00205942
0.00557524
0.0150599
0.0244696
0.0324953
0.0384052
0.0417842
0.042414
0.0402525
0.0354086
0.027825
0.0176944
0.0124164
0.00478089
-0.00709091
-0.00783951
-0.00533375
-5.40559e-05
0.00702593
0.014364
0.0208643
0.0258692
0.0290036
0.0301057
0.0291796
0.0263094
0.0210876
0.0131229
0.0119469
0.00370818
-0.00815246
-0.00890882
-0.00781703
-0.00498704
-0.000905463
0.00333911
0.00707215
0.0100024
0.0120359
0.0131959
0.0135246
0.0130119
0.0108471
0.00600102
0.00911269
0.00244918
-0.00755054
-0.00792377
-0.00800495
-0.0077009
-0.00715481
-0.00692872
-0.00708893
-0.00732264
-0.00720361
-0.00641567
-0.00483561
-0.00265851
-0.00111543
-0.00177874
0.0053243
0.00184061
-0.00465814
-0.0045801
-0.00572499
-0.00791527
-0.0110747
-0.015248
-0.0198448
-0.0238577
-0.0262417
-0.0262382
-0.0235689
-0.0185944
-0.0129328
-0.00859906
0.00187993
0.00179745
-0.000528409
-5.41539e-05
-0.00213387
-0.00651025
-0.0129616
-0.0210746
-0.0297032
-0.0372327
-0.0420638
-0.0430206
-0.0396283
-0.0323054
-0.0228936
-0.0137366
-0.000729381
0.00191017
0.0032138
0.00401015
0.00135257
-0.00442302
-0.013016
-0.023748
-0.0351128
-0.0450933
-0.0517182
-0.0535429
-0.0499152
-0.0412215
-0.0293291
-0.0167342
-0.00233694
0.00173105
0.00532732
0.0064844
0.00393346
-0.00197159
-0.011019
-0.0224923
-0.0348004
-0.0457727
-0.0532789
-0.0557493
-0.0524451
-0.0436842
-0.0311948
-0.0174197
-0.00301621
0.00102213
0.00546591
0.00711669
0.00554296
0.00094916
-0.00671939
-0.0169799
-0.0284011
-0.0388993
-0.046387
-0.0493127
-0.046924
-0.0394553
-0.0283755
-0.0159106
-0.00284968
-0.000332531
0.00401752
0.00626444
0.00641576
0.00438058
-0.000357074
-0.00775494
-0.0167543
-0.0255532
-0.0322736
-0.0355033
-0.0345342
-0.0294978
-0.0214663
-0.0120435
-0.00213725
-0.00109766
0.00185533
0.00452768
0.00679104
0.00805698
0.00723647
0.00378472
-0.00174534
-0.00797693
-0.0133565
-0.016704
-0.0174065
-0.0154904
-0.0115597
-0.00661719
-0.00123444
-0.00141276
-0.000310241
0.00250634
0.0068031
0.0114786
0.0148231
0.0156908
0.0140826
0.0109008
0.00727179
0.00409458
0.00185739
0.000595482
0.000157174
0.000184804
0.000756448
-0.000992457
-0.00203225
0.00062332
0.00655382
0.0140922
0.0210326
0.0257847
0.0279199
0.0278641
0.0262994
0.0236592
0.0203609
0.0164079
0.0119608
0.00734889
0.00346111
0.000541448
-0.00276212
-0.000469268
0.00649267
0.0156307
0.0247653
0.0322334
0.0373967
0.0402011
0.0407458
0.0390835
0.0352705
0.029457
0.0220029
0.0136189
0.00642832
0.00845871
0.00207124
0.0027704
0.0078984
0.0165849
0.0268306
0.0364024
0.0437321
0.0481629
0.0497173
0.0487136
0.0454511
0.0400508
0.0326285
0.0235626
0.0161492
0.00197952
-0.00543492
-0.00506253
0.00112049
0.0115847
0.0236654
0.034516
0.0423613
0.0466646
0.0476847
0.0459629
0.0419596
0.0359268
0.027844
0.018009
0.00998444
-0.000429642
-0.00923841
-0.00945113
-0.00481426
0.0034165
0.0134549
0.0233782
0.0317108
0.0375394
0.0404059
0.040239
0.0372909
0.0318649
0.0240537
0.0141395
0.00736388
-0.00072442
-0.0112312
-0.0125238
-0.00968616
-0.00346562
0.00481554
0.01337
0.0207488
0.0260057
0.0287437
0.0290601
0.0273361
0.0238701
0.0183667
0.0104923
0.00660888
-0.00132
-0.012487
-0.0144237
-0.0133203
-0.00951663
-0.00389784
0.00205852
0.00719218
0.0108343
0.0128237
0.0134577
0.0131839
0.0122183
0.00981405
0.00491578
0.00461698
-0.00146935
-0.0116865
-0.013784
-0.0141977
-0.0130693
-0.0109203
-0.00874954
-0.0071549
-0.00622648
-0.00565237
-0.00489786
-0.00352317
-0.00155478
-0.000224754
-0.00128008
0.00214278
-0.000561782
-0.00835825
-0.010165
-0.0118486
-0.013458
-0.0152193
-0.0175776
-0.0204007
-0.023021
-0.0245082
-0.0239707
-0.0209599
-0.0158312
-0.0103387
-0.00683436
0.000179842
0.001193
-0.00328372
-0.0045786
-0.00732228
-0.0114554
-0.0169717
-0.0237307
-0.0308982
-0.0371091
-0.0408144
-0.0408082
-0.0365626
-0.02865
-0.0192307
-0.0111133
-0.000924487
0.00310205
0.00191616
0.00119014
-0.00226433
-0.00824336
-0.0165261
-0.0265659
-0.0369748
-0.0459014
-0.0514183
-0.0520883
-0.0472923
-0.0376481
-0.025452
-0.0137212
-0.00121037
0.00440867
0.00573218
0.00564181
0.00216375
-0.00444492
-0.013885
-0.02538
-0.0373251
-0.0476094
-0.0541653
-0.0554789
-0.0508995
-0.0409541
-0.0278294
-0.0144243
-0.000929882
0.00468001
0.00745485
0.00816977
0.00558376
-0.000196236
-0.00892558
-0.0198998
-0.0315349
-0.0417355
-0.0484933
-0.0503676
-0.0467228
-0.0379998
-0.0259712
-0.0132001
-0.00034469
0.003905
0.00715866
0.008815
0.00791306
0.00437475
-0.00197387
-0.0106709
-0.0203719
-0.029219
-0.0354406
-0.0377842
-0.0356895
-0.0294277
-0.0203162
-0.0102067
0.000322143
0.00253782
0.00537812
0.00793335
0.00925086
0.00884359
0.00607607
0.000924734
-0.00564518
-0.0121811
-0.0172779
-0.0199564
-0.019757
-0.0167901
-0.0117982
-0.00587264
0.000967055
0.00103985
0.00275812
0.00594408
0.00955196
0.0125938
0.0138879
0.0129327
0.0101562
0.00650705
0.00296874
0.000196148
-0.00152028
-0.00203426
-0.00161086
-0.000554413
0.00179476
-0.000189836
-0.000107152
0.00331386
0.00883064
0.0149483
0.020012
0.0231088
0.0241818
0.023647
0.0219303
0.0194086
0.0161693
0.0125929
0.00872249
0.00500532
0.00279578
-0.000591405
-0.00247316
0.000810404
0.00740642
0.0154755
0.0232587
0.029611
0.0340668
0.0364801
0.0367541
0.0348335
0.0307855
0.0248591
0.0176962
0.0100393
0.00418036
0.0027946
-0.00182058
1.61327e-05
0.006306
0.0155914
0.0258434
0.0350562
0.041892
0.0457705
0.0466679
0.0448424
0.0406191
0.0343159
0.026089
0.0168429
0.00938653
-0.00485906
-0.00998647
-0.0083997
-0.00158748
0.00858954
0.0196154
0.0292435
0.0361084
0.0397307
0.0402331
0.0380478
0.0336312
0.0273051
0.0192424
0.0098812
0.0016588
-0.00756065
-0.0142138
-0.0139566
-0.00880458
-0.000116945
0.0101076
0.0199794
0.0279248
0.0329558
0.0347332
0.0335249
0.0298146
0.024055
0.0164167
0.00717946
-0.000639457
-0.0081292
-0.0161635
-0.0172105
-0.0135779
-0.00632858
0.00286939
0.0120048
0.0193749
0.0239324
0.0254622
0.0244649
0.0217113
0.0176546
0.0120737
0.00467187
-0.00135565
-0.0078715
-0.0166525
-0.0188116
-0.0169797
-0.0118432
-0.00476238
0.00241643
0.00811662
0.0114451
0.0123856
0.011695
0.0103051
0.00862997
0.00598786
0.00134472
-0.00206404
-0.00645428
-0.0149547
-0.0177773
-0.0177322
-0.0152414
-0.0112575
-0.00725821
-0.00439284
-0.00309995
-0.00306781
-0.00335391
-0.00302589
-0.00185324
-0.000984231
-0.00218834
-0.00249268
-0.00357888
-0.0107152
-0.0136583
-0.0152109
-0.015624
-0.0154645
-0.0156752
-0.0166765
-0.0181693
-0.0194902
-0.0193669
-0.0170577
-0.0127088
-0.00796474
-0.00522683
-0.00215759
0.000355113
-0.00465282
-0.0073099
-0.0102136
-0.0134513