/*--------------------------------*- C++ -*----------------------------------*\
| =========                 |                                                 |
| \\      /  F ield         | OpenFOAM: The Open Source CFD Toolbox           |
|  \\    /   O peration     | Version:  3.0.0                                 |
|   \\  /    A nd           | Web:      www.OpenFOAM.org                      |
|    \\/     M anipulation  |                                                 |
\*---------------------------------------------------------------------------*/
FoamFile
{
    version     2.0;
    format      ascii;
    class       surfaceScalarField;
    location    "5";
    object      phi;
}
// * * * * * * * * * * * * * * * * * * * * * * * * * * * * * * * * * * * * * //

dimensions      [0 3 -1 0 0 0 0];

internalField   nonuniform List<scalar> 
11520
(
-0.000263072
-0.000438487
0.000361292
-0.000247445
-0.000284961
0.000328623
-0.000203569
-0.000115848
0.000258421
-0.000135133
5.94379e-05
0.00014839
-5.00124e-05
0.00022386
1.1449e-05
3.98249e-05
0.000354892
-0.000128309
0.000118016
0.000429786
-0.000240912
0.000169282
0.000433804
-0.000300909
0.000183841
0.000366075
-0.000297788
0.000161084
0.000236483
-0.000239336
0.00010801
6.30451e-05
-0.000144306
3.53108e-05
-0.000128171
-3.25202e-05
-4.62597e-05
-0.000304477
8.08902e-05
-0.000127033
-0.000432735
0.000184611
-0.000198191
-0.000491011
0.000269038
-0.000474081
0.000323059
-0.000383079
-0.000534205
0.000262751
-0.000378102
-0.000371871
0.000243037
-0.000337094
-0.000201112
0.000190537
-0.000264719
-2.59822e-05
9.75272e-05
-0.000170825
0.000139576
-2.70417e-05
-7.05258e-05
0.000275634
-0.000161943
1.8051e-05
0.000358912
-0.000277927
7.87247e-05
0.000370701
-0.000347502
0.000103054
0.000304911
-0.000357396
9.07863e-05
0.000169997
-0.000312769
4.70166e-05
-1.33109e-05
-0.000230569
-2.09472e-05
-0.000214523
-0.000129557
-0.000104929
-0.000397071
-2.47488e-05
-0.000195423
-0.000526396
7.35081e-05
-0.000281059
-0.000581039
0.00015668
-0.000555037
0.000215138
-0.000480553
-0.000594151
0.000170995
-0.000483215
-0.000430202
0.000164554
-0.000445286
-0.000263221
0.000128256
-0.000371934
-9.37773e-05
5.22236e-05
-0.000272743
6.668e-05
-5.69461e-05
-0.000162352
0.000200975
-0.000181222
-5.94067e-05
0.000287404
-0.000294634
1.80918e-05
0.000305396
-0.000371062
5.83684e-05
0.000244911
-0.00039552
5.78607e-05
0.000111925
-0.000369248
1.91767e-05
-7.22291e-05
-0.000304961
-5.14119e-05
-0.000274793
-0.000218444
-0.000144672
-0.000457374
-0.000123232
-0.000248265
-0.000584621
-2.97614e-05
-0.000348201
-0.000635446
5.40227e-05
-0.000601422
0.000119386
-0.000546909
-0.000613621
8.82184e-05
-0.000555588
-0.000455295
9.66406e-05
-0.000519716
-0.000295631
7.74418e-05
-0.000445174
-0.000135014
2.03239e-05
-0.000341285
1.61687e-05
-6.99504e-05
-0.00022178
0.000143297
-0.000179082
-0.000104942
0.000227585
-0.000285307
-1.03402e-05
0.000249506
-0.000365493
4.64717e-05
0.000197028
-0.000403777
5.75764e-05
7.29687e-05
-0.000397026
2.2676e-05
-0.000103413
-0.00035285
-5.23865e-05
-0.00029996
-0.000283473
-0.000156515
-0.000478153
-0.000200768
-0.000274081
-0.000602311
-0.000114562
-0.000388055
-0.000650724
-3.27339e-05
-0.000612326
3.68863e-05
-0.000576448
-0.000591211
2.02868e-05
-0.000590218
-0.000445086
4.33873e-05
-0.000555863
-0.000295242
4.12518e-05
-0.000479948
-0.00014491
4.44001e-06
-0.000371935
-4.7082e-06
-6.40394e-05
-0.000245104
0.000112695
-0.000154281
-0.000117145
0.000191757
-0.000249013
-8.26814e-06
0.000215601
-0.000328701
6.31443e-05
0.000172152
-0.000377526
8.51601e-05
6.13295e-05
-0.000388676
5.43125e-05
-0.000101334
-0.000364828
-2.44198e-05
-0.000286553
-0.000314429
-0.000138416
-0.000457285
-0.000247274
-0.000268922
-0.000578044
-0.000172177
-0.000395688
-0.000626059
-9.65187e-05
-0.000588296
-2.68959e-05
-0.000566609
-0.000530387
-2.60906e-05
-0.000585325
-0.000401153
8.00264e-06
-0.000553043
-0.000262625
2.02894e-05
-0.000476853
-0.000122949
3.03007e-06
-0.000366227
6.46275e-06
-4.332e-05
-0.000234367
0.000114068
-0.000112122
-9.84639e-05
0.000186979
-0.000191161
2.12707e-05
0.000211502
-0.000264906
0.000104842
0.000176848
-0.000318794
0.000137067
8.09481e-05
-0.000343718
0.000111335
-6.48788e-05
-0.000338243
3.10925e-05
-0.000235626
-0.00030704
-9.04136e-05
-0.00039695
-0.000257381
-0.000231702
-0.00051447
-0.000196574
-0.000369371
-0.000564171
-0.000131368
-0.000532095
-6.7763e-05
-0.000517745
-0.000438764
-4.61775e-05
-0.000541924
-0.000328644
-7.23121e-06
-0.000513238
-0.000202151
1.38409e-05
-0.000438725
-7.27963e-05
1.15065e-05
-0.000327905
4.68612e-05
-1.50754e-05
-0.000193839
0.000145807
-6.25147e-05
-5.32358e-05
0.000213186
-0.000123003
7.41366e-05
0.000238082
-0.000185247
0.000167532
0.000211358
-0.000237241
0.000209619
0.000130193
-0.000269369
0.000190691
2.1282e-06
-0.00027748
0.00011189
-0.000152598
-0.000262911
-1.36478e-05
-0.000303465
-0.000230243
-0.000162943
-0.000417761
-0.000184931
-0.000309294
-0.000471022
-0.000133086
-0.00044903
-8.07823e-05
-0.000432746
-0.000327869
-3.4929e-05
-0.000462998
-0.00023605
4.06843e-07
-0.000439812
-0.000121645
2.1814e-05
-0.000369605
-2.15298e-06
2.62768e-05
-0.000261701
0.000108874
1.26623e-05
-0.000128726
0.000200533
-1.76531e-05
1.31121e-05
0.000263142
-5.9667e-05
0.000144786
0.000288169
-0.000106488
0.000245679
0.000268389
-0.000149306
0.000297131
0.000200739
-0.000179956
0.000286783
9.00553e-05
-0.000193502
0.000212955
-4.79646e-05
-0.000189162
8.73914e-05
-0.000187342
-0.000169237
-6.59799e-05
-0.000298142
-0.000137542
-0.000218066
-0.000356008
-9.93844e-05
-0.000347025
-6.15564e-05
-0.000317692
-0.000212203
1.10162e-05
-0.000353979
-0.000134796
3.40031e-05
-0.000337773
-3.13397e-05
4.59187e-05
-0.000274511
7.91722e-05
4.61744e-05
-0.000172936
0.000182387
3.48389e-05
-4.50602e-05
0.000267305
1.3304e-05
9.41278e-05
0.00032533
-1.57348e-05
0.000226057
0.000349345
-4.64409e-05
0.000331015
0.000334473
-7.45769e-05
0.000390029
0.000278036
-9.44562e-05
0.000388994
0.00018329
-0.000102536
0.000323504
6.20516e-05
-9.79859e-05
0.00020313
-6.46009e-05
-8.22492e-05
5.10544e-05
-0.000170589
-5.82089e-05
-0.000102288
-0.000232683
-3.05711e-05
-0.000237266
-6.73049e-06
-0.000184079
-0.000107901
9.06737e-05
-0.000224591
-3.8805e-05
9.53179e-05
-0.000215426
5.67982e-05
8.91739e-05
-0.000160887
0.000160709
7.37222e-05
-6.88222e-05
0.000257616
5.16819e-05
4.99558e-05
0.000335989
2.65826e-05
0.000181364
0.000388034
2.36763e-06
0.000308561
0.000408806
-1.77787e-05
0.000412228
0.000394904
-2.91678e-05
0.000474395
0.000345457
-3.11272e-05
0.000480759
0.000263216
-2.26089e-05
0.000425508
0.000157224
-5.08742e-06
0.000315744
4.38051e-05
1.84328e-05
0.000172267
-5.54799e-05
4.45072e-05
2.45979e-05
-0.000119531
6.86262e-05
-0.000134836
8.35402e-05
-5.15821e-05
-3.15653e-05
0.000195296
-9.17164e-05
3.59151e-05
0.000181104
-8.70517e-05
0.000129388
0.000152356
-4.10315e-05
0.00023171
0.000112306
3.96778e-05
0.000325964
6.75288e-05
0.00014579
0.000399212
2.58684e-05
0.000264748
0.000444136
-5.53064e-06
0.000380706
0.00045788
-2.14318e-05
0.000476029
0.000439848
-1.96019e-05
0.000534002
0.000390986
-3.84924e-07
0.000542132
0.00031474
3.27664e-05
0.000495541
0.000218816
7.42519e-05
0.000400059
0.000116145
0.000117453
0.000273028
2.41643e-05
0.000156461
0.000140132
-3.86234e-05
0.000186402
-5.86048e-05
0.00020106
5.25142e-05
2.36406e-06
0.000305328
1.95595e-05
7.37538e-05
0.000277921
2.50466e-05
0.000172357
0.000228115
6.58007e-05
0.000280611
0.000160412
0.000136135
0.000378846
8.54247e-05
0.000228207
0.000451245
1.69823e-05
0.000331069
0.000489926
-3.19955e-05
0.000430144
0.000494385
-5.26389e-05
0.000509397
0.000466832
-4.1668e-05
0.000554368
0.000411214
-1.87703e-06
0.000555995
0.000331948
5.90345e-05
0.000512689
0.000236912
0.000129992
0.000431001
0.000137876
0.000199594
0.000325065
5.02185e-05
0.000258656
0.00021479
-9.43546e-06
0.000301742
-2.73041e-05
0.00032466
0.000101696
-1.4498e-05
0.000394688
8.20358e-05
6.48853e-05
0.000362349
9.42834e-05
0.00017501
0.000298503
0.000135446
0.000296514
0.000207389
0.000199933
0.000406835
0.000102105
0.000280218
0.000485732
2.70329e-06
0.000366507
0.000522435
-7.01136e-05
0.00044499
0.000517593
-0.000101615
0.000502525
0.000477707
-8.58905e-05
0.000527338
0.000408656
-2.81911e-05
0.000515376
0.000317004
5.86641e-05
0.000469225
0.000211917
0.000157544
0.000397274
0.000106833
0.000252255
0.000311186
1.77801e-05
0.000331064
0.000224916
-3.92367e-05
0.00038836
-5.11999e-05
0.000421615
8.44741e-05
-8.04389e-05
0.000442615
7.93697e-05
1.07145e-05
0.000411163
0.000101419
0.000135517
0.000341883
0.000148224
0.000273729
0.000236843
0.000213351
0.000402152
0.000108444
0.000287189
0.000496249
-1.88897e-05
0.000359416
0.00053909
-0.000116641
0.000417917
0.000529811
-0.000161291
0.000451943
0.000476213
-0.00014429
0.000455024
0.000387913
-7.27681e-05
0.000427607
0.000274914
3.43307e-05
0.000375941
0.000150343
0.000153996
0.000309365
3.12473e-05
0.000266176
0.000237436
-6.40471e-05
0.000358226
0.000169463
-0.000119591
0.000424926
-0.000125384
0.000464433
1.13063e-05
-0.000184372
0.000443469
1.59205e-05
-7.63231e-05
0.000414895
4.48058e-05
6.34729e-05
0.000346701
9.73054e-05
0.000217206
0.000237208
0.000167055
0.000364178
9.49142e-05
0.000241208
0.00047794
-5.57191e-05
0.000307422
0.000535996
-0.00017711
0.000352284
0.000528756
-0.000236004
0.000368317
0.000462667
-0.000218637
0.000353983
0.000351638
-0.000135851
0.000313864
0.000212063
-1.42461e-05
0.000256499
6.28516e-05
0.000117654
0.000191546
-7.44297e-05
0.000238139
0.00012708
-0.000178614
0.000335843
6.95266e-05
-0.000233754
0.000406572
-0.000233662
0.00044819
-8.93799e-05
0.000402422
-8.6294e-05
0.000379037
-6.24556e-05
0.000316331
-1.404e-05
0.000206834
5.74523e-05
5.52065e-05
0.000141802
-0.000113954
0.000219942
-0.000256104
0.000270882
-0.000326723
0.000282644
-0.000307894
0.000256084
-0.000215593
0.000201914
-8.4358e-05
0.000134693
5.25475e-05
6.72825e-05
0.000174154
6.77755e-06
0.000271399
-4.38124e-05
0.000342426
0.000385505
-0.000182013
-0.000385343
0.000475966
-0.000143264
-0.000225628
0.00040477
-7.90434e-05
-4.38935e-05
0.00029819
2.96786e-06
0.000140391
0.000159991
9.03182e-05
0.000302265
6.12695e-06
0.000167983
0.000415716
-0.000137709
0.00022107
0.000463524
-0.000240311
0.00024046
0.00044369
-0.000276971
0.000225662
0.000365104
-0.000240971
0.000182567
0.000238646
-0.000145294
0.000119715
7.61929e-05
-1.38949e-05
4.58091e-05
-0.000103836
0.00012865
-3.09109e-05
-0.000273461
0.000262619
-0.000102525
-0.000400243
0.000373027
-0.000160281
-0.00045902
0.000448177
-0.000441263
0.000478258
-0.000287681
-0.00048608
0.000365656
-0.000257446
-0.000323845
0.000311019
-0.000192669
-0.000144931
0.000226799
-0.000102369
3.82917e-05
0.000109326
-2.19412e-06
0.000204705
-2.96559e-05
8.83367e-05
0.000330062
-0.00016682
0.000151848
0.000393233
-0.000271147
0.00017916
0.000384928
-0.000316053
0.000171048
0.000308542
-0.000292721
0.000134337
0.000175058
-0.00021247
7.67577e-05
9.75404e-07
-9.77716e-05
4.61437e-06
-0.000189555
2.83056e-05
-7.64082e-05
-0.000364676
0.000147489
-0.00015868
-0.000491407
0.000246943
-0.000231464
-0.000547231
0.000317675
-0.000524583
0.000352507
-0.00037746
-0.000554697
0.000256296
-0.000355153
-0.00039586
0.000214262
-0.000293661
-0.000225962
0.000147795
-0.000201808
-5.14776e-05
5.014e-05
-9.46446e-05
0.000110625
-7.00305e-05
8.51513e-06
0.000238773
-0.000193093
8.83884e-05
0.0003111
-0.000292375
0.00013257
0.000312993
-0.000343309
0.000138521
0.000242427
-0.000335357
0.000110618
0.000109234
-0.000275522
5.52087e-05
-6.70967e-05
-0.00018148
-2.15541e-05
-0.000258487
-7.27499e-05
-0.000112529
-0.000431125
3.41915e-05
-0.000207618
-0.000552908
0.000126829
-0.000293678
-0.000603724
0.000196576
-0.000575587
0.000237487
-0.00044681
-0.000586242
0.000149872
-0.000431159
-0.000435686
0.000120815
-0.000372931
-0.000278114
7.1365e-05
-0.000281086
-0.000116656
-6.34253e-06
-0.000169377
3.4617e-05
-0.000105651
-5.59054e-05
0.000157321
-0.000211102
3.98538e-05
0.000231313
-0.000301279
0.000102357
0.000240206
-0.00035521
0.000124263
0.000178044
-0.000361301
0.000105863
5.22149e-05
-0.000321606
5.17075e-05
-0.000117508
-0.000248284
-3.13184e-05
-0.000301754
-0.000157179
-0.000133454
-0.000466427
-6.33308e-05
-0.000241289
-0.000580668
2.10338e-05
-0.000339325
-0.000626112
8.76901e-05
-0.000593751
0.000132428
-0.000491371
-0.000578839
5.42796e-05
-0.000480987
-0.000440594
3.79117e-05
-0.000425462
-0.00029686
4.47282e-06
-0.000334029
-0.000150312
-5.33367e-05
-0.000219357
-1.299e-05
-0.000131104
-9.83155e-05
9.92507e-05
-0.000217253
1.00782e-05
0.000169328
-0.000295421
8.83405e-05
0.000181661
-0.000348418
0.000124823
0.000128477
-0.000364441
0.000115455
1.44218e-05
-0.000341514
6.2649e-05
-0.000142617
-0.000286913
-2.60412e-05
-0.000314314
-0.000213179
-0.000138193
-0.000467688
-0.000133862
-0.000257121
-0.000573318
-6.06e-05
-0.000365154
-0.000613838
-7.59759e-07
-0.000579263
4.34376e-05
-0.000507858
-0.000534136
-2.14715e-05
-0.000501731
-0.000411051
-2.76682e-05
-0.000449021
-0.000281278
-4.80029e-05
-0.000358716
-0.000149459
-8.81274e-05
-0.000242755
-2.69777e-05
-0.000145293
-0.000116927
7.28774e-05
-0.000211577
4.37195e-07
0.000135948
-0.000275145
9.07768e-05
0.000148995
-0.000322579
0.000139236
0.000104134
-0.000342909
0.000137902
3.70747e-06
-0.00033167
8.69309e-05
-0.00013749
-0.000292399
-5.83946e-06
-0.000293874
-0.00023471
-0.000125815
-0.000434579
-0.000170514
-0.000253336
-0.000531892
-0.000110479
-0.000368746
-0.000568775
-6.10213e-05
-0.000534804
-2.2432e-05
-0.000494117
-0.00045738
-6.91117e-05
-0.00049158
-0.00035062
-7.0199e-05
-0.000442211
-0.000233973
-8.28328e-05
-0.000354421
-0.000115745
-0.000109997
-0.000239276
-7.17889e-06
-0.00015002
-0.000111526
8.03906e-05
-0.000197777
1.11975e-05
0.000135501
-0.000245279
0.000109892
0.000147806
-0.000282754
0.000167632
0.000110227
-0.000301073
0.000173472
2.35791e-05
-0.000295081
0.000125293
-0.000100812
-0.000265979
3.06244e-05
-0.000241074
-0.000221043
-9.43578e-05
-0.000369294
-0.000170545
-0.000227702
-0.000459508
-0.000123971
-0.000347937
-0.0004947
-8.69262e-05
-0.00046442
-5.88077e-05
-0.000448762
-0.000356758
-8.04992e-05
-0.000449534
-0.000265583
-8.38584e-05
-0.000404482
-0.00016063
-9.65822e-05
-0.000321063
-5.43177e-05
-0.00011857
-0.000209322
4.18702e-05
-0.000148127
-8.29142e-05
0.000118092
-0.000181763
4.13883e-05
0.000165608
-0.000214077
0.000144998
0.000176303
-0.000238595
0.000209519
0.00014508
-0.00024868
0.000221906
7.15259e-05
-0.00024029
0.000177906
-3.62964e-05
-0.000214018
8.41419e-05
-0.000160682
-0.00017579
-4.25059e-05
-0.000277263
-0.000134621
-0.000178654
-0.000361949
-9.89534e-05
-0.000301159
-0.000397592
-7.39865e-05
-0.000373876
-5.95498e-05
-0.00037237
-0.000243271
-4.89827e-05
-0.000376276
-0.000164519
-6.31549e-05
-0.000336575
-6.91082e-05
-8.53043e-05
-0.000259646
2.72861e-05
-0.000112358
-0.000154357
0.000112723
-0.000141303
-3.28261e-05
0.00017848
-0.000168614
8.90959e-05
0.000218038
-0.000190087
0.000193478
0.000226591
-0.000201112
0.00026187
0.000200186
-0.000198074
0.000279869
0.000138312
-0.000179241
0.000241468
4.6091e-05
-0.000146523
0.000151934
-6.3075e-05
-0.000106058
2.77594e-05
-0.00016877
-6.65681e-05
-0.000107273
-0.000249051
-3.60741e-05
-0.000228932
-0.00028662
-1.98849e-05
-0.000271164
-1.94926e-05
-0.000269608
-0.000131019
2.81693e-05
-0.00027594
-5.87085e-05
-4.16047e-06
-0.000242019
3.08848e-05
-4.47399e-05
-0.000173353
0.000120323
-8.79814e-05
-7.75735e-05
0.000196858
-0.000128233
3.48179e-05
0.000252605
-0.000159934
0.000149807
0.000283415
-0.000177998
0.000250032
0.000287261
-0.000178674
0.000318239
0.000262981
-0.00016017
0.000339608
0.000209842
-0.000124027
0.000307341
0.000130846
-7.5096e-05
0.000225383
3.54294e-05
-2.16342e-05
0.000108798
-6.0132e-05
2.63802e-05
-1.97436e-05
-0.000136263
6.02606e-05
-0.000136112
-0.000175641
7.4016e-05
-0.000167854
6.39805e-05
-0.00015213
-3.71034e-05
0.000145416
-0.000158627
3.67301e-05
9.21626e-05
-0.000129426
0.000126868
2.71722e-05
-6.9484e-05
0.000214574
-4.18877e-05
1.45483e-05
0.000285629
-0.000105275
0.000113975
0.000332299
-0.000153253
0.000216638
0.000352905
-0.000177683
0.00030713
0.000348965
-0.000173629
0.000369202
0.000321915
-0.000140607
0.000389537
0.000272191
-8.30692e-05
0.000361884
0.000201337
-1.00726e-05
0.000289559
0.000115638
6.63683e-05
0.000185685
2.78724e-05
0.000133323
7.02476e-05
-4.45365e-05
0.000180171
-3.44085e-05
-8.44059e-05
0.000199823
-8.02162e-05
0.000187107
-4.10152e-05
1.90948e-05
0.000284554
-4.33101e-05
0.000102531
0.000214415
-1.50523e-05
0.000201837
0.000124888
3.82575e-05
0.000296519
2.51575e-05
0.000110514
0.000368904
-7.01064e-05
0.000194606
0.000409936
-0.000144747
0.000280498
0.000420165
-0.000185148
0.000354922
0.000405224
-0.000183321
0.000403969
0.000370009
-0.000138809
0.000416912
0.000316469
-5.90977e-05
0.000389713
0.000245563
4.20079e-05
0.000326318
0.000161746
0.000147279
0.000238013
7.59078e-05
0.000239864
0.000141015
4.47721e-06
0.00030664
5.35103e-05
-3.47791e-05
0.00033962
-2.96339e-05
0.000333179
3.59807e-05
2.20694e-05
0.000414758
4.35721e-05
0.000119607
0.000337681
7.67462e-05
0.000236472
0.000230694
0.00012891
0.000348644
0.0001031
0.000193124
0.000432978
-2.61824e-05
0.000262791
0.000476195
-0.000133223
0.000329718
0.000479489
-0.000196365
0.000383233
0.000452674
-0.00020258
0.000412953
0.000404924
-0.000150525
0.000412052
0.000340005
-5.08265e-05
0.000379918
0.000259114
7.72471e-05
0.000321948
0.000166512
0.000210748
0.00024798
7.35189e-05
0.000328612
0.000170296
-2.43748e-06
0.000415663
0.000102479
-4.26119e-05
0.00046401
-3.38036e-05
0.000469239
5.72732e-05
-3.15732e-05
0.000503908
7.77285e-05
8.05001e-05
0.000429814
0.000120963
0.000218144
0.000316977
0.000179364
0.000354734
0.000172353
0.000243141
0.000462148
1.54963e-05
0.000303494
0.000519847
-0.000122895
0.000352649
0.000524961
-0.000211268
0.000383584
0.000489519
-0.000229072
0.000390799
0.000426704
-0.000173285
0.000372673
0.000343404
-5.80413e-05
0.000332107
0.00024278
9.12312e-05
0.000275547
0.0001312
0.000245867
0.000211233
2.25748e-05
0.000381434
0.000148131
-6.32985e-05
0.000482188
9.5744e-05
-0.000106684
0.000541386
-9.52114e-05
0.000556661
2.19219e-05
-0.000130914
0.000536492
5.20139e-05
-4.34253e-06
0.000469646
0.000104643
0.000151134
0.000361082
0.000172836
0.000310919
0.00021283
0.000244291
0.000445569
4.00379e-05
0.000304839
0.000527825
-0.000124246
0.000343989
0.000546167
-0.000237466
0.000356914
0.000508864
-0.000268275
0.000344106
0.000431858
-0.000210983
0.000309631
0.000326663
-8.46352e-05
0.00025945
0.000200654
7.80609e-05
0.000200474
6.43195e-05
0.000243511
0.000139646
-6.45412e-05
0.000386083
8.37678e-05
-0.000163183
0.000491606
3.96372e-05
-0.000211136
0.000555155
-0.000198505
0.000575517
-5.01406e-05
0.000514461
-2.08331e-05
0.000456119
2.97994e-05
0.000356736
0.000100972
0.000212578
0.000183542
3.39117e-05
0.000259662
-0.000146229
0.000309586
-0.000277073
0.000322292
-0.000317584
0.000299266
-0.000260134
0.000249687
-0.000128943
0.000184933
3.72984e-05
0.000115893
0.000202478
5.18067e-05
0.000342152
-1.55243e-06
0.000445016
-4.09664e-05
0.000508341
0.000531686
-6.20099e-05
-0.000269281
0.000545792
-2.56415e-06
-0.000124466
0.000449637
7.27523e-05
4.38628e-05
0.000318818
0.000154113
0.000211001
0.000162788
0.000227591
0.000347861
-4.30284e-08
0.000278056
0.000428917
-0.000142417
0.000294861
0.00044438
-0.000232232
0.00027681
0.000403244
-0.000246303
0.000231421
0.000321101
-0.000182098
0.00016988
0.000208714
-5.72727e-05
0.000102451
7.30717e-05
0.00010045
3.67421e-05
-7.45346e-05
0.000263405
-2.18614e-05
-0.000213618
0.000408875
-6.8619e-05
-0.000317535
0.000519719
-9.79845e-05
-0.000363459
0.000583392
-0.000342031
0.000591625
-0.000142485
-0.000369429
0.000436585
-8.95285e-05
-0.000226765
0.000360362
-1.04143e-05
-6.25248e-05
0.000254072
8.30707e-05
0.000105359
0.000121483
0.000172429
0.000252656
-2.38098e-05
0.000237983
0.000353788
-0.000157245
0.000266344
0.000391507
-0.000246633
0.000256104
0.000364814
-0.000267383
0.000215983
0.000284074
-0.000215572
0.000158131
0.000161748
-0.000107652
9.24191e-05
1.08487e-05
3.01627e-05
2.46831e-05
-0.000150694
0.000172201
-4.1495e-05
-0.000298016
0.000298065
-0.000101573
-0.000404172
0.000393658
-0.000147871
-0.000449579
0.000450092
-0.00042781
0.000462119
-0.000218608
-0.00044445
0.000315539
-0.0001742
-0.00030832
0.000251408
-9.83873e-05
-0.000155133
0.000164591
-2.14573e-06
4.04277e-06
5.52147e-05
9.68323e-05
0.000150097
-6.64497e-05
0.000178164
0.000260145
-0.000180782
0.000225278
0.000313508
-0.00026149
0.000232484
0.000300786
-0.000286487
0.000205297
0.0002259
-0.000249995
0.000154132
0.000101289
-0.000163898
8.81933e-05
-5.52861e-05
-4.94064e-05
1.37231e-05
-0.000220547
7.15728e-05
-6.40239e-05
-0.000367037
0.00018096
-0.00013802
-0.000468878
0.000265531
-0.000198109
-0.000510063
0.000317149
-0.000485992
0.000331946
-0.000287819
-0.000487799
0.000190173
-0.000250899
-0.000360688
0.000136263
-0.000179589
-0.00022197
6.68912e-05
-8.41007e-05
-7.75401e-05
-2.02476e-05
1.97931e-05
5.80903e-05
-0.000117537
0.000113187
0.000165626
-0.000209977
0.000178444
0.000224959
-0.000277987
0.000205404
0.000222415
-0.000303798
0.000194044
0.000156383
-0.000280424
0.000150963
3.73157e-05
-0.000214551
8.43399e-05
-0.000115089
-0.000121858
1.97106e-06
-0.000274747
-2.06103e-05
-8.78084e-05
-0.000413234
7.26461e-05
-0.000174497
-0.000506448
0.000145292
-0.000245693
-0.000541268
0.000190091
-0.000513895
0.000205506
-0.000346536
-0.000496776
7.05662e-05
-0.000315119
-0.000380512
2.63191e-05
-0.000247716
-0.000257504
-2.73959e-05
-0.000154078
-0.000130415
-9.40993e-05
-4.82521e-05
-1.05228e-05
-0.000168318
5.29748e-05
8.64535e-05
-0.000239307
0.000132221
0.000143317
-0.000293026
0.000176226
0.000145892
-0.000315899
0.000179521
8.93673e-05
-0.00030072
0.000144176
-1.86985e-05
-0.000250155
7.69414e-05
-0.00015942
-0.000175347
-1.26434e-05
-0.000306619
-9.17228e-05
-0.000112717
-0.000432461
-1.4562e-05
-0.000209312
-0.00051464
4.41864e-05
-0.000288306
-0.00054224
7.92071e-05
-0.000511511
9.19744e-05
-0.00039042
-0.00047169
-3.24566e-05
-0.00036247
-0.000367611
-6.85188e-05
-0.000298237
-0.000260021
-0.000109719
-0.000207041
-0.000150697
-0.000159042
-0.000101176
-4.87136e-05
-0.000212967
4.30321e-06
3.35245e-05
-0.000264127
9.27853e-05
8.25104e-05
-0.000302821
0.000149155
8.60199e-05
-0.000319077
0.000163735
3.82629e-05
-0.000306385
0.000134483
-5.59765e-05
-0.00026514
6.66959e-05
-0.000180623
-0.000203409
-2.85849e-05
-0.000311515
-0.000134533
-0.000136228
-0.000422608
-7.2724e-05
-0.000239329
-0.000493424
-2.85945e-05
-0.000322525
-0.000514158
-5.90655e-06
-0.000480891
7.41393e-07
-0.000414185
-0.00041563
-0.000108283
-0.000387886
-0.000324567
-0.000139542
-0.00032639
-0.000231205
-0.000173145
-0.00023827
-0.00013853
-0.000210285
-0.000134143
-5.43585e-05
-0.000248501
-2.75912e-05
1.20542e-05
-0.000282859
6.56197e-05
5.07928e-05
-0.000306772
0.000129448
5.2749e-05
-0.000313311
0.000151427
1.26473e-05
-0.000297437
0.000126429
-6.69903e-05
-0.000259069
5.83718e-05
-0.000173801
-0.000204744
-4.05868e-05
-0.000287107
-0.000146492
-0.000152787
-0.000383537
-9.7416e-05
-0.000258965
-0.000444208
-6.70089e-05
-0.000343121
-0.000459657
-5.72718e-05
-0.000425607
-5.99177e-05
-0.000412071
-0.000333984
-0.000146318
-0.000386174
-0.000255902
-0.00017842
-0.000327454
-0.000174911
-0.000211596
-0.000243486
-9.68723e-05
-0.000244196
-0.000143328
-2.89561e-05
-0.000273688
-3.89594e-05
2.21945e-05
-0.000296272
5.47846e-05
5.02881e-05
-0.000307316
0.00012165
4.95185e-05
-0.00030223
0.000147639
1.60304e-05
-0.000278052
0.00012552
-4.94013e-05
-0.00023576
5.80487e-05
-0.000138379
-0.000181969
-4.21186e-05
-0.000234538
-0.000128192
-0.000155667
-0.000317703
-8.69072e-05
-0.000261784
-0.000370409
-6.66353e-05
-0.000344143
-0.000382856
-6.84279e-05
-0.000350249
-8.28068e-05
-0.000379483
-0.00023451
-0.000136879
-0.000353369
-0.000167572
-0.000177599
-0.000297947
-9.63654e-05
-0.000219272
-0.000219744
-3.03638e-05
-0.000257069
-0.000126238
2.33593e-05
-0.000287125
-2.76657e-05
6.03632e-05
-0.000305355
6.23745e-05
7.78497e-05
-0.000307689
0.000128162
7.3557e-05
-0.000290938
0.00015522
4.53535e-05
-0.000254455
0.000135154
-7.15221e-06
-0.000201424
6.97554e-05
-7.94408e-05
-0.000140063
-2.84893e-05
-0.00015978
-8.25714e-05
-0.000139772
-0.000231507
-4.14812e-05
-0.000242644
-0.000278487
-2.51246e-05
-0.000320647
-0.00029009
-3.46479e-05
-0.000260832
-6.16528e-05
-0.000315099
-0.000127805
-7.33461e-05
-0.000288521
-6.73278e-05
-0.000130982
-0.000236992
-2.08439e-06
-0.00019055
-0.000166297
5.53451e-05
-0.000244385
-8.23532e-05
9.71478e-05
-0.000285965
6.47477e-06
0.000120928
-0.000309326
8.83546e-05
0.000127357
-0.000309385
0.000148687
0.000117894
-0.000283343
0.000173672
9.25939e-05
-0.000232395
0.000154769
5.03335e-05
-0.00016261
9.31639e-05
-7.67224e-06
-8.52593e-05
5.38367e-07
-7.43216e-05
-1.44671e-05
-0.000104131
-0.000136453
3.59957e-05
-0.000199962
-0.000179288
5.68921e-05
-0.000270744
-0.000191129
4.58373e-05
-0.000165683
7.99682e-06
-0.000223374
-2.84348e-05
4.38192e-05
-0.000195621
3.35086e-05
-3.64261e-05
-0.000148061
9.91962e-05
-0.000121669
-8.58843e-05
0.000152965
-0.000201684
-1.39726e-05
0.000186133
-0.000266171
6.13443e-05
0.000197673
-0.000305315
0.000130313
0.000191965
-0.00031126
0.000180324
0.000174566
-0.000280312
0.00019921
0.000148089
-0.000214988
0.000179653
0.000111375
-0.000124554
0.000122866
6.30298e-05
-2.39871e-05
3.93932e-05
6.27602e-06
6.92432e-05
-5.37586e-05
-4.88863e-05
0.000138908
-0.000137924
-8.87647e-05
0.000173813
-0.000197944
-0.000100611
0.000169325
-7.71618e-05
0.000126243
-0.000117547
4.45924e-05
0.000201464
-8.65913e-05
0.000117663
9.93049e-05
-4.08989e-05
0.000192946
-1.45536e-05
1.35117e-05
0.000251605
-0.000127894
7.24336e-05
0.00028211
-0.000225005
0.000131452
0.000283949
-0.000290042
0.000183229
0.000265433
-0.000310392
0.000217761
0.000236861
-0.000280148
0.000225694
0.000203923
-0.000202577
0.000202219
0.000165968
-9.02145e-05
0.000149669
0.000119944
3.76437e-05
7.74206e-05
6.64242e-05
0.000159379
-3.1528e-07
1.31997e-05
0.000255514
-6.8393e-05
-2.62306e-05
0.000312184
-0.000113891
-3.78241e-05
0.000322331
-1.32237e-05
0.000282959
-2.10457e-05
7.12165e-05
0.000369107
1.71463e-05
0.000162643
0.000254509
6.57368e-05
0.000258003
0.000117046
0.000116625
0.000333687
-2.98698e-05
0.000164856
0.000372201
-0.000164504
0.00020729
0.000370906
-0.000262614
0.000239218
0.000341561
-0.000304422
0.000253996
0.000299879
-0.000280376
0.000246212
0.000255286
-0.000194103
0.000214738
0.000208235
-6.16194e-05
0.000163822
0.000155034
9.3073e-05
0.000102072
9.51392e-05
0.000243782
4.04292e-05
3.58752e-05
0.00036758
-1.00236e-05
-8.42451e-06
0.000448309
-3.95324e-05
-2.17643e-05
0.000477459
6.01908e-06
0.000450536
3.93311e-05
4.03723e-05
0.000505929
8.81732e-05
0.000150716
0.000392898
0.000146077
0.000272024
0.000245051
0.000201761
0.000376211
7.4145e-05
0.000246592
0.000437442
-9.45756e-05
0.000276346
0.00044582
-0.000227564
0.000288727
0.000412831
-0.000294918
0.000281735
0.000359171
-0.000281372
0.000255272
0.000299042
-0.00019058
0.00021266
0.000235312
-4.25067e-05
0.000160137
0.000165135
0.000133654
0.00010536
8.86805e-05
0.000307102
5.60242e-05
1.45213e-05
0.000452124
1.93152e-05
-4.10885e-05
0.000551561
1.88847e-06
-6.01767e-05
0.000597225
-3.13863e-05
0.000585447
4.92307e-05
-4.19452e-05
0.00058085
0.000107418
8.24051e-05
0.00047977
0.000177162
0.000226769
0.000336593
0.00024586
0.00036201
0.000158334
0.000299172
0.000456618
-3.24508e-05
0.000326897
0.000489706
-0.000195856
0.000326174
0.000465165
-0.000289077
0.000300065
0.000405081
-0.000288076
0.000255247
0.000329182
-0.000196304
0.000200025
0.000244593
-3.86941e-05
0.000142376
0.000150987
0.000149858
8.88399e-05
5.08528e-05
0.000334875
4.44764e-05
-4.44789e-05
0.000489447
1.36631e-05
-0.00011607
0.000597401
8.14332e-07
-0.000144283
0.00065211
-0.00011788
0.000651554
1.66781e-05
0.000587988
7.46367e-05
0.000500718
0.000148289
0.000370046
0.000229544
0.000198172
0.000302551
2.3545e-06
0.000347934
-0.000176581
0.000353407
-0.000286644
0.000320808
-0.000295764
0.000262355
-0.000207083
0.000192435
-4.96248e-05
0.000122649
0.000138084
6.10188e-05
0.000320449
1.28567e-05
0.000471801
-1.88783e-05
0.000578281
-3.23393e-05
0.000635129
0.00064146
7.39128e-05
-9.95729e-05
0.000560268
0.000151094
1.47307e-05
0.000454559
0.000230728
0.000147359
0.000313642
0.000301542
0.000271508
0.000152468
0.000348664
0.000361004
-9.47622e-06
0.000359459
0.000395489
-0.000143583
0.000330439
0.000375141
-0.000217455
0.000269744
0.000317894
-0.000210649
0.000192714
0.000242249
-0.000125381
0.000115155
0.000156834
1.6772e-05
4.87491e-05
6.38644e-05
0.000186121
-7.55055e-08
-3.22552e-05
0.000354209
-2.89474e-05
-0.000119888
0.000497915
-3.77019e-05
-0.000181982
0.00060066
-2.66364e-05
-0.000202456
0.000651306
-0.000173528
0.00064322
2.97616e-05
-0.00019165
0.000469496
0.000101937
-8.15914e-05
0.000384509
0.000187392
4.76681e-05
0.000268308
0.000272118
0.000177519
0.000130746
0.000336944
0.000284796
-1.24269e-05
0.000364529
0.00034653
-0.00013587
0.00034829
0.000352342
-0.000207596
0.000295916
0.000309539
-0.000206654
0.000223794
0.000233094
-0.000134296
0.000148534
0.000134937
-1.04951e-05
8.14859e-05
2.37306e-05
0.000137345
2.78353e-05
-8.97057e-05
0.000283303
-1.13654e-05
-0.000189687
0.000407064
-3.58468e-05
-0.000258473
0.000494631
-4.36099e-05
-0.00028276
0.000538159
-0.000258177
0.000532564
-2.68814e-05
-0.000267812
0.000345878
3.6422e-05
-0.000166747
0.00027326
0.000118347
-4.76537e-05
0.000177987
0.000207312
7.65071e-05
6.72611e-05
0.000285018
0.000187943
-4.73028e-05
0.000332235
0.000265308
-0.000146777
0.00033753
0.000292024
-0.000206466
0.000303556
0.000265025
-0.000208
0.000243806
0.000193194
-0.000150344
0.000173829
8.98064e-05
-4.87908e-05
0.000104908
-3.07484e-05
7.39935e-05
4.28866e-05
-0.000151866
0.000195755
-9.51805e-06
-0.000254848
0.000298526
-4.97442e-05
-0.000322791
0.000370075
-7.3273e-05
-0.000345801
0.000403719
-0.000322675
0.000395875
-9.06977e-05
-0.000319659
0.000208456