/*--------------------------------*- C++ -*----------------------------------*\
| =========                 |                                                 |
| \\      /  F ield         | OpenFOAM: The Open Source CFD Toolbox           |
|  \\    /   O peration     | Version:  3.0.0                                 |
|   \\  /    A nd           | Web:      www.OpenFOAM.org                      |
|    \\/     M anipulation  |                                                 |
\*---------------------------------------------------------------------------*/
FoamFile
{
    version     2.0;
    format      ascii;
    class       volVectorField;
    location    "5";
    object      U;
}
// * * * * * * * * * * * * * * * * * * * * * * * * * * * * * * * * * * * * * //

dimensions      [0 1 -1 0 0 0 0];

internalField   nonuniform List<vector> 
4096
(
(-0.0706989 -0.102026 0.0726744)
(-0.06676 -0.0622008 0.0701798)
(-0.0595056 -0.0180845 0.0581856)
(-0.0446719 0.0264452 0.0352502)
(-0.0241364 0.0665831 0.00368786)
(-0.000713853 0.0970418 -0.0312177)
(0.0218257 0.113353 -0.0620338)
(0.0390895 0.113294 -0.0814699)
(0.04762 0.0972194 -0.0856749)
(0.046226 0.0669785 -0.0757218)
(0.0359548 0.0256762 -0.0559902)
(0.0192479 -0.0214623 -0.0312892)
(-0.00106068 -0.0666331 -0.00517597)
(-0.0225035 -0.100852 0.0200054)
(-0.043346 -0.11727 0.0422304)
(-0.0582373 -0.113957 0.0585872)
(-0.100552 -0.124661 0.0504644)
(-0.0986819 -0.0845301 0.0508049)
(-0.0937228 -0.0411235 0.0423972)
(-0.0788249 0.00404136 0.0228175)
(-0.0565711 0.0470915 -0.00640458)
(-0.0304698 0.0823225 -0.0405801)
(-0.00508686 0.103332 -0.0724832)
(0.014758 0.105409 -0.0945234)
(0.0257629 0.0876198 -0.102128)
(0.0270131 0.0526504 -0.0955403)
(0.0194009 0.00595009 -0.0785116)
(0.00461697 -0.0448259 -0.0556175)
(-0.0153643 -0.090699 -0.030509)
(-0.0385376 -0.123231 -0.00569543)
(-0.0629982 -0.13727 0.0168639)
(-0.0798901 -0.131684 0.0345261)
(-0.125456 -0.146536 0.0302962)
(-0.124409 -0.104361 0.0340636)
(-0.121288 -0.0608748 0.0293262)
(-0.106697 -0.0165381 0.0134054)
(-0.0836571 0.0255168 -0.012591)
(-0.0556084 0.0605196 -0.0446153)
(-0.0270231 0.0825807 -0.0761769)
(-0.00302088 0.0864648 -0.100039)
(0.0123897 0.0700125 -0.111252)
(0.0174104 0.0351669 -0.109099)
(0.0121246 -0.0124898 -0.0963033)
(-0.00229005 -0.0646616 -0.0767285)
(-0.0238795 -0.111661 -0.0536905)
(-0.0502259 -0.144526 -0.0295938)
(-0.0788191 -0.157887 -0.00641027)
(-0.0971607 -0.149886 0.0132203)
(-0.142145 -0.157061 0.0128748)
(-0.142043 -0.115314 0.0206234)
(-0.140287 -0.0732781 0.0201122)
(-0.125837 -0.0309162 0.0087488)
(-0.102101 0.00905698 -0.0127668)
(-0.07238 0.0426338 -0.0411348)
(-0.040849 0.0646207 -0.0708956)
(-0.0126796 0.069788 -0.0956156)
(0.00736674 0.0551916 -0.11027)
(0.0162853 0.0219538 -0.113117)
(0.0131201 -0.0246113 -0.105567)
(-0.00139769 -0.0760497 -0.0905026)
(-0.0251007 -0.122416 -0.070719)
(-0.054946 -0.154586 -0.0484009)
(-0.0876162 -0.167114 -0.0254802)
(-0.107594 -0.157441 -0.00452808)
(-0.148878 -0.156571 -0.000376657)
(-0.150334 -0.117196 0.0112425)
(-0.149538 -0.0774541 0.0151592)
(-0.135112 -0.0376392 0.00906222)
(-0.110717 -0.000379267 -0.00683489)
(-0.0796209 0.0309054 -0.0301823)
(-0.0457664 0.0518331 -0.0566907)
(-0.0142086 0.0577095 -0.080988)
(0.00983268 0.0453591 -0.0982565)
(0.0223203 0.015095 -0.105913)
(0.0212431 -0.0285626 -0.104039)
(0.00677408 -0.0776372 -0.094379)
(-0.0188079 -0.122371 -0.0790201)
(-0.0518513 -0.153635 -0.0597696)
(-0.0881191 -0.165759 -0.0384438)
(-0.110287 -0.155603 -0.0175207)
(-0.144889 -0.145637 -0.00824167)
(-0.148746 -0.110109 0.00627606)
(-0.148723 -0.0731307 0.0140601)
(-0.134509 -0.0360415 0.013162)
(-0.10978 -0.00163148 0.00332654)
(-0.0777753 0.0270584 -0.0140619)
(-0.0423127 0.0464293 -0.0359917)
(-0.00828315 0.0525915 -0.0582857)
(0.0189159 0.0425767 -0.0766688)
(0.0345364 0.0160556 -0.0881084)
(0.0356255 -0.0235392 -0.091554)
(0.0216635 -0.069203 -0.087588)
(-0.00518512 -0.111731 -0.0774232)
(-0.0407761 -0.142138 -0.06232)
(-0.0799051 -0.154441 -0.0439071)
(-0.104893 -0.145158 -0.0246047)
(-0.130354 -0.125625 -0.00975778)
(-0.137408 -0.0948661 0.00584252)
(-0.138214 -0.0609142 0.0160307)
(-0.124646 -0.0265063 0.0192545)
(-0.100144 0.00528988 0.0149172)
(-0.0678823 0.0316179 0.00356817)
(-0.0315901 0.0494785 -0.0129556)
(0.00401676 0.0557666 -0.03171)
(0.0335685 0.0479253 -0.0492759)
(0.0519292 0.0252758 -0.0626574)
(0.0553752 -0.00980991 -0.070103)
(0.0425877 -0.0515312 -0.0711666)
(0.0153365 -0.0915291 -0.0661354)
(-0.0219362 -0.121161 -0.0556413)
(-0.0630768 -0.134193 -0.0410506)
(-0.091411 -0.127048 -0.0247904)
(-0.106275 -0.0989957 -0.00419979)
(-0.116962 -0.0732184 0.0101592)
(-0.118801 -0.0424049 0.0205137)
(-0.106463 -0.0105702 0.0257148)
(-0.082932 0.018923 0.0250914)
(-0.0512282 0.0432823 0.0186771)
(-0.0149663 0.0599061 0.0074341)
(0.0213082 0.0663251 -0.00679064)
(0.0523973 0.0604486 -0.0215981)
(0.073066 0.0414743 -0.0345017)
(0.07902 0.0109249 -0.0435986)
(0.0681276 -0.0266192 -0.0478191)
(0.0415301 -0.0638736 -0.0467056)
(0.00369655 -0.0927448 -0.0402989)
(-0.0384524 -0.106927 -0.0296696)
(-0.0701897 -0.1029 -0.0172546)
(-0.0746811 -0.0690976 0.00873789)
(-0.0887221 -0.0477113 0.0196502)
(-0.0917878 -0.0199439 0.0276153)
(-0.0812256 0.0094324 0.0319096)
(-0.0594597 0.0368306 0.0321337)
(-0.0292649 0.0594622 0.0282882)
(0.00593859 0.0749943 0.0209322)
(0.041841 0.0814254 0.0111295)
(0.0734659 0.0771873 0.000393821)
(0.0956811 0.0614965 -0.009585)
(0.103944 0.0353044 -0.0173038)
(0.0954802 0.00208067 -0.0216783)
(0.0706954 -0.0321211 -0.0219935)
(0.0337596 -0.0600405 -0.0179639)
(-0.00804202 -0.0755036 -0.0103958)
(-0.0423256 -0.0750726 -0.00159105)
(-0.0391378 -0.039887 0.0282709)
(-0.0552381 -0.0215612 0.0344741)
(-0.0594362 0.00364818 0.0379272)
(-0.0509185 0.0308851 0.0384106)
(-0.0315663 0.056379 0.0361276)
(-0.00381952 0.0772817 0.0315911)
(0.0291595 0.0915022 0.0255332)
(0.0633876 0.0974823 0.0188011)
(0.0941698 0.0941288 0.0122769)
(0.116585 0.0809324 0.00690212)
(0.126223 0.0585796 0.00343562)
(0.120125 0.0296506 0.00237204)
(0.0981514 -0.00111025 0.00399901)
(0.0638694 -0.0275626 0.00839068)
(0.0242743 -0.0439499 0.014868)
(-0.0104219 -0.0468213 0.0215403)
(-0.00522159 -0.0156864 0.0517452)
(-0.0210897 0.00135118 0.0534882)
(-0.0257101 0.0251267 0.0515492)
(-0.018908 0.0511128 0.0461616)
(-0.00218393 0.0752561 0.0384153)
(0.0224049 0.0945055 0.0298455)
(0.0520896 0.106965 0.0219752)
(0.0832092 0.111614 0.0160167)
(0.111389 0.107903 0.0127428)
(0.132066 0.0957959 0.012488)
(0.14126 0.07603 0.0151378)
(0.136454 0.0506561 0.0201795)
(0.117561 0.0232911 0.0268847)
(0.0875111 -0.00115809 0.0345603)
(0.0523002 -0.0176211 0.0424532)
(0.020401 -0.022558 0.0492737)
(0.019971 -0.000753231 0.0744236)
(0.00693501 0.01666 0.0732688)
(0.00329555 0.0407771 0.0665876)
(0.00948418 0.0672086 0.0548793)
(0.0241535 0.091334 0.0400399)
(0.0455343 0.109592 0.0249382)
(0.0712755 0.120139 0.0125065)
(0.0980871 0.122561 0.00498675)
(0.121924 0.117041 0.00350296)
(0.138672 0.104164 0.00801126)
(0.145091 0.084908 0.0173783)
(0.139669 0.0611755 0.029778)
(0.123026 0.0359625 0.0431753)
(0.097772 0.0132865 0.0559007)
(0.0685385 -0.00244718 0.0670268)
(0.0423683 -0.00761699 0.075906)
(0.0302145 0.00171572 0.090952)
(0.0216878 0.0207002 0.088691)
(0.0205663 0.0470455 0.0789726)
(0.0276728 0.0760733 0.0621471)
(0.0416791 0.102325 0.0404209)
(0.0607888 0.121243 0.0178748)
(0.0828256 0.130575 -0.000706802)
(0.104773 0.130433 -0.01142)
(0.123005 0.121933 -0.0123566)
(0.134102 0.10635 -0.00380559)
(0.13585 0.085065 0.011835)
(0.128058 0.0601578 0.0311922)
(0.112295 0.0346779 0.0509107)
(0.0911304 0.0124552 0.0685473)
(0.0678981 -0.00242416 0.0830464)
(0.0480895 -0.00640276 0.0941459)
(0.0234806 -0.00966004 0.0978675)
(0.0194094 0.0119784 0.0955296)
(0.0214038 0.0418915 0.0845145)
(0.0305008 0.0750813 0.0646055)
(0.0454529 0.105454 0.0376715)
(0.063972 0.12716 0.0084188)
(0.0833987 0.136851 -0.0165483)
(0.100813 0.134761 -0.0312395)
(0.113177 0.12288 -0.0324052)
(0.118127 0.103139 -0.0206823)
(0.114796 0.0774753 0.000120356)
(0.104134 0.0485567 0.0249109)
(0.0883564 0.0201752 0.0492425)
(0.0699465 -0.00331242 0.0703271)
(0.0512365 -0.0177847 0.0870905)
(0.035893 -0.0201867 0.0992884)
(0.00298941 -0.0338062 0.0948336)
(0.00210847 -0.00796329 0.0927948)
(0.00617743 0.0262735 0.0816563)
(0.0167818 0.0638904 0.0603911)
(0.0331232 0.0988889 0.0299769)
(0.0525682 0.124717 -0.00498782)
(0.0714762 0.136697 -0.0364402)
(0.0862846 0.134214 -0.0553714)
(0.0942771 0.119383 -0.056871)
(0.0943277 0.0948109 -0.0422082)
(0.0868837 0.0632368 -0.0171987)
(0.0737472 0.0283648 0.0113366)
(0.0574587 -0.00482973 0.0383591)
(0.0404014 -0.0309629 0.0613065)
(0.0242408 -0.0456036 0.0792675)
(0.0110871 -0.0465466 0.0917872)
(-0.0238965 -0.0571195 0.0833723)
(-0.0235881 -0.0288198 0.082221)
(-0.020585 0.00732078 0.0719075)
(-0.0114216 0.0481422 0.0499647)
(0.00445808 0.0888775 0.0163487)
(0.0256015 0.122455 -0.0244416)
(0.0478492 0.141129 -0.0623541)
(0.0653271 0.140231 -0.0852244)
(0.0734433 0.120651 -0.086328)
(0.0709867 0.0872513 -0.0682005)
(0.0598047 0.0464103 -0.0393076)
(0.0434376 0.00473249 -0.00813758)
(0.0256136 -0.0316098 0.020147)
(0.00891617 -0.0576245 0.0437184)
(-0.00575003 -0.0702908 0.0622495)
(-0.0173003 -0.0693694 0.0752034)
(-0.0523316 -0.0872918 0.110265)
(-0.043204 -0.0454024 0.0963253)
(-0.0298463 0.0018271 0.0729623)
(-0.0103282 0.0479 0.0404174)
(0.0124498 0.0862045 0.00258955)
(0.0346133 0.111098 -0.0339894)
(0.0520092 0.119968 -0.0615311)
(0.0613916 0.113833 -0.0737387)
(0.0616375 0.095294 -0.0685548)
(0.0536992 0.0662513 -0.0486985)
(0.0396131 0.0281752 -0.019592)
(0.0216379 -0.0157348 0.013176)
(0.0019057 -0.0589783 0.0451581)
(-0.0176664 -0.0926725 0.0729999)
(-0.0354298 -0.108963 0.0938894)
(-0.0473355 -0.104753 0.104891)
(-0.078463 -0.111825 0.0824305)
(-0.0714075 -0.0708662 0.0723349)
(-0.059544 -0.0245784 0.0542302)
(-0.0389028 0.0231335 0.0266468)
(-0.0132269 0.0663371 -0.00760211)
(0.0125142 0.0981151 -0.0426311)
(0.03313 0.112985 -0.0707184)
(0.0449085 0.10923 -0.0850901)
(0.0469639 0.0885792 -0.0831048)
(0.0406771 0.0541855 -0.0669689)
(0.0281521 0.0100593 -0.0416935)
(0.0111699 -0.0380273 -0.0125328)
(-0.00886077 -0.0822814 0.016349)
(-0.0304781 -0.114481 0.0419284)
(-0.0519253 -0.128883 0.0619445)
(-0.0665229 -0.123737 0.0740209)
(-0.101135 -0.135138 0.0560655)
(-0.0952931 -0.0937362 0.0493107)
(-0.0852877 -0.0488103 0.0355863)
(-0.0649393 -0.00268234 0.0127401)
(-0.0381786 0.0398859 -0.0171369)
(-0.00988295 0.0729169 -0.0490478)
(0.0146022 0.0907071 -0.0762011)
(0.0308555 0.0899775 -0.0922194)
(0.0370621 0.0708633 -0.094017)
(0.0338521 0.036159 -0.0827693)
(0.0228263 -0.00934297 -0.0623584)
(0.00553209 -0.0587814 -0.0372171)
(-0.0164658 -0.103649 -0.0111189)
(-0.0412556 -0.135593 0.0130055)
(-0.0665323 -0.14922 0.0329659)
(-0.0827276 -0.142575 0.0466747)
(-0.11853 -0.148292 0.0315008)
(-0.113743 -0.108354 0.0283417)
(-0.105368 -0.0662588 0.0189717)
(-0.0855266 -0.023115 0.00107176)
(-0.058288 0.0171993 -0.0238224)
(-0.0281671 0.0495992 -0.0516767)
(-0.00022529 0.0686421 -0.0768837)
(0.020706 0.0701895 -0.0938477)
(0.0316439 0.0530928 -0.0992003)
(0.0319234 0.019592 -0.0929306)
(0.0223361 -0.0251426 -0.0775944)
(0.00431186 -0.0736088 -0.0567372)
(-0.0200948 -0.117023 -0.0337724)
(-0.0482233 -0.147303 -0.0115514)
(-0.0770698 -0.159562 0.00781536)
(-0.0944736 -0.151595 0.0226293)
(-0.12939 -0.151327 0.0104668)
(-0.125737 -0.114113 0.0108088)
(-0.118618 -0.0754925 0.00562173)
(-0.0992509 -0.0360529 -0.00721239)
(-0.0717898 0.000925695 -0.0267181)
(-0.0404263 0.0311426 -0.0498729)
(-0.0098654 0.049771 -0.0722792)
(0.0149512 0.0526214 -0.089216)
(0.0301256 0.037819 -0.0972309)
(0.0336904 0.00690207 -0.0953092)
(0.0255064 -0.0352005 -0.084782)
(0.00683015 -0.0809744 -0.0683407)
(-0.0197767 -0.121765 -0.0489965)
(-0.0508609 -0.149858 -0.0294415)
(-0.0826754 -0.16073 -0.0116449)
(-0.101189 -0.151907 0.00311945)
(-0.132838 -0.144493 -0.00515977)
(-0.130529 -0.110882 -0.0020898)
(-0.124384 -0.0758986 -0.00382834)
(-0.105585 -0.0403385 -0.0120186)
(-0.0781992 -0.00716408 -0.0261653)
(-0.046152 0.0199846 -0.0442267)
(-0.0138359 0.0370715 -0.0629829)
(0.0138414 0.0403881 -0.0786504)
(0.0323843 0.027854 -0.0879704)
(0.0387635 0.000330118 -0.0892714)
(0.0319387 -0.037956 -0.0828863)
(0.0128954 -0.0800198 -0.0706976)
(-0.015407 -0.117637 -0.0552516)
(-0.0487847 -0.143497 -0.0389867)
(-0.0827583 -0.153236 -0.0237202)
(-0.10248 -0.144216 -0.0104054)
(-0.128261 -0.128622 -0.013573)
(-0.127615 -0.0991438 -0.00927055)
(-0.122255 -0.0676746 -0.00897576)
(-0.104258 -0.0357745 -0.013696)
(-0.0773893 -0.00631321 -0.0232329)
(-0.0452822 0.0175996 -0.0363482)
(-0.0120591 0.0326971 -0.0508745)
(0.0174636 0.0359604 -0.0640082)
(0.0384651 0.0254414 -0.0729869)
(0.0471677 0.00150318 -0.0759232)
(0.0417341 -0.0325065 -0.072476)
(0.022779 -0.0704687 -0.0638285)
(-0.00654038 -0.104821 -0.0520355)
(-0.0414397 -0.128687 -0.0392308)
(-0.0767326 -0.137739 -0.0271062)
(-0.0978782 -0.129309 -0.0165274)
(-0.115335 -0.105424 -0.0131252)
(-0.11667 -0.0801648 -0.0096365)
(-0.112028 -0.0519136 -0.0093693)
(-0.095179 -0.0232837 -0.0126343)
(-0.0694035 0.00282854 -0.0192389)
(-0.0379812 0.0237316 -0.0284234)
(-0.00474698 0.0368496 -0.0388033)
(0.0256309 0.0398257 -0.0484816)
(0.0482233 0.0310744 -0.0554079)
(0.0587999 0.0106156 -0.0579583)
(0.0548643 -0.0190852 -0.0555613)
(0.0365816 -0.0529401 -0.0489491)
(0.00708237 -0.0842214 -0.0397702)
(-0.0284496 -0.106506 -0.029886)
(-0.0642032 -0.115434 -0.0209079)
(-0.0869276 -0.108402 -0.0138907)
(-0.0943507 -0.0773366 -0.00254139)
(-0.0977903 -0.0558335 -0.00207006)
(-0.0938738 -0.0303686 -0.00426115)
(-0.0785642 -0.004556 -0.00876445)
(-0.0545444 0.0186145 -0.015046)
(-0.0246628 0.0367812 -0.0223555)
(0.00754628 0.0479856 -0.0296455)
(0.0376911 0.0505589 -0.0356889)
(0.0609441 0.0433158 -0.0391927)
(0.0728392 0.0260951 -0.0391539)
(0.0704508 0.000554044 -0.0352982)
(0.05349 -0.0293219 -0.0283489)
(0.0248394 -0.0577672 -0.0198157)
(-0.0102059 -0.0788586 -0.0114279)
(-0.0454114 -0.0881776 -0.00479628)
(-0.0694785 -0.0831788 -0.00133724)
(-0.0667975 -0.0475205 0.0184189)
(-0.0720005 -0.0286138 0.0141918)
(-0.0687594 -0.00523861 0.0072813)
(-0.0552578 0.0183152 -0.00135853)
(-0.0336155 0.0389282 -0.0104992)
(-0.00621724 0.0544927 -0.0188502)
(0.0238349 0.0636315 -0.0251606)
(0.0524812 0.0654301 -0.0283909)
(0.0751458 0.0591964 -0.0278785)
(0.0874625 0.0447205 -0.0233829)
(0.0863553 0.0229937 -0.01539)
(0.0712381 -0.00308875 -0.00516716)
(0.0446068 -0.0288265 0.00545285)
(0.0114896 -0.0488811 0.0145905)
(-0.0218494 -0.058798 0.0205418)
(-0.0462554 -0.0560025 0.0215699)
(-0.0361162 -0.019951 0.0478244)
(-0.0419705 -0.00176695 0.0385521)
(-0.039064 0.020742 0.0255894)
(-0.0272779 0.0429858 0.0104184)
(-0.00834755 0.061596 -0.00467567)
(0.0157731 0.0746253 -0.0172786)
(0.0424702 0.0813179 -0.0253281)
(0.0681732 0.0815648 -0.0274702)
(0.0886921 0.075346 -0.0232714)
(0.100005 0.0625817 -0.0132856)
(0.0993285 0.0438008 0.000958276)
(0.0861049 0.0209508 0.017156)
(0.0624894 -0.00231084 0.0326693)
(0.0328972 -0.0212844 0.0451074)
(0.00304213 -0.0315488 0.0526072)
(-0.019791 -0.0303211 0.0533579)
(-0.00815323 0.000502707 0.0805644)
(-0.0127963 0.0201816 0.0676228)
(-0.00930241 0.0438325 0.048865)
(0.00154861 0.0665342 0.0261617)
(0.0180684 0.0843391 0.00300388)
(0.0386051 0.0952399 -0.0165338)
(0.061051 0.0991361 -0.0289176)
(0.0823909 0.0969006 -0.0319229)
(0.099001 0.0892934 -0.0250112)
(0.10751 0.0765826 -0.00944637)
(0.105813 0.0590416 0.0120077)
(0.0938004 0.0379538 0.035681)
(0.0735047 0.0162209 0.0578017)
(0.0485586 -0.0019307 0.075299)
(0.0236595 -0.0120932 0.0862035)
(0.00462817 -0.0111553 0.0889914)
(0.00999296 0.00888787 0.108961)
(0.00845648 0.0318006 0.0947677)
(0.0139337 0.0590474 0.0721504)
(0.0253703 0.0849231 0.0429439)
(0.0407614 0.104297 0.0115024)
(0.0583475 0.114521 -0.016221)
(0.0763597 0.115957 -0.034598)
(0.0923823 0.110586 -0.0399835)
(0.10358 0.100181 -0.0314291)
(0.107571 0.0854649 -0.010943)
(0.103269 0.066675 0.0173262)
(0.0912871 0.044814 0.0481572)
(0.0736896 0.0225562 0.076626)
(0.0533472 0.00408943 0.0991101)
(0.0337184 -0.00598726 0.113728)
(0.0194794 -0.0042723 0.119463)
(0.0134152 0.00194914 0.126115)
(0.0157137 0.0288182 0.112552)
(0.0241641 0.0613907 0.0886961)
(0.0378453 0.0930662 0.0557536)
(0.0542212 0.117088 0.0179815)
(0.0706409 0.129253 -0.0173064)
(0.0850273 0.129702 -0.0420194)
(0.0955785 0.12147 -0.0505088)
(0.10065 0.107448 -0.0412376)
(0.0992445 0.0889071 -0.0169684)
(0.0914794 0.0662526 0.0165631)
(0.0785835 0.0406682 0.0526111)
(0.0625352 0.0152433 0.0853652)
(0.0455478 -0.00531357 0.11105)
(0.0299945 -0.0160138 0.128053)
(0.0193555 -0.0134161 0.135785)
(0.00267264 -0.0199222 0.129573)
(0.00797706 0.0111658 0.117238)
(0.0187707 0.0492429 0.0941446)
(0.0349249 0.0873477 0.0603956)
(0.0538504 0.117786 0.0190988)
(0.0716418 0.134542 -0.0222194)
(0.0848115 0.136468 -0.0530064)
(0.0914723 0.126852 -0.064822)
(0.0912627 0.109478 -0.0552005)
(0.0848874 0.0862704 -0.0280721)
(0.0736494 0.0580417 0.00890357)
(0.0591932 0.0265754 0.0476437)
(0.0433506 -0.00411758 0.0820513)
(0.0279223 -0.0283027 0.108772)
(0.0145448 -0.0404427 0.126583)
(0.00548128 -0.0374426 0.135006)
(-0.0165135 -0.0444804 0.120405)
(-0.0103646 -0.0120646 0.109747)
(-0.000296845 0.0285873 0.0885704)
(0.0157391 0.0721789 0.0554505)
(0.0365398 0.111437 0.0123924)
(0.058252 0.137945 -0.0330527)
(0.0753103 0.146193 -0.0684372)
(0.0833827 0.136759 -0.0826956)
(0.0815208 0.114113 -0.0726949)
(0.0715103 0.0826117 -0.0437571)
(0.0561805 0.0456845 -0.00530153)
(0.0384445 0.00729009 0.0337656)
(0.0209435 -0.0273564 0.0675939)
(0.00560511 -0.0526603 0.0935945)
(-0.00669584 -0.0643539 0.111163)
(-0.0149788 -0.0610879 0.11994)
(-0.0239235 -0.0575761 0.134064)
(-0.00945369 -0.0194724 0.111798)
(0.00828788 0.0238182 0.0805806)
(0.0293138 0.0646703 0.0422004)
(0.0502895 0.0957474 0.001068)
(0.067022 0.111834 -0.0360035)
(0.0758539 0.112386 -0.0608907)
(0.0752486 0.101001 -0.0673705)
(0.066347 0.0817041 -0.0542177)
(0.0519195 0.0563309 -0.0253933)
(0.0348887 0.0252814 0.0123869)
(0.0175123 -0.0099024 0.0523016)
(0.00133344 -0.0446541 0.0887773)
(-0.0124974 -0.071784 0.11757)
(-0.023001 -0.0842244 0.135473)
(-0.0281938 -0.07856 0.140138)
(-0.0436135 -0.0821179 0.104922)
(-0.0312832 -0.0453848 0.0873769)
(-0.0141175 -0.0023657 0.0623002)
(0.00899613 0.0415147 0.0296909)
(0.0338489 0.0792814 -0.00720702)
(0.0549207 0.103772 -0.0421843)
(0.0673896 0.110989 -0.0671529)
(0.0692628 0.101926 -0.0754763)
(0.0619458 0.0802268 -0.0655008)
(0.0486263 0.0491805 -0.0408502)
(0.0323283 0.0115688 -0.00787375)
(0.0149729 -0.0286864 0.0270588)
(-0.00242815 -0.0656764 0.0589227)
(-0.0190384 -0.0926036 0.084183)
(-0.0337001 -0.104266 0.100512)
(-0.042759 -0.0988776 0.106262)
(-0.062261 -0.10575 0.0747862)
(-0.05193 -0.0698752 0.0604139)
(-0.0365741 -0.0289404 0.0401216)
(-0.0136281 0.0133898 0.013024)
(0.0127761 0.0516532 -0.0184426)
(0.0372226 0.079454 -0.0492014)
(0.0543865 0.0916537 -0.0724182)
(0.0611616 0.0867004 -0.0820648)
(0.0579025 0.0664493 -0.0760463)
(0.0471868 0.0342504 -0.056848)
(0.0317472 -0.00579032 -0.0295459)
(0.0134494 -0.0482506 0.000468042)
(-0.00642693 -0.0863281 0.028679)
(-0.026523 -0.113218 0.0517151)
(-0.0450743 -0.124402 0.0673856)
(-0.056464 -0.118543 0.0743621)
(-0.079272 -0.121251 0.0446286)
(-0.07051 -0.0873828 0.0332614)
(-0.056989 -0.0498737 0.0173544)
(-0.0348419 -0.0108267 -0.00439983)
(-0.00806778 0.0255995 -0.030149)
(0.018477 0.0539654 -0.0559195)
(0.0397151 0.0689155 -0.0763963)
(0.0517437 0.0672354 -0.0865741)
(0.0533995 0.0490869 -0.084074)
(0.0459266 0.0174835 -0.0700659)
(0.0314257 -0.0225991 -0.0481859)
(0.0118711 -0.064675 -0.0228787)
(-0.0107736 -0.10149 0.00171688)
(-0.0342838 -0.126624 0.022301)
(-0.0561728 -0.136389 0.0368373)
(-0.0688512 -0.129743 0.044508)
(-0.0938231 -0.127965 0.0167)
(-0.0860828 -0.0966948 0.00823977)
(-0.074035 -0.0631676 -0.0036701)
(-0.0527514 -0.0283661 -0.0203621)
(-0.0261294 0.00449509 -0.0404949)
(0.0015331 0.030978 -0.0611345)
(0.0256528 0.0462133 -0.0783158)
(0.0420076 0.0464587 -0.0880525)
(0.048129 0.0307423 -0.0879044)
(0.0437582 0.00139794 -0.0779942)
(0.0301642 -0.0364919 -0.0607356)
(0.00942949 -0.0760674 -0.0397891)
(-0.0156911 -0.110052 -0.0189649)
(-0.0420248 -0.132514 -0.00140961)
(-0.0664047 -0.140442 0.0111161)
(-0.079561 -0.132883 0.0184952)
(-0.104813 -0.12583 -0.00645758)
(-0.0975812 -0.0975429 -0.0125601)
(-0.086588 -0.0680762 -0.0212609)
(-0.066142 -0.0378762 -0.0335536)
(-0.039971 -0.00950056 -0.0485504)
(-0.0118862 0.0135386 -0.0641958)
(0.0139828 0.027243 -0.0776552)
(0.0333488 0.0281651 -0.0858844)
(0.0428451 0.0148406 -0.0866277)
(0.0409335 -0.0111683 -0.0793791)
(0.0280604 -0.0453113 -0.0656693)
(0.00636203 -0.0810199 -0.0485263)
(-0.0206676 -0.111343 -0.0314416)
(-0.0489869 -0.130826 -0.0173191)
(-0.0748733 -0.13688 -0.00758486)
(-0.0879282 -0.128523 -0.00165645)
(-0.110797 -0.11526 -0.0223185)
(-0.103725 -0.0902429 -0.0271796)
(-0.0933993 -0.0646219 -0.0340119)
(-0.0738024 -0.0388895 -0.0431935)
(-0.0483731 -0.0151721 -0.0540839)
(-0.0204792 0.00382104 -0.0652908)
(0.00612155 0.0150691 -0.0748701)
(0.0271888 0.0158261 -0.080632)
(0.0388302 0.00461615 -0.0807327)
(0.038605 -0.017657 -0.074493)
(0.0262701 -0.0473196 -0.0629388)
(0.00394589 -0.0785631 -0.0486407)
(-0.0243019 -0.105026 -0.034778)
(-0.0537171 -0.12169 -0.0239971)
(-0.0801577 -0.126151 -0.0174389)
(-0.0928374 -0.117356 -0.0140426)
(-0.11014 -0.0973345 -0.0284255)
(-0.10315 -0.0757263 -0.033767)
(-0.093202 -0.0535535 -0.040651)
(-0.0745774 -0.0318541 -0.0486905)
(-0.0503013 -0.0125111 -0.0572159)
(-0.0232925 0.00246287 -0.0651869)
(0.00305673 0.0110021 -0.0712463)
(0.0246357 0.011188 -0.073918)
(0.0373188 0.00182015 -0.0719298)
(0.0381167 -0.0167089 -0.0648578)
(0.026269 -0.0417342 -0.0536467)
(0.00379912 -0.0684775 -0.0406438)
(-0.024881 -0.0913392 -0.0288186)
(-0.0545103 -0.105682 -0.0206089)
(-0.0806406 -0.109087 -0.0170214)
(-0.0929153 -0.100414 -0.0169238)
(-0.101512 -0.0737021 -0.0226505)
(-0.0947782 -0.0553202 -0.0306083)
(-0.0850474 -0.0360429 -0.0398836)
(-0.0676381 -0.0177789 -0.0493309)
(-0.0450628 -0.00232561 -0.0579321)
(-0.0197502 0.00891547 -0.0646099)
(0.00530445 0.0147786 -0.0682299)
(0.0262501 0.0142136 -0.0677382)
(0.0389838 0.00642595 -0.0625229)
(0.0402642 -0.00856761 -0.0527246)
(0.0289998 -0.0291228 -0.0396522)
(0.00703658 -0.051632 -0.0257781)
(-0.0211422 -0.0713566 -0.0140675)
(-0.0500421 -0.0839979 -0.00691708)
(-0.0750112 -0.0869667 -0.0054004)
(-0.0868988 -0.0790012 -0.0087909)
(-0.0845369 -0.0466234 -0.00379667)
(-0.0782995 -0.0306871 -0.0163953)
(-0.0687062 -0.0135145 -0.0304292)
(-0.0527756 0.00202991 -0.0441004)
(-0.0324929 0.0141274 -0.0557054)
(-0.00976523 0.0219 -0.063667)
(0.0128838 0.0250575 -0.0666133)
(0.031994 0.0234668 -0.0636385)
(0.0437241 0.0168285 -0.0546014)
(0.0449029 0.00490839 -0.0404197)
(0.0343275 -0.0115905 -0.0231751)
(0.013632 -0.0302751 -0.0058679)
(-0.0129286 -0.0473201 0.00821416)
(-0.0399824 -0.0587609 0.0164604)
(-0.0628381 -0.0617436 0.0175142)
(-0.0740978 -0.0548359 0.0113309)
(-0.0605457 -0.0191978 0.027322)
(-0.0547284 -0.00409333 0.00901772)
(-0.0451366 0.012187 -0.0115481)
(-0.030782 0.0260041 -0.0319996)
(-0.013228 0.035368 -0.0496003)
(0.00610305 0.0398457 -0.0617362)
(0.0252237 0.0400561 -0.0662874)
(0.0412083 0.0368534 -0.0620835)
(0.0507028 0.0305419 -0.0493141)
(0.0509477 0.0207886 -0.0296985)
(0.0409361 0.00751909 -0.006347)
(0.0221576 -0.00799072 0.0168042)
(-0.00161053 -0.0228315 0.0358013)
(-0.0255328 -0.0333506 0.0475512)
(-0.0451759 -0.0364245 0.050255)
(-0.0550225 -0.030385 0.0430371)
(-0.0333563 0.00423936 0.0664355)
(-0.0272049 0.020921 0.0431974)
(-0.017116 0.0382806 0.0157556)
(-0.00392306 0.0520039 -0.0130256)
(0.0109048 0.0596637 -0.0390243)
(0.0263543 0.0611532 -0.0579844)
(0.041013 0.0580792 -0.0664612)
(0.0526046 0.0524153 -0.0626096)
(0.058497 0.0451802 -0.0467341)
(0.0566827 0.0361055 -0.0213918)
(0.0466936 0.0245645 0.00909708)
(0.0300322 0.0109659 0.0396018)
(0.00989869 -0.00251783 0.0652532)
(-0.00975474 -0.012446 0.0823485)
(-0.0251612 -0.015422 0.0886881)
(-0.0323343 -0.00947062 0.0828543)
(-0.00936612 0.0182473 0.105223)
(-0.00147758 0.038978 0.0797994)
(0.0101583 0.0602124 0.0472249)
(0.0234297 0.0765897 0.0105404)
(0.0364482 0.084639 -0.0247537)
(0.0482809 0.0841915 -0.052215)
(0.0580652 0.0778647 -0.0664043)
(0.0643169 0.0689335 -0.0643526)
(0.065379 0.0592936 -0.0463166)
(0.060309 0.0488929 -0.0157555)
(0.0494465 0.0368148 0.021659)
(0.0344678 0.0229636 0.0594526)
(0.0179937 0.00915286 0.0917899)
(0.00291473 -0.00115419 0.114466)
(-0.00798284 -0.00415714 0.125193)
(-0.0116374 0.00255641 0.122629)
(0.00461971 0.0178874 0.133954)
(0.01536 0.0438568 0.109508)
(0.0297142 0.0715178 0.0752212)
(0.0450703 0.094025 0.0335196)
(0.0584854 0.105862 -0.00963329)
(0.0682176 0.105817 -0.0456609)
(0.0736153 0.0972425 -0.0664193)
(0.0742194 0.0848837 -0.06718)
(0.0697533 0.0716846 -0.0480144)
(0.0606293 0.0579633 -0.0133985)
(0.0480826 0.0427676 0.0294772)
(0.0339151 0.0259159 0.0727819)
(0.0201336 0.00932283 0.109894)
(0.0086193 -0.00315655 0.136458)
(0.00117779 -0.00713419 0.150489)
(0.000201985 0.00029127 0.151189)
(0.00577211 0.00166286 0.146914)
(0.0189814 0.0323385 0.125085)
(0.0360006 0.0668658 0.0922863)
(0.0547624 0.0974128 0.0496208)
(0.0714177 0.116355 0.00190964)
(0.0822576 0.120181 -0.0412583)
(0.0855422 0.111779 -0.0685171)
(0.0815872 0.0970731 -0.072503)
(0.071912 0.0801995 -0.0529396)
(0.0585872 0.0620334 -0.0156529)
(0.0437284 0.041807 0.0304538)
(0.029153 0.0195954 0.0764229)
(0.0163107 -0.00213576 0.115349)
(0.00636151 -0.0187115 0.143249)
(0.000361971 -0.0250006 0.158655)
(-2.55429e-05 -0.0178186 0.161235)
(-0.00320253 -0.0223427 0.14399)
(0.0104595 0.00977329 0.125014)
(0.0276764 0.0487072 0.0951537)
(0.0484677 0.087792 0.0541414)
(0.0697066 0.118394 0.00540534)
(0.0860391 0.132713 -0.0414908)
(0.0926497 0.129179 -0.0729771)
(0.0883687 0.113001 -0.0793458)
(0.0756737 0.0904321 -0.0600704)
(0.0584041 0.0646102 -0.0222284)
(0.0399624 0.0364072 0.0240348)
(0.0227819 0.00719953 0.069312)
(0.00849658 -0.0196275 0.107063)
(-0.00189562 -0.0392491 0.134038)
(-0.00798988 -0.0471854 0.149355)
(-0.00925942 -0.0412415 0.152958)
(0.00805541 -0.0155294 0.145463)
(0.0283199 0.0145913 0.118838)
(0.0491117 0.0476977 0.083132)
(0.0694047 0.0769466 0.041645)
(0.085598 0.0956205 -0.00073698)
(0.0935594 0.0999304 -0.0367882)
(0.0908958 0.0916991 -0.0581247)
(0.0783959 0.0764622 -0.0590123)
(0.059584 0.0588033 -0.039377)
(0.0388773 0.0400985 -0.00431682)
(0.0199315 0.0198036 0.0386668)
(0.00497818 -0.00199091 0.082202)
(-0.00500391 -0.0228816 0.12022)
(-0.00983236 -0.0383306 0.148204)
(-0.00980314 -0.0434498 0.162978)
(-0.00463431 -0.0354956 0.162668)
(-0.00228236 -0.0374736 0.118667)
(0.0158893 -0.00837024 0.0972984)
(0.0366291 0.0257343 0.0680705)
(0.0595423 0.059469 0.0328236)
(0.0801255 0.0859994 -0.00471848)
(0.0928935 0.0991554 -0.0380542)
(0.0941963 0.0972971 -0.0589467)
(0.0843603 0.083897 -0.0613795)
(0.0671607 0.0636415 -0.0449726)
(0.0473527 0.0393734 -0.0144925)
(0.0286517 0.0125421 0.0230255)
(0.0130405 -0.0148727 0.0607804)
(0.0011164 -0.0393379 0.0934035)
(-0.00712078 -0.0563922 0.11717)
(-0.0117207 -0.0623298 0.129857)
(-0.0114584 -0.0556589 0.130239)
(-0.0151284 -0.0599481 0.0865021)
(0.000101712 -0.0327865 0.0682233)
(0.0189623 -0.000648322 0.0441952)
(0.0418554 0.0324911 0.0154116)
(0.0646085 0.0613524 -0.0153406)
(0.0817545 0.0800436 -0.0430951)
(0.088701 0.0847507 -0.061247)
(0.0842698 0.0758454 -0.0645013)
(0.0711478 0.0564951 -0.051963)
(0.0536438 0.0301095 -0.0272031)
(0.0353645 -0.000229114 0.00401349)
(0.0183614 -0.0309119 0.0358758)
(0.00353948 -0.0574491 0.0636194)
(-0.00859766 -0.0753469 0.0838698)
(-0.0174735 -0.0816345 0.0946704)
(-0.0207116 -0.0756524 0.0951529)
(-0.0302562 -0.0767143 0.0521821)
(-0.0176637 -0.0520131 0.0362622)
(-0.000980222 -0.0232304 0.0167484)
(0.020752 0.00710615 -0.00599187)
(0.043881 0.0351726 -0.0299057)
(0.0637027 0.0559397 -0.0513834)
(0.0756663 0.0647892 -0.0657125)
(0.0773111 0.0597951 -0.0687983)
(0.0694764 0.0423308 -0.0594238)
(0.0551562 0.0157777 -0.0398204)
(0.037514 -0.0155795 -0.0143598)
(0.018893 -0.0468476 0.0120583)
(0.000972376 -0.0729433 0.0351077)
(-0.014841 -0.0897056 0.0516422)
(-0.0271734 -0.0950558 0.0600425)
(-0.0324216 -0.0890617 0.0600521)
(-0.0471278 -0.0864752 0.0187161)
(-0.0363146 -0.0642773 0.00487763)
(-0.0215421 -0.0394844 -0.0106641)
(-0.00121188 -0.0133536 -0.0279904)
(0.0213914 0.0114427 -0.0457014)
(0.0423957 0.0309543 -0.0612801)
(0.057816 0.0408785 -0.0715262)
(0.0645422 0.0383389 -0.0734881)
(0.0616776 0.0233116 -0.0659136)
(0.0505477 -0.00142132 -0.050036)
(0.0335961 -0.0312138 -0.029118)
(0.0134977 -0.0605582 -0.00738551)
(-0.00710328 -0.0842121 0.0111461)
(-0.0257828 -0.0984581 0.0236193)
(-0.0404355 -0.102003 0.0289471)
(-0.0463027 -0.0954036 0.0278425)
(-0.0644846 -0.0890029 -0.0109679)
(-0.0543284 -0.0692723 -0.0230437)
(-0.0409259 -0.0486193 -0.035375)
(-0.0218809 -0.0273657 -0.0482074)
(-0.000149944 -0.00730395 -0.060656)
(0.021096 0.00872077 -0.0710513)
(0.0384322 0.0173179 -0.0772802)
(0.0485278 0.0157304 -0.077305)
(0.0492761 0.00321725 -0.0700612)
(0.040545 -0.0182798 -0.0562588)
(0.0240414 -0.0445396 -0.0384859)
(0.00272117 -0.0701812 -0.0205181)
(-0.0198325 -0.0901647 -0.00610438)
(-0.0402596 -0.101231 0.00223242)
(-0.0559728 -0.102615 0.00405197)
(-0.0612603 -0.095107 0.00124007)
(-0.0801294 -0.0844592 -0.0339269)
(-0.0695199 -0.067228 -0.0448626)
(-0.0568627 -0.0505772 -0.0551945)
(-0.0388542 -0.0342904 -0.0649257)
(-0.0181367 -0.0194629 -0.0734597)
(0.00266527 -0.00793105 -0.0796807)
(0.0205695 -0.00196264 -0.082197)
(0.0322367 -0.0036239 -0.0796698)
(0.0348924 -0.0138187 -0.0713935)
(0.0274368 -0.0314075 -0.0580113)
(0.0110162 -0.0530757 -0.0418536)
(-0.0111867 -0.0741312 -0.0264591)
(-0.0348511 -0.0900243 -0.0153626)
(-0.0559018 -0.0978836 -0.0107125)
(-0.0715231 -0.0972057 -0.0123816)