/*--------------------------------*- C++ -*----------------------------------*\
| =========                 |                                                 |
| \\      /  F ield         | OpenFOAM: The Open Source CFD Toolbox           |
|  \\    /   O peration     | Version:  3.0.0                                 |
|   \\  /    A nd           | Web:      www.OpenFOAM.org                      |
|    \\/     M anipulation  |                                                 |
\*---------------------------------------------------------------------------*/
FoamFile
{
    version     2.0;
    format      ascii;
    class       volScalarField;
    location    "6.25";
    object      p;
}
// * * * * * * * * * * * * * * * * * * * * * * * * * * * * * * * * * * * * * //

dimensions      [0 2 -2 0 0 0 0];

internalField   nonuniform List<scalar> 
4096
(
-0.0165607
-0.0348253
-0.0359655
-0.0330305
-0.0299494
-0.0300967
-0.0343226
-0.0387385
-0.037526
-0.0277121
-0.0129696
0.000672705
0.00842354
0.00726848
-0.00202096
-0.00408864
-0.0161475
-0.0352437
-0.0365249
-0.0332126
-0.0290402
-0.027607
-0.0305918
-0.0354001
-0.0367545
-0.0310381
-0.0189419
-0.00451366
0.00658309
0.0087974
0.00130675
-0.000564989
-0.000267103
-0.0171151
-0.0161286
-0.0116416
-0.00778809
-0.00822144
-0.014464
-0.0236698
-0.02986
-0.0279795
-0.0172254
-0.00175187
0.0119064
0.0170475
0.0119689
0.0129403
0.0203534
0.00595099
0.00994924
0.0164513
0.0205994
0.0184876
0.00875818
-0.00537548
-0.0173737
-0.020621
-0.0120563
0.00477384
0.0219895
0.0307254
0.0276917
0.0313737
0.0427263
0.030682
0.0381797
0.0473852
0.0525061
0.0492444
0.0363348
0.0174058
-0.000462204
-0.00933585
-0.00367719
0.0141968
0.0348967
0.0467099
0.0459209
0.0515592
0.0621779
0.0522681
0.0634385
0.0757299
0.0824024
0.078729
0.063474
0.0407033
0.0179254
0.00409455
0.00651093
0.0245488
0.0476859
0.0616646
0.0619036
0.0691309
0.0736719
0.0652819
0.0798392
0.0951618
0.103766
0.100518
0.0841282
0.0592211
0.0332782
0.0159597
0.0156385
0.0329152
0.0568061
0.0713558
0.0713308
0.0794717
0.0737987
0.0660119
0.0830822
0.101036
0.111887
0.109688
0.0932931
0.0681255
0.0414968
0.02286
0.0208903
0.0367856
0.059618
0.0728899
0.0713036
0.0795056
0.061963
0.0538767
0.072308
0.0918438
0.104075
0.103605
0.0892933
0.0657674
0.0406632
0.0228657
0.0207278
0.0350686
0.0553376
0.065697
0.0613631
0.06861
0.0407828
0.0317992
0.0502286
0.0703191
0.083694
0.0851277
0.0734283
0.0531354
0.0314388
0.0166821
0.015622
0.0285586
0.045366
0.0518257
0.0439918
0.0491908
0.0156354
0.00551501
0.0223088
0.0416331
0.0554109
0.058483
0.0498164
0.033571
0.0166626
0.00630703
0.0075912
0.0196084
0.0328648
0.0353787
0.0240839
0.0261718
-0.00701623
-0.0183285
-0.00488788
0.0121305
0.025199
0.0292941
0.0233643
0.0114035
-0.000145252
-0.00525582
-0.000703229
0.0111311
0.0215197
0.0206803
0.00762527
0.00566936
-0.0223569
-0.0350562
-0.0262691
-0.0128883
-0.00164172
0.00260258
-0.00124468
-0.00940888
-0.0157664
-0.015379
-0.00706082
0.00537331
0.0140433
0.0113671
-0.00243592
-0.0078612
-0.0297409
-0.0444298
-0.0406572
-0.0313933
-0.0224831
-0.0185795
-0.0209509
-0.02611
-0.0281303
-0.0229767
-0.0111608
0.00233337
0.0103833
0.00719125
-0.00640984
-0.0140428
-0.0317175
-0.048661
-0.0487765
-0.0430006
-0.0362237
-0.0328298
-0.03443
-0.0377989
-0.0372076
-0.0289858
-0.0145931
0.000139179
0.00839171
0.0054811
-0.0074361
-0.0157208
-0.0213789
-0.0370648
-0.037954
-0.0345442
-0.0311902
-0.0315752
-0.0367171
-0.042647
-0.0422083
-0.0311379
-0.0133802
0.00200957
0.00864663
0.00484038
-0.00664207
-0.0113233
-0.0144346
-0.0392564
-0.0420852
-0.0387005
-0.032608
-0.0281208
-0.0281532
-0.0303737
-0.0296652
-0.0226854
-0.0108245
0.00121189
0.00909839
0.00895146
0.000510556
0.0013259
-0.0179048
-0.0416555
-0.043693
-0.0395386
-0.0327971
-0.0278352
-0.0277552
-0.0311056
-0.0321908
-0.0274548
-0.0168524
-0.00378529
0.00649509
0.00848968
0.000933486
0.000773535
-0.00531417
-0.026366
-0.0269875
-0.022774
-0.0174156
-0.0148912
-0.0177982
-0.0243418
-0.0288013
-0.0261822
-0.016271
-0.00252864
0.00946291
0.0137963
0.00860214
0.0105406
0.0123533
-0.00551109
-0.0036185
0.00170035
0.00628127
0.00632299
-0.000195813
-0.0109862
-0.0200702
-0.0209963
-0.012285
0.00262642
0.0171782
0.0242801
0.020959
0.0251642
0.0323815
0.0178529
0.0230775
0.0304428
0.0350424
0.0330907
0.0230344
0.007672
-0.00649073
-0.0118154
-0.00507856
0.0108207
0.0279496
0.0373187
0.0360281
0.0420941
0.050589
0.0390443
0.0479254
0.0579501
0.0634013
0.0603367
0.047547
0.0283172
0.00954062
-0.000414398
0.00373891
0.0197876
0.038743
0.0497761
0.0497187
0.0576219
0.0621851
0.052841
0.0651875
0.0780359
0.0848874
0.08172
0.0674592
0.0456973
0.0237357
0.0100951
0.011477
0.0266921
0.046195
0.0578066
0.0577687
0.0670767
0.0640696
0.0556383
0.0708013
0.0860549
0.0943169
0.0921152
0.0779967
0.0555908
0.0321447
0.0164496
0.015633
0.0293244
0.0479704
0.0588078
0.0578056
0.0680857
0.0555557
0.046618
0.0634931
0.0806876
0.0909494
0.0900788
0.0770515
0.0555969
0.0327487
0.0169482
0.0150799
0.0270604
0.043702
0.0525426
0.0493985
0.059904
0.0388183
0.0281225
0.0453585
0.0635238
0.0752637
0.076283
0.065442
0.046442
0.0260424
0.0120516
0.0104947
0.0210535
0.0350389
0.040886
0.0351406
0.0447411
0.0183239
0.00510229
0.0210567
0.0389124
0.051567
0.0545225
0.0465534
0.0310292
0.0144272
0.00379058
0.0039162
0.0137581
0.0251179
0.0277013
0.0192422
0.0264964
-0.000702252
-0.0165795
-0.00355667
0.012739
0.0254599
0.0299878
0.0248204
0.0131227
0.00105816
-0.00517742
-0.00225775
0.00773496
0.0171871
0.0171581
0.00647818
0.0104765
-0.0139954
-0.0323275
-0.0237124
-0.0102785
0.00161375
0.0070953
0.00432823
-0.00376696
-0.0112302
-0.0126664
-0.00629954
0.00464411
0.0130916
0.0115383
-0.000402687
9.79709e-05
-0.021109
-0.0416419
-0.0378902
-0.027858
-0.0173011
-0.0113039
-0.012214
-0.0173581
-0.0209024
-0.0180793
-0.00843667
0.0038178
0.0120533
0.00997808
-0.0022783
-0.00468633
-0.0243302
-0.0468522
-0.0468343
-0.0397089
-0.0304321
-0.0241621
-0.0238562
-0.0271572
-0.0282213
-0.0225073
-0.0103794
0.00317314
0.0116765
0.00971282
-0.00233525
-0.00651128
-0.0158492
-0.0385236
-0.0412949
-0.0376387
-0.0315205
-0.0274975
-0.0285528
-0.0322448
-0.0321305
-0.0235724
-0.00902545
0.00448532
0.0116521
0.00955646
-0.00067314
-0.00240905
-0.0134547
-0.0404644
-0.0420886
-0.036604
-0.0280569
-0.021595
-0.0214806
-0.0253724
-0.0272445
-0.0225549
-0.0118613
0.000389056
0.00912486
0.0094942
0.000837766
0.00252257
-0.0201676
-0.0441469
-0.0446247
-0.0386817
-0.0304278
-0.0248449
-0.0252719
-0.0302755
-0.0336408
-0.0301434
-0.0193556
-0.00565424
0.00476924
0.00630613
-0.00192022
-0.0019665
-0.0138517
-0.0347482
-0.0347727
-0.0294783
-0.0228142
-0.0192509
-0.0218898
-0.029098
-0.0346524
-0.0327167
-0.0224156
-0.00807896
0.00389188
0.00758909
0.00165119
0.00229036
-0.00262565
-0.0197908
-0.0182146
-0.0127441
-0.00748886
-0.00646866
-0.0121008
-0.0224438
-0.0312056
-0.0317448
-0.0223419
-0.00707274
0.00692582
0.0129043
0.00892872
0.0107441
0.0115763
-0.00162041
0.00246335
0.00901088
0.0135192
0.0122758
0.00360625
-0.0100686
-0.0225791
-0.0265374
-0.0187285
-0.00285019
0.0130472
0.020932
0.0186417
0.0218402
0.0253431
0.0157869
0.0229874
0.0313676
0.035946
0.0332341
0.0221218
0.00539007
-0.0106731
-0.018313
-0.0128656
0.00280014
0.0198838
0.0290265
0.0278835
0.0325569
0.0347562
0.027892
0.0382184
0.048814
0.0542151
0.0510265
0.0384755
0.0196612
0.000925667
-0.00988843
-0.00711397
0.00744018
0.0246436
0.0342231
0.0335972
0.0399451
0.0368903
0.0313337
0.0443282
0.0571005
0.063792
0.061114
0.0484079
0.0289009
0.00887167
-0.00392318
-0.00344886
0.00931859
0.0255127
0.0344282
0.0332262
0.0409746
0.0310382
0.0251489
0.0399661
0.0545928
0.0629079
0.0615318
0.0498682
0.0311404
0.0114632
-0.00173954
-0.00264039
0.0081809
0.0223835
0.0295818
0.0265383
0.0348405
0.0190796
0.011121
0.026618
0.0424748
0.0524065
0.0529382
0.0433483
0.0267304
0.00896549
-0.0030232
-0.00406614
0.00515901
0.0168101
0.0211793
0.0160414
0.0237078
0.00485388
-0.00663784
0.00814118
0.0243075
0.0355557
0.0382172
0.0313089
0.0177021
0.00304553
-0.0063175
-0.006176
0.00236209
0.0115153
0.0129409
0.00510969
0.0114735
-0.00732541
-0.0230731
-0.0106048
0.00471757
0.0166569
0.0212215
0.0170269
0.00673516
-0.00415682
-0.00989867
-0.00745532
0.00108463
0.00884242
0.00793234
-0.00239531
0.00190367
-0.0144504
-0.0343631
-0.0255646
-0.0122499
-0.000437178
0.00545271
0.00350606
-0.00378277
-0.0109102
-0.0126246
-0.0070909
0.00246697
0.00965582
0.00741156
-0.00449934
-0.002459
-0.0170735
-0.0402286
-0.0355545
-0.0248179
-0.0136772
-0.00705687
-0.00749474
-0.0126024
-0.0166818
-0.0147819
-0.00621724
0.00493458
0.0124105
0.0097338
-0.00276698
-0.00267338
-0.0181793
-0.0431639
-0.0417812
-0.0332559
-0.0228374
-0.0158536
-0.0156057
-0.0197066
-0.0220229
-0.017507
-0.00632675
0.00651662
0.014434
0.0119259
-0.000578531
-0.00195337
-0.0121618
-0.0383618
-0.040371
-0.034782
-0.0258982
-0.0192033
-0.019029
-0.0231307
-0.0246354
-0.0182012
-0.00538269
0.00755863
0.0151825
0.0134611
0.0029514
0.00242664
-0.0126817
-0.0402507
-0.04096
-0.0330968
-0.0221535
-0.0148092
-0.0154109
-0.0217544
-0.0266474
-0.0238746
-0.0131565
0.000925901
0.0116908
0.0130874
0.00382118
0.0021951
-0.0209992
-0.0439813
-0.0439081
-0.0368836
-0.0278343
-0.0224633
-0.0244002
-0.0316981
-0.0373382
-0.0346633
-0.0230187
-0.00766298
0.00398019
0.00598653
-0.00244846
-0.00512403
-0.021507
-0.0403499
-0.0399165
-0.0335995
-0.026074
-0.022529
-0.0263281
-0.0355092
-0.0431321
-0.0420148
-0.0310632
-0.0153365
-0.00232648
0.00176007
-0.00426836
-0.00680485
-0.018078
-0.0322513
-0.0304597
-0.0243608
-0.0184089
-0.0172295
-0.0233785
-0.0347322
-0.0446704
-0.0458851
-0.0362338
-0.0203348
-0.00602626
-6.17262e-05
-0.0039749
-0.00561276
-0.0114016
-0.0208879
-0.0168592
-0.010155
-0.00534007
-0.00626691
-0.0146987
-0.0282818
-0.0408074
-0.0448978
-0.0372711
-0.0217544
-0.00657252
0.000798924
-0.00148415
-0.00165821
-0.00376715
-0.00900474
-0.00222142
0.00577482
0.0103372
0.00806311
-0.00217165
-0.0177667
-0.0328061
-0.0399866
-0.0349946
-0.0206701
-0.00530839
0.00279177
0.00187718
0.00332382
0.00177389
-0.000213359
0.00942123
0.0191663
0.0242198
0.0214569
0.0102129
-0.00674681
-0.0237158
-0.0335775
-0.0313603
-0.0188454
-0.00411835
0.00400329
0.00367114
0.00671323
0.00278241
0.00264583
0.0147626
0.0263655
0.0324547
0.0300935
0.0188518
0.00155517
-0.0162895
-0.0278416
-0.0279275
-0.0175174
-0.00431555
0.00294261
0.00219445
0.00634638
-0.00136633
-0.00142985
0.0124413
0.0257539
0.0332891
0.0321671
0.0220085
0.0055767
-0.0118428
-0.0237773
-0.025274
-0.0169319
-0.00585344
-0.000424742
-0.00258891
0.00194725
-0.00917144
-0.0111585
0.00346122
0.0181201
0.0273451
0.0281529
0.020021
0.00555296
-0.0101857
-0.021136
-0.0228834
-0.0161346
-0.00734942
-0.00450362
-0.0089522
-0.00517855
-0.0173864
-0.0233367
-0.00923295
0.00615953
0.0170533
0.0201636
0.0146301
0.00285236
-0.0102451
-0.0189864
-0.0197175
-0.0137523
-0.00673176
-0.00654892
-0.013963
-0.0118439
-0.0224728
-0.033993
-0.0218701
-0.00664983
0.00553902
0.010878
0.00797997
-0.000927189
-0.0108883
-0.0165168
-0.0150095
-0.00832726
-0.00240625
-0.00438992
-0.0147116
-0.0147476
-0.0224505
-0.0401782
-0.0313354
-0.0173406
-0.00451517
0.00254365
0.00176696
-0.00470161
-0.0116258
-0.0137603
-0.00924389
-0.000779459
0.0051258
0.00208542
-0.010317
-0.0122949
-0.0187303
-0.0418612
-0.0368869
-0.024814
-0.0120705
-0.00405857
-0.00360639
-0.00854645
-0.0131124
-0.0119796
-0.00411126
0.00655193
0.0133043
0.0101468
-0.00318957
-0.00638427
-0.0151294
-0.0415088
-0.0399287
-0.0297298
-0.0175105
-0.00929513
-0.0086164
-0.0131629
-0.0164197
-0.0127343
-0.00179078
0.0111174
0.0189408
0.0162245
0.00288699
-0.0009675
-0.00975106
-0.0381665
-0.0392882
-0.0309242
-0.0184492
-0.00945043
-0.00895079
-0.0145552
-0.0183426
-0.0137933
-0.00146643
0.0126151
0.0216723
0.0206449
0.00905902
0.00525645
-0.00739864
-0.0332313
-0.03427
-0.0246529
-0.0118524
-0.00406449
-0.00579981
-0.0142683
-0.0214621
-0.0200488
-0.00897374
0.00802468
0.0206372
0.0229663
0.0131849
0.00474871
-0.0167643
-0.037613
-0.0384524
-0.0311669
-0.0218748
-0.0169892
-0.0202465
-0.0292943
-0.0365658
-0.0346089
-0.0222859
-0.00523422
0.00790968
0.0109289
0.00296928
-0.00440544
-0.0234307
-0.0392036
-0.0389677
-0.0321019
-0.024219
-0.0213729
-0.0268739
-0.03814
-0.0475236
-0.0473334
-0.0359693
-0.0189365
-0.00464438
0.000365734
-0.00503016
-0.0113697
-0.0276975
-0.0380276
-0.0359229
-0.0291675
-0.0228512
-0.0222164
-0.0297194
-0.0427121
-0.0540785
-0.0562746
-0.0468932
-0.0307083
-0.015977
-0.00950509
-0.0126919
-0.0172284
-0.0287706
-0.0339121
-0.0293377
-0.0220905
-0.0168128
-0.0178603
-0.0268607
-0.0411887
-0.0544377
-0.0593795
-0.0527764
-0.0383035
-0.0239309
-0.016549
-0.0184148
-0.0205639
-0.0276171
-0.0282288
-0.0208519
-0.0124598
-0.00744286
-0.00938896
-0.0193437
-0.0346992
-0.0496582
-0.0573846
-0.0539708
-0.0418511
-0.0285844
-0.0213416
-0.0215652
-0.0216932
-0.0263465
-0.023433
-0.0133787
-0.00350366
0.00191483
-0.000238575
-0.0105385
-0.0264208
-0.042566
-0.0525524
-0.0520777
-0.0425877
-0.0309438
-0.0243257
-0.0240057
-0.0223933
-0.0269276
-0.0218458
-0.00955516
0.00186244
0.00810625
0.00646453
-0.00341934
-0.0190562
-0.0355212
-0.0468099
-0.0485732
-0.0415832
-0.0319501
-0.0266041
-0.0267447
-0.024144
-0.0299722
-0.0244363
-0.0106495
0.00221671
0.0097487
0.00937255
0.000775881
-0.0136932
-0.0294438
-0.0408814
-0.0438958
-0.0389768
-0.0315502
-0.0281985
-0.0297597
-0.0274157
-0.0343791
-0.0303699
-0.0160253
-0.00187802
0.00737617
0.00898751
0.00249164
-0.00996671
-0.0240395
-0.0344681
-0.0375706
-0.0339298
-0.0286615
-0.027781
-0.0318148
-0.0312825
-0.0374142
-0.0372401
-0.0235008
-0.00840245
0.00278798
0.0068928
0.00300735
-0.00692612
-0.018608
-0.0269958
-0.0289416
-0.0254756
-0.0216906
-0.0232753
-0.0305104
-0.0327626
-0.0362426
-0.0420712
-0.0303776
-0.0149609
-0.00191587
0.00473446
0.00346924
-0.00390329
-0.0128882
-0.0184486
-0.0180032
-0.0133431
-0.00996199
-0.0133884
-0.0238741
-0.0295651
-0.0296207
-0.0428297
-0.0345369
-0.0196994
-0.0053059
0.00344097
0.00423094
-0.00112111
-0.00760697
-0.00998202
-0.00619261
0.000828536
0.00506842
0.000887118
-0.0121036
-0.020836
-0.0195282
-0.0399212
-0.0357339
-0.0224223
-0.00760193
0.00235223
0.00422095
-2.47659e-05
-0.00460733
-0.00390237
0.00352455
0.0135367
0.0194698
0.0155912
0.00140698
-0.00908477
-0.0104726
-0.035875
-0.0354882
-0.0242652
-0.00997369
7.66169e-05
0.00192795
-0.0022379
-0.00573076
-0.00248247
0.00837426
0.02127
0.0290807
0.0261969
0.0121549
0.00124223
-0.00355592
-0.0318007
-0.0335914
-0.0224876
-0.00666231
0.00412314
0.00437248
-0.00276048
-0.00835931
-0.0049611
0.00775802
0.0234729
0.0343432
0.0341306
0.0215377
0.0102131
0.00606902
-0.0169349
-0.0189798
-0.00850103
0.00535803
0.013289
0.0109395
0.00169834
-0.00598899
-0.00423135
0.00869958
0.0272111
0.0414561
0.0438165
0.033044
0.0177152
-0.00493933
-0.0234867
-0.0256673
-0.0185642
-0.00921228
-0.00457216
-0.00841699
-0.0180991
-0.0258032
-0.0238857
-0.0108386
0.00738495
0.0216834
0.0253807
0.0177226
0.00614523
-0.016675
-0.0300354
-0.0300668
-0.0229328
-0.0150132
-0.0129646
-0.0199082
-0.0325218
-0.0426941
-0.0427307
-0.0309354
-0.0129173
0.0023136
0.00797352
0.00305569
-0.00572695
-0.0275612
-0.0352982
-0.0326473
-0.0253239
-0.0189232
-0.0190764
-0.028033
-0.0423993
-0.0546295
-0.0573196
-0.0482128
-0.0319751
-0.0169643
-0.0101698
-0.0127064
-0.0182063
-0.035674
-0.0379678
-0.0323206
-0.0243326
-0.0187832
-0.020206
-0.0301038
-0.0453324
-0.0592458
-0.0649119
-0.0593371
-0.0460378
-0.0325369
-0.0254512
-0.0263628
-0.0285366
-0.0405159
-0.0381532
-0.0293767
-0.0202789
-0.0147684
-0.0165971
-0.0266884
-0.0422317
-0.0573991
-0.0658064
-0.0640303
-0.0542282
-0.0429779
-0.0365887
-0.0362272
-0.0355802
-0.0430538
-0.0371187
-0.0259884
-0.0155843
-0.00945346
-0.0111708
-0.0209029
-0.0362456
-0.0520055
-0.0624208
-0.0638129
-0.0573477
-0.0486118
-0.0434542
-0.0427854
-0.0403609
-0.0450701
-0.036907
-0.0239187
-0.012253
-0.00560951
-0.00654131
-0.0153565
-0.0297988
-0.0453411
-0.0566986
-0.0602046
-0.0564463
-0.0501312
-0.0466638
-0.0467076
-0.0432378
-0.0468409
-0.0383246
-0.0243254
-0.011616
-0.00388433
-0.00347289
-0.0107062
-0.0235706
-0.0380175
-0.0491803
-0.0536453
-0.0518398
-0.0474881
-0.0462007
-0.0477866
-0.0455019
-0.0479318
-0.0408949
-0.0267591
-0.0130942
-0.00359806
-0.00119311
-0.0061811
-0.0168669
-0.0294917
-0.0394091
-0.0435791
-0.0425244
-0.0402401
-0.0412377
-0.0453726
-0.0456738
-0.0462393
-0.0429014
-0.0295369
-0.0149436
-0.0034907
0.00161491
-0.00069797
-0.00888522
-0.0191829
-0.0269798
-0.029642
-0.0281872
-0.0269251
-0.0302032
-0.0377222
-0.0419991
-0.0395189
-0.0420783
-0.0310763
-0.0158378
-0.00213804
0.00579
0.00611557
0.000319989
-0.00748308
-0.0125025
-0.0124588
-0.00921591
-0.00774815
-0.012655
-0.023649
-0.0328191
-0.0272563
-0.0373114
-0.0300307
-0.0149143
0.000685639
0.0110354
0.013393
0.00939461
0.00378611
0.00189346
0.00553091
0.0117704
0.0147329
0.00932489
-0.00439312
-0.0181636
-0.0119957
-0.029699
-0.0269836
-0.0130301
0.00347263
0.015274
0.0186914
0.0155804
0.0116879
0.0128063
0.0202503
0.0300093
0.0352827
0.0305522
0.0155885
-0.00123242
0.00125863
-0.022217
-0.0237812
-0.012041
0.00402058
0.0159969
0.0193908
0.0162897
0.0133558
0.016855
0.0276671
0.0407044
0.0484819
0.0453084
0.0307354
0.0129667
0.00976292
-0.0167903
-0.0197444
-0.00676861
0.01157
0.023489
0.0234151
0.0155318
0.00941833
0.0129257
0.0266319
0.0442163
0.0565481
0.056479
0.0428005
0.0239224
0.0287978
0.00530296
0.00289744
0.0136844
0.0279133
0.0359573
0.0339021
0.0256151
0.0198207
0.0240364
0.0394532
0.0597659
0.0745799
0.0758146
0.0626374
0.0458947
0.0152922
-0.00407216
-0.00658074
0.000215843
0.00968539
0.0145643
0.011059
0.00204528
-0.00448179
-0.00125593
0.0130447
0.032265
0.047077
0.0504393
0.041596
0.0301972
-0.000616617
-0.014843
-0.0145974
-0.00718896
0.000764289
0.00235356
-0.005185
-0.0178478
-0.0272661
-0.0261824
-0.0132943
0.00535371
0.0209474
0.0263668
0.0205292
0.0128245
-0.0166929
-0.0251446
-0.0217834
-0.0139301
-0.00750568
-0.00829977
-0.0181559
-0.0329255
-0.0448272
-0.0468105
-0.0373293
-0.0208117
-0.00585771
0.000723383
-0.00245628
-0.00618586
-0.0299946
-0.0330778
-0.0264965
-0.0178
-0.0120993
-0.0139629
-0.0245877
-0.0402055
-0.0541167
-0.0594374
-0.0541616
-0.0414956
-0.0286377
-0.0219197
-0.023305
-0.0233479
-0.039725
-0.0378553
-0.028164
-0.0182181
-0.0124161
-0.0143221
-0.0246839
-0.0403783
-0.0554953
-0.0639291
-0.062942
-0.0545936
-0.0447076
-0.0390613
-0.0389962
-0.0364722
-0.0455616
-0.0400909
-0.0280159
-0.0169154
-0.0106581
-0.0120463
-0.0214219
-0.036725
-0.0520342
-0.0625238
-0.0649558
-0.0604433
-0.0536251
-0.0495099
-0.0491562
-0.0450925
-0.048442
-0.0410915
-0.0276108
-0.015724
-0.00893862
-0.00946379
-0.0176272
-0.0313227
-0.0461702
-0.0574891
-0.0618742
-0.0601043
-0.0558782
-0.0535587
-0.0538591
-0.0490434
-0.0490008
-0.0416359
-0.0277467
-0.0153232
-0.00768321
-0.00681669
-0.013153
-0.0249153
-0.0383655
-0.0492003
-0.0541994
-0.0539612
-0.0516671
-0.0511915
-0.0534116
-0.0493191
-0.0469471
-0.0414435
-0.0279778
-0.014955
-0.00584477
-0.00290694
-0.00688627
-0.0163154
-0.027731
-0.0370083
-0.0413899
-0.0414576
-0.0405166
-0.042276
-0.0469307
-0.0454469
-0.0408164
-0.0392651
-0.0270677
-0.013253
-0.00203746
0.00360136
0.00231073
-0.00461582
-0.0136343
-0.0205903
-0.0231027
-0.0222182
-0.0217485
-0.0256011
-0.0337712
-0.0362665
-0.0293391
-0.033716
-0.0238872
-0.009338
0.00437005
0.0129561
0.014302
0.00968198
0.00313976
-0.000892832
-0.000430367
0.00270583
0.00380496
-0.00154507
-0.0132525
-0.02114
-0.0127151
-0.024382
-0.0180829
-0.00332363
0.0126801
0.0238986
0.0272561
0.0242869
0.0199537
0.0191154
0.02333
0.0297791
0.0326441
0.0268287
0.0122426
-0.000747847
0.00596217
-0.012949
-0.0109432
0.00293715
0.0202351
0.0331354
0.0376303
0.0354881
0.0328277
0.0349382
0.0430233
0.0531455
0.0584907
0.0533899
0.037456
0.0208928
0.0213602
-0.00301592
-0.00531867
0.00667361
0.0238206
0.0371661
0.0417563
0.0397359
0.037858
0.0421048
0.0534019
0.0668583
0.0748875
0.0714665
0.0559335
0.0380434
0.0299976
0.00293895
0.000233034
0.0147453
0.0345799
0.0468889
0.0465552
0.0388023
0.0336791
0.038517
0.0536513
0.0724714
0.0853069
0.0845858
0.0692254
0.0494863
0.0519868
0.0234882
0.0230082
0.0344311
0.0487082
0.0568412
0.0554438
0.0489219
0.0457547
0.0524956
0.0695633
0.0903221
0.104578
0.104181
0.0872936
0.0757187
0.0371224
0.0127169
0.0114971
0.0189253
0.0288674
0.0343129
0.0315092
0.0238364
0.0192092
0.0242745
0.0397019
0.0593445
0.0739636
0.0762456
0.0643487
0.057391
0.0189042
8.89791e-05
0.00154292
0.00965037
0.0178721
0.0194874
0.0121225
0.000456478
-0.00720614
-0.00440043
0.009407
0.0283448
0.0436049
0.048038
0.0395617
0.0356813
-4.73353e-07
-0.0126518
-0.00825501
0.000268198
0.00683922
0.00582761
-0.00417999
-0.0183601
-0.0288548
-0.0293333
-0.018939
-0.00244942
0.0120927
0.0178545
0.012492
0.0119641
-0.0168227
-0.023418
-0.0159224
-0.00659401
-0.000788068
-0.0029161
-0.0138464
-0.0292297
-0.0420653
-0.0463406
-0.0404506
-0.0278924
-0.0155083
-0.00960346
-0.0124338
-0.00994164
-0.0294255
-0.030838
-0.0203864
-0.00987645
-0.00400156
-0.00610818
-0.0167315
-0.0322682
-0.0466821
-0.054404
-0.0531378
-0.045085
-0.035709
-0.0306599
-0.0318414
-0.0270046
-0.0371987
-0.0350807
-0.0224754
-0.0110118
-0.00478451
-0.00627341
-0.0158218
-0.030642
-0.0455522
-0.0555145
-0.057969
-0.0538805
-0.0475285
-0.0438115
-0.0443828
-0.0378307
-0.040609
-0.0370595
-0.0234827
-0.011599
-0.0049896
-0.00554805
-0.013597
-0.0269408
-0.0413051
-0.0520401
-0.056641
-0.0552283
-0.0512569
-0.0489937
-0.049935
-0.04282
-0.0401638
-0.0373966
-0.0239106
-0.0119241
-0.00468454
-0.00386196
-0.00998645
-0.0213596
-0.0343098
-0.0445631
-0.0496634
-0.0495048
-0.0471026
-0.04633
-0.0487331
-0.0419001
-0.0358806
-0.0358814
-0.0231469
-0.0108937
-0.00239294
0.000446105
-0.00333571
-0.0123972
-0.0233406
-0.0321372
-0.0363299
-0.0361615
-0.0346311
-0.0354971
-0.0406456
-0.0353084
-0.0269838
-0.0315735
-0.0200609
-0.00710601
0.00344766
0.00892051
0.0077321
0.0010912
-0.00749832
-0.0139745
-0.0161389
-0.0148091
-0.0134824
-0.0162355
-0.0248861
-0.0225113
-0.0127911
-0.0235246
-0.0138895
-5.14011e-06
0.0131457
0.021549
0.0228646
0.0184486
0.0123149
0.008762
0.00963567
0.0132484
0.0152031
0.0108207
-0.00163325
-0.00327632
0.00594073
-0.0118792
-0.00490928
0.00963238
0.0253245
0.0363609
0.0396143
0.0368367
0.0329613
0.0326272
0.0372346
0.0440355
0.0475319
0.042341
0.0265936
0.0208551
0.0259067
0.00138665
0.00495871
0.0191829
0.0365143
0.0494091
0.0537689
0.051926
0.0498068
0.0524707
0.0608693
0.0711924
0.0769028
0.0720076
0.0543869
0.0455389
0.0418413
0.0124398
0.0124521
0.025172
0.0427655
0.0564585
0.06118
0.0594546
0.0581486
0.062952
0.0745565
0.0881987
0.0964639
0.0928951
0.0751217
0.0647345
0.0498904
0.0184834
0.0189304
0.0349734
0.0552275
0.0670973
0.0663119
0.0590732
0.0553574
0.0615158
0.0772424
0.0959301
0.108226
0.106521
0.0884218
0.0756949
0.0600303
0.0283652
0.0311044
0.0437447
0.0580431
0.06599
0.0647144
0.0590934
0.0570567
0.0642552
0.080349
0.0990579
0.111388
0.109548
0.089879
0.0849082
0.0471439
0.0190364
0.0199332
0.0286819
0.039376
0.0452203
0.0426442
0.0357681
0.0323313
0.0382829
0.0534937
0.0719568
0.0851673
0.0863031
0.0714262
0.0687108
0.0301267
0.0077119
0.0105888
0.0196709
0.0283765
0.030231
0.0232539
0.0126291
0.00643378
0.0102185
0.0239154
0.0419286
0.0559241
0.0592848
0.0478182
0.0472009
0.011924
-0.00416088
0.00111621
0.0103706
0.0172752
0.0163888
0.00669644
-0.00656145
-0.0156371
-0.0151266
-0.00456657
0.011031
0.0246346
0.0293311
0.0219504
0.0234041
-0.00458814
-0.0146053
-0.00658677
0.00328851
0.00928718
0.00713491
-0.00368505
-0.0184636
-0.0301952
-0.0334664
-0.0270954
-0.014823
-0.00307371
0.00198286
-0.00246982
0.00120422
-0.0171816
-0.0221947
-0.0114614
-0.000582617
0.00532438
0.00305065
-0.00767318
-0.0229225
-0.0365964
-0.0434939
-0.0414758
-0.0331647
-0.0238429
-0.0191917
-0.0218817
-0.0162384
-0.0250517
-0.0269867
-0.0143143
-0.00266705
0.0034479
0.00169814
-0.00810546
-0.0228793
-0.0374205
-0.0466939
-0.0484726
-0.043727
-0.0367784
-0.0328413
-0.0346519
-0.0273899
-0.0284688
-0.0297634
-0.0163449
-0.00447732
0.00188244
0.00100926
-0.00738532
-0.0209613
-0.035329
-0.0458355
-0.0497399
-0.0473885
-0.0422103
-0.0390028
-0.0407092
-0.0321841
-0.0280264
-0.0310126
-0.0178108
-0.00601506
0.00083978
0.00127003
-0.00533105
-0.0171815
-0.0304799
-0.0408572
-0.0454522
-0.0442577
-0.0402174
-0.037892
-0.0405511
-0.0312079
-0.0238731
-0.0303947
-0.0177864
-0.00578015
0.00221874
0.00453783
0.000108509
-0.00967997
-0.0212594
-0.0304351
-0.0344404
-0.0333533
-0.0300578
-0.0290858
-0.0340948
-0.0246963
-0.0155295
-0.026897
-0.0149258
-0.00208131
0.00790533
0.0126971
0.0106324
0.00304898
-0.00637527
-0.0134698
-0.0157698
-0.0138533
-0.0109768
-0.0118711
-0.0205437
-0.0122251
-0.00221696
-0.0195016
-0.00846007
0.00564157
0.0182293
0.0257938
0.0259846
0.0205263
0.0134181
0.00911247
0.00952668
0.0132231
0.0162172
0.0134129
0.000424632
0.00658664
0.0153142
-0.00836192
0.00113466
0.0163515
0.0315884
0.0416336
0.0435961
0.039704
0.0349777
0.0338785
0.0377548
0.0440876
0.0479558
0.0438339
0.026845
0.0302813
0.034102
0.00460441
0.0116512
0.0270223
0.0441034
0.0560228
0.0591045
0.056274
0.0535077
0.0555749
0.0631218
0.0725889
0.0780894
0.0737238
0.0539532
0.0547948
0.0493765
0.0157437
0.0196715
0.0339401
0.051662
0.0646334
0.0681874
0.0656665
0.0640474
0.0685973
0.0796296
0.0923399
0.100073
0.0966738
0.0756342
0.0743804
0.0573361
0.0225486
0.0267461
0.0440746
0.0638614
0.0746342
0.0731322
0.0661642
0.0633062
0.069785
0.0846645
0.101653
0.112465
0.110323
0.0887415
0.0849375
0.0482924
0.0187019
0.0231476
0.0361954
0.0500231
0.0573073
0.0555155
0.049871
0.0477175
0.053894
0.0673607
0.0822824
0.091405
0.0893673
0.0714237
0.0693957
0.0396528
0.0126721
0.014655
0.0242583
0.0352195
0.0407429
0.0379682
0.0310894
0.0280441
0.0338031
0.0475554
0.0635299
0.0745403
0.0745751
0.0601016
0.0581127
0.027071
0.00513348
0.00837332
0.0178239
0.0266466
0.0284428
0.0216543
0.0116454
0.00621315
0.0102209
0.0229054
0.0388217
0.0506208
0.0531063
0.0422939
0.0413397
0.0131508
-0.00312115
0.00212354
0.011587
0.0186176
0.017777
0.00835055
-0.00428815
-0.0126399
-0.0117325
-0.00163245
0.012847
0.0249633
0.02883
0.0214329
0.0222326
0.000437452
-0.0104793
-0.0026928
0.00736034
0.0134735
0.0113242
0.000601856
-0.0138207
-0.0249925
-0.0277884
-0.0213945
-0.00953465
0.00165544
0.0063034
0.00149051
0.0043246
-0.00928482
-0.0159747
-0.00557656
0.00544496
0.0114275
0.00902861
-0.00185901
-0.0170955
-0.0304676
-0.0368102
-0.0343749
-0.0256971
-0.0160939
-0.0113215
-0.0145423
-0.00979362
-0.0155014
-0.0199759
-0.00764664
0.00414303
0.0102997
0.00831165
-0.00191767
-0.0170548
-0.0316698
-0.0406508
-0.0415707
-0.0357415
-0.0276646
-0.0230163
-0.0254193
-0.0189459
-0.0186315
-0.0233908
-0.0102512
0.00184837
0.00825983
0.00707677
-0.00197302
-0.0163016
-0.0311816
-0.0416439
-0.0446996
-0.0408144
-0.0337799
-0.0291994
-0.0313408
-0.0231911
-0.0193273
-0.0265945
-0.013434
-0.00126926
0.00565948
0.00570621
-0.00176
-0.0147384
-0.0290047
-0.0397452
-0.0437225
-0.0409049
-0.0345905
-0.0303542
-0.0332582
-0.0232605
-0.0177336
-0.0288887
-0.0158592
-0.00329758
0.00476444
0.00657517
0.00103657
-0.010197
-0.0231245
-0.0330788
-0.036894
-0.0344942
-0.0289821
-0.0259165
-0.0308711
-0.0194306
-0.0129469
-0.028745
-0.0156747
-0.00206619
0.00789076
0.011961
0.00852667
-0.000749194
-0.0117474
-0.0199514
-0.0225823
-0.0199861
-0.0154137
-0.0144282
-0.0228388
-0.0109262
-0.00367802
-0.0246237
-0.0116927
0.00336016
0.0156876
0.0223008
0.0208709
0.0134899
0.004863
-0.000742633
-0.00117758
0.00239199
0.00625753
0.00482317
-0.00769388
0.00336945
0.0096885
-0.0162456
-0.00415315
0.0122084
0.0271308
0.0357704
0.0359189
0.0302672
0.0240279
0.0215887
0.024228
0.0296188
0.0334226
0.0299471
0.013511
0.0225528
0.0250709
-0.00523493
0.00477785
0.0213118
0.037981
0.0484536
0.0497515
0.045374
0.0413831
0.0421717
0.0482634
0.0562354
0.0608684
0.0563318
0.0372253
0.0434366
0.038531
0.00508728
0.0119716
0.0274816
0.0448725
0.0564073
0.0582666
0.0545279
0.0522337
0.0559999
0.0655508
0.0766085
0.0828859
0.0783808
0.0580061
0.0611237
0.0468558
0.0129372
0.0190282
0.0362937
0.0547509
0.0641593
0.0620537
0.0555053
0.0531883
0.0593914
0.0726742
0.0871904
0.0957721
0.0922225
0.0719889
0.0716389
0.0246146
-0.000386901
0.00282504
0.0142628
0.0264394
0.0324606
0.0302569
0.0249097
0.0230491
0.0288458
0.0408374
0.0536674
0.0611781
0.0590631
0.0443353
0.0412179
0.0202662
-0.0025045
-0.00136841
0.00745378
0.0173193
0.0215456
0.0177946
0.0113576
0.00904972
0.0149187
0.0276114
0.0417105
0.0510333
0.050805
0.0387086
0.0346473
0.0134723
-0.00518679
-0.0031508
0.00524408
0.0130565
0.0141113
0.00719035
-0.00225952
-0.00693109
-0.00268165
0.00942723
0.0240324
0.0348081
0.0368353
0.0278255
0.0245073
0.00570041
-0.00824336
-0.00426175
0.00426228
0.010611
0.00931643
-0.000166698
-0.0124543
-0.0202759
-0.0190431
-0.00915526
0.00468886
0.0162164
0.0201531
0.0141334
0.0126103
-0.00131184
-0.0107905
-0.00416145
0.00525596
0.0110666
0.0085839
-0.00239354
-0.0168964
-0.0279519
-0.0305105
-0.0239143
-0.0119426
-0.000568893
0.00461598
0.000887108
0.00148056
-0.00667422
-0.0127397
-0.00335881
0.00743509
0.0134192
0.0107642
-0.00060569
-0.0163632
-0.0300519
-0.0362891
-0.0333463
-0.0238277
-0.0132489
-0.00751501
-0.009903
-0.00734232
-0.0105399
-0.015096
-0.00357857
0.00842464
0.0148847
0.0127291
0.00183945
-0.0141569
-0.0294241
-0.0384889
-0.0386676
-0.0314403
-0.0217539
-0.015829
-0.0177333
-0.013441
-0.0135912
-0.0190488
-0.00633079
0.00636823
0.0133754
0.0121255
0.00230097
-0.0131605
-0.0289673
-0.0396208
-0.0418286
-0.0362061
-0.0271775
-0.0211176
-0.023278
-0.017189
-0.0163176
-0.0247372
-0.0116438
0.00145533
0.00921707
0.00926175
0.000929274
-0.0133699
-0.0287656
-0.0398308
-0.0429887
-0.0383489
-0.0298821
-0.0240016
-0.0270989
-0.0191313
-0.0184987
-0.0309505
-0.0176698
-0.00397
0.00495832
0.00671091
0.000193964
-0.0124784
-0.0266548
-0.0370817
-0.04028
-0.036282
-0.0287659
-0.0241752
-0.0291698
-0.0192604
-0.0186628
-0.0354021
-0.0218623
-0.00715673