/*--------------------------------*- C++ -*----------------------------------*\
| =========                 |                                                 |
| \\      /  F ield         | OpenFOAM: The Open Source CFD Toolbox           |
|  \\    /   O peration     | Version:  3.0.0                                 |
|   \\  /    A nd           | Web:      www.OpenFOAM.org                      |
|    \\/     M anipulation  |                                                 |
\*---------------------------------------------------------------------------*/
FoamFile
{
    version     2.0;
    format      ascii;
    class       surfaceScalarField;
    location    "6.25";
    object      phi;
}
// * * * * * * * * * * * * * * * * * * * * * * * * * * * * * * * * * * * * * //

dimensions      [0 3 -1 0 0 0 0];

internalField   nonuniform List<scalar> 
11520
(
-0.000484503
-0.000578297
0.000361257
-0.000473825
-0.000630721
0.000441647
-0.000403576
-0.00066477
0.000490582
-0.0002737
-0.000659907
0.000491611
-9.52428e-05
-0.000608429
0.000440766
0.000106929
-0.0005089
0.000344702
0.000295044
-0.000363647
0.00022187
0.000425254
-0.000176624
9.78114e-05
0.000461085
3.99379e-05
-4.24021e-06
0.000398805
0.000242837
-7.97005e-05
0.000266945
0.000357153
-0.000123058
0.000104834
0.000341298
-0.000131258
-5.94972e-05
0.000215982
-9.95904e-05
-0.000210618
3.39267e-05
-2.95331e-05
-0.000339451
-0.000156371
6.75167e-05
-0.000316478
0.000162373
-0.000480403
-0.00072758
0.00029043
-0.00048254
-0.000768108
0.00036884
-0.000421179
-0.000794535
0.000421276
-0.000299306
-0.000784901
0.000435872
-0.000127208
-0.000731082
0.000409621
7.44324e-05
-0.000630615
0.000346273
0.000274914
-0.000484387
0.000257282
0.00043657
-0.000294383
0.000159084
0.000520178
-6.76821e-05
6.41974e-05
0.000499847
0.000155355
-2.27522e-05
0.000384626
0.000286982
-9.53113e-05
0.000213618
0.000266171
-0.000133695
2.68367e-05
0.000117523
-0.000123433
-0.000149969
-8.79025e-05
-6.57746e-05
-0.000301372
-0.000289978
2.34856e-05
-0.000449333
0.000115521
-0.000501496
-0.000801492
0.000208859
-0.000518992
-0.000837102
0.000288621
-0.000462345
-0.000861895
0.000347521
-0.000338053
-0.000853187
0.00037558
-0.000159067
-0.00080324
0.000369468
5.31899e-05
-0.000709409
0.000330709
0.000270117
-0.000571991
0.000266576
0.000459103
-0.000391965
0.000188404
0.00058528
-0.000171306
0.000104548
0.000614249
6.2179e-05
1.49011e-05
0.000533193
0.000220729
-7.58445e-05
0.000365203
0.000218784
-0.000139831
0.000153598
6.82111e-05
-0.000152138
-6.27047e-05
-0.000148588
-0.000110461
-0.000256224
-0.000357302
-3.20073e-05
-0.000517437
5.63842e-05
-0.000530857
-0.000794631
0.00011973
-0.000563479
-0.00083265
0.000197764
-0.000509894
-0.000861324
0.000259625
-0.000380167
-0.000858204
0.000297112
-0.000190443
-0.000816407
0.00030644
3.59837e-05
-0.00073367
0.000287087
0.00027077
-0.000610277
0.000242961
0.000484125
-0.00044733
0.000181917
0.000646201
-0.000244117
0.000110362
0.000721364
-1.41672e-05
2.6053e-05
0.000680169
0.00016943
-7.08366e-05
0.000522721
0.000203337
-0.000151834
0.000288054
7.2851e-05
-0.000182726
2.69306e-05
-0.000139865
-0.000155908
-0.000212712
-0.000352045
-8.91047e-05
-0.00051371
-6.84933e-06
-0.000565152
-0.000711354
3.17344e-05
-0.000610315
-0.000758075
0.000104316
-0.000557905
-0.000794915
0.000164671
-0.000421384
-0.000800749
0.000206483
-0.000219962
-0.000769897
0.000225707
2.10474e-05
-0.00070071
0.000220043
0.000272757
-0.000593731
0.000190809
0.000506308
-0.000450618
0.000143336
0.000694923
-0.000269961
8.29688e-05
0.000805677
-5.45968e-05
8.92551e-06
0.000800493
0.000144812
-8.51725e-05
0.000657596
0.000220966
-0.000171767
0.000405671
0.000127674
-0.000213595
0.000106409
-6.77253e-05
-0.000198028
-0.000179858
-0.000275476
-0.000141218
-0.00044056
-6.73214e-05
-0.000602804
-0.000565085
-4.55452e-05
-0.000655971
-0.00062541
1.94349e-05
-0.000602465
-0.000673512
7.45424e-05
-0.000458607
-0.000690527
0.000115539
-0.00024617
-0.000672144
0.000138358
7.67294e-06
-0.000617427
0.000139756
0.000273278
-0.000527227
0.000119386
0.00052174
-0.000403886
8.1089e-05
0.000727081
-0.000245965
2.97169e-05
0.000860136
-4.97131e-05
-3.5543e-05
0.00087993
0.000154735
-0.000118083
0.000750528
0.000270455
-0.00019938
0.000487278
0.000224327
-0.000242597
0.000157049
5.78129e-05
-0.00023256
-0.000165349
-0.000140478
-0.000183999
-0.000309363
-0.000118642
-0.000640636
-0.000375177
-0.000102684
-0.00069658
-0.000453323
-4.582e-05
-0.000639786
-0.000514712
1.05948e-06
-0.000488815
-0.000544354
3.65156e-05
-0.000267323
-0.000539218
5.66106e-05
-4.03756e-06
-0.00049883
5.79951e-05
0.000270777
-0.000424298
3.98256e-05
0.000527972
-0.000318775
5.42729e-06
0.000740911
-0.000181275
-3.91136e-05
0.00088223
-3.75241e-06
-9.50736e-05
0.000913114
0.000199346
-0.000163896
0.00079177
0.000347588
-0.000231893
0.000522965
0.000350806
-0.000267732
0.000173954
0.000219925
-0.000256978
-0.000171245
3.47825e-05
-0.00021266
-0.000138394
-0.000154209
-0.000673743
-0.000165421
-0.000131661
-0.000727251
-0.00026498
-8.19731e-05
-0.000665712
-0.000340918
-4.46609e-05
-0.00050867
-0.000383172
-1.99915e-05
-0.000280922
-0.000390397
-1.00834e-05
-1.27934e-05
-0.000363391
-1.55809e-05
0.000265675
-0.00030393
-3.6965e-05
0.000524094
-0.000213858
-7.12533e-05
0.000735796
-9.23857e-05
-0.000113132
0.000872965
7.01542e-05
-0.000160456
0.00090098
0.000270756
-0.000214145
0.000780181
0.000443944
-0.000264097
0.000510724
0.000492234
-0.000285967
0.000156652
0.000398117
-0.000268542
-0.000195475
0.000227648
-0.000223766
4.97671e-05
-0.000169325
-0.000695564
3.71873e-05
-0.000125638
-0.000742247
-8.58219e-05
-8.14937e-05
-0.000675027
-0.000176243
-5.48906e-05
-0.000513719
-0.000230569
-4.35104e-05
-0.000283852
-0.000249265
-4.75111e-05
-1.58084e-05
-0.000233691
-6.72124e-05
0.000259642
-0.000185738
-0.000100788
0.000511885
-0.000107431
-0.000141631
0.000713079
2.75746e-06
-0.000183
0.000835255
0.00015597
-0.000222349
0.000848602
0.00035541
-0.000260248
0.000721619
0.000546672
-0.000289697
0.000456057
0.000631083
-0.000293361
0.000110815
0.000569336
-0.000264336
-0.00023181
0.000412506
-0.00021397
0.000230032
-0.000160042
-0.000697429
0.000204491
-8.01323e-05
-0.000734694
5.89848e-05
-3.97469e-05
-0.000662759
-4.35766e-05
-2.41452e-05
-0.000500398
-0.000106922
-2.93224e-05
-0.000272772
-0.000133788
-5.29714e-05
-1.03567e-05
-0.000125822
-9.3115e-05
0.000255981
-8.57954e-05
-0.000144209
0.000494528
-1.49927e-05
-0.000196232
0.000675986
8.92708e-05
-0.000240223
0.000773917
0.000238629
-0.000272421
0.000763952
0.000437926
-0.000294526
0.000627285
0.00063945
-0.000302604
0.000371194
0.000747287
-0.000285713
4.76002e-05
0.00070905
-0.000241076
-0.000269724
0.00056292
-0.000181671
0.000377174
-0.00012471
-0.000669042
0.000309024
4.42714e-06
-0.000697014
0.000147692
4.23519e-05
-0.000623685
3.79795e-05
4.83028e-05
-0.000465219
-2.94472e-05
2.61257e-05
-0.000244805
-5.85158e-05
-2.14268e-05
6.92137e-06
-5.28333e-05
-8.60454e-05
0.000258072
-1.50611e-05
-0.000159664
0.000475581
5.42392e-05
-0.000227476
0.000629413
0.000157533
-0.000276878
0.000694895
0.000306804
-0.000303762
0.000656961
0.0005041
-0.000311066
0.000511697
0.000704512
-0.00029856
0.000273089
0.000819282
-0.000260851
-1.68578e-05
0.000793312
-0.000198656
-0.000295311
0.000653139
-0.000127083
0.000467654
-6.42793e-05
-0.000605333
0.000329712
0.000115331
-0.000626382
0.000164701
0.000154357
-0.000556514
5.5331e-05
0.000153755
-0.00040759
-9.0557e-06
0.000116328
-0.000200283
-3.36905e-05
4.69598e-05
3.61171e-05
-2.25898e-05
-4.49231e-05
0.000267343
2.09242e-05
-0.00014358
0.0004588
9.53254e-05
-0.000229698
0.000578569
0.000203883
-0.000287258
0.000606012
0.000354772
-0.000311492
0.000538834
0.000543674
-0.000306993
0.000389136
0.000726748
-0.000277193
0.000176984
0.000828155
-0.000221338
-6.62168e-05
0.000800175
-0.000142931
-0.000298889
0.000664469
-5.68232e-05
0.000482501
1.35548e-05
-0.000520153
0.000256375
0.00022823
-0.000534695
0.000102941
0.000272289
-0.000471259
2.59803e-06
0.000271668
-0.000335813
-5.15816e-05
0.000225901
-0.000145194
-6.43035e-05
0.000139844
7.30471e-05
-3.9886e-05
2.55342e-05
0.000283308
1.77022e-05
-9.63524e-05
0.00044691
0.000106366
-0.00020127
0.000530017
0.000227462
-0.000269213
0.000517615
0.000381189
-0.000294764
0.00042185
0.000552772
-0.000284304
0.000270019
0.000700478
-0.000244037
8.65863e-05
0.000767746
-0.000176122
-0.000108091
0.000723277
-8.5538e-05
-0.000289763
0.000587414
1.30379e-05
0.000411918
9.2148e-05
-0.000445982
9.7193e-05
0.000313587
-0.000450441
-3.24853e-05
0.00036601
-0.000391255
-0.000116235
0.000372757
-0.000268412
-0.000154852
0.000329006
-9.37959e-05
-0.000150371
0.00023782
0.000107905
-0.000106542
0.000111898
0.000300665
-2.75968e-05
-2.53691e-05
0.000441719
8.40153e-05
-0.000145235
0.000493907
0.000225805
-0.000224695
0.000446273
0.000385839
-0.00025752
0.000323731
0.000534669
-0.000250433
0.000166483
0.000633713
-0.000209839
3.28185e-06
0.000650399
-0.00013845
-0.000152212
0.000575765
-4.2037e-05
-0.000288914
0.000432861
6.46713e-05
0.00026399
0.000151744
-0.000407823
-0.000121046
0.000354933
-0.000399683
-0.000221058
0.000415985
-0.000339567
-0.000285041
0.000434856
-0.000224152
-0.000306204
0.00040266
-6.08717e-05
-0.000283088
0.000319676
0.000129496
-0.000217931
0.000196752
0.000312492
-0.000114697
5.71364e-05
0.000444035
2.34714e-05
-6.94605e-05
0.000482879
0.000191178
-0.000159723
0.000415591
0.000364126
-0.000207119
0.000271781
0.000494461
-0.000215398
0.000101544
0.000542925
-0.000185953
-5.89564e-05
0.000501489
-0.000119485
-0.000195803
0.000387222
-2.33693e-05
-0.000304721
0.000230288
8.63762e-05
6.61435e-05
0.000178706
-0.000400866
0.000350189
-0.000380962
0.000417984
-0.000316476
0.000450481
-0.000204076
0.000436319
-4.86234e-05
0.000372932
0.000133669
0.000267372
0.000313135
0.000139223
0.000448086
1.55518e-05
0.000495509
-8.25703e-05
0.000434033
-0.000148529
0.000284605
-0.000180696
9.80887e-05
-0.000171356
-7.87138e-05
-0.000117173
-0.000222097
-2.74079e-05
-0.000326375
7.94146e-05
0.000172511
-0.00057411
-0.00059983
0.000617801
-0.000552132
-0.000600678
0.000605639
-0.000458058
-0.000577156
0.000565543
-0.000294895
-0.000515393
0.000479724
-7.882e-05
-0.000418095
0.00035608
0.000157962
-0.00029592
0.000217036
0.000369928
-0.000160904
9.49082e-05
0.000508048
-1.84875e-05
2.04456e-05
0.000535104
0.000133609
6.69063e-06
0.000448239
0.000264125
3.64576e-05
0.000285029
0.000315458
8.17276e-05
9.24301e-05
0.000257252
0.000133991
-9.73909e-05
0.000114824
0.000200031
-0.000268089
-6.30078e-05
0.000281643
-0.000411132
-0.000234695
0.0003688
-0.000362096
0.000428176
-0.000546598
-0.000727331
0.000490444
-0.00053974
-0.000719854
0.000481158
-0.000458031
-0.000690531
0.000452943
-0.000306198
-0.000624567
0.000393213
-9.81912e-05
-0.000523572
0.000307091
0.00013898
-0.000396306
0.000209488
0.000366604
-0.000253667
0.00012242
0.000538877
-0.000100608
6.89321e-05
0.000613233
6.40993e-05
5.935e-05
0.000565306
0.000212979
7.63207e-05
0.000414691
0.000274171
9.65916e-05
0.000212079
0.000204339
0.00012183
1.51484e-06
3.64859e-05
0.000165468
-0.000191609
-0.000164464
0.000228805
-0.000354322
-0.000347773
0.000299277
-0.000476215
0.000349403
-0.000543462
-0.00077705
0.000354055
-0.000550305
-0.000768038
0.000343647
-0.000474658
-0.000739514
0.000320857
-0.000324321
-0.000676643
0.000277318
-0.00011475
-0.000580681
0.000217005
0.000128333
-0.000459073
0.000150393
0.00037031
-0.000321486
9.24174e-05
0.000571768
-0.000172893
5.92315e-05
0.000691688
-9.38922e-06
5.81159e-05
0.000694169
0.000151778
7.36213e-05
0.000573883
0.000235861
8.27509e-05
0.000369849
0.00017788
9.06625e-05
0.000133455
4.41041e-06
0.000116332
-9.64718e-05
-0.000207893
0.000162895
-0.000296348
-0.000397381
0.000217477
-0.000527219
0.000259024
-0.000550308
-0.000749477
0.000211658
-0.000569988
-0.000744865
0.000194271
-0.000498257
-0.000722105
0.000170486
-0.000346094
-0.000667439
0.000135745
-0.00013128
-0.000582292
9.32366e-05
0.000120182
-0.000473254
4.98053e-05
0.00037577
-0.000348709
1.45968e-05
0.000600619
-0.000213693
-2.1316e-06
0.000758494
-6.31934e-05
6.29081e-06
0.000810038
9.83802e-05
2.79069e-05
0.000727579
0.000207482
4.00021e-05
0.000529349
0.000179788
4.44881e-05
0.000268246
2.14213e-05
6.13661e-05
-2.52246e-06
-0.00018849
9.54574e-05
-0.000243731
-0.000379848
0.000134571
-0.000511453
0.000164459
-0.000565753
-0.000654087
7.66261e-05
-0.000595857
-0.000658456
4.80107e-05
-0.000526248
-0.000645275
1.82315e-05
-0.000370714
-0.000602456
-1.40333e-05
-0.000149476
-0.000531973
-4.58499e-05
0.000110749
-0.000439548
-7.3888e-05
0.000378212
-0.000332295
-9.30684e-05
0.00062017
-0.000215078
-9.72366e-05
0.000804365
-8.30388e-05
-8.13805e-05
0.000893964
6.957e-05
-5.18641e-05
0.000847315
0.000196966
-2.80067e-05
0.000660543
0.000208573
-1.37806e-05
0.000381075
8.21755e-05
5.1196e-06
7.45424e-05
-0.000112514
3.25284e-05
-0.000205576
-0.000299788
5.88406e-05
-0.00043386
7.49801e-05
-0.00058999
-0.000506581
-3.76401e-05
-0.000626616
-0.000523931
-7.84639e-05
-0.000557005
-0.000523382
-0.000116961
-0.000397433
-0.000495063
-0.000151427
-0.000169989
-0.00044132
-0.00017974
9.75548e-05
-0.000367369
-0.000199966
0.000373657
-0.000278941
-0.00021007
0.000626341
-0.000180282
-0.000206391
0.000825418
-6.74098e-05
-0.000184989
0.000936649
7.10382e-05
-0.000148242
0.000916146
0.00020883
-0.000109444
0.000742626
0.000260169
-7.74562e-05
0.000453156
0.000176803
-4.77544e-05
0.000120431
8.25135e-06
-2.06002e-05
-0.00018948
-0.000169361
-4.51538e-06
-0.000306095
-1.30793e-06
-0.000621888
-0.000326843
-0.000119091
-0.00066005
-0.000360532
-0.000171057
-0.000587958
-0.000374897
-0.000219517
-0.0004238
-0.000362522
-0.000260184
-0.000191368
-0.000326444
-0.000290696
8.07313e-05
-0.000271575
-0.000309898
0.000360939
-0.000202309
-0.000317014
0.000617285
-0.000121623
-0.000309578
0.000820288
-2.53748e-05
-0.000284151
0.000937717
9.96501e-05
-0.000241115
0.00092898
0.0002423
-0.00018863
0.000765762
0.000328727
-0.000137233
0.000474466
0.000292344
-9.19767e-05
0.000128611
0.000156805
-5.96772e-05
-0.000198382
-7.52623e-06
-4.75012e-05
-0.000147332
-5.27966e-05
-0.000657949
-0.00013635
-0.000158517
-0.000692405
-0.000189515
-0.000218533
-0.000614956
-0.000220048
-0.00027696
-0.000445739
-0.000224528
-0.000327203
-0.000210044
-0.000206581
-0.000365642
6.31133e-05
-0.00017003
-0.000390283
0.000342119
-0.000118184
-0.000400096
0.000595088
-5.31478e-05
-0.000392698
0.000791763
2.9601e-05
-0.000364782
0.00090183
0.000144809
-0.000315683
0.000890481
0.000290686
-0.000251181
0.000731501
0.000405886
-0.000182276
0.000444647
0.000414101
-0.000120871
9.88543e-05
0.000313754
-7.96988e-05
-0.000230896
0.000164833
-6.63745e-05
2.17293e-05
-7.49714e-05
-0.000692783
4.19399e-05
-0.000147544
-0.000718564
-3.26023e-05
-0.000212626
-0.000633572
-7.89632e-05
-0.000280967
-0.00045904
-9.86928e-05
-0.000343877
-0.000221074
-9.64371e-05
-0.000395621
5.02413e-05
-7.61288e-05
-0.000432429
0.000322625
-3.99372e-05
-0.000451419
0.000564525
1.16695e-05
-0.000448348
0.000745599
8.4741e-05
-0.000419214
0.000837195
0.000194473
-0.000363608
0.000811535
0.00034386
-0.000287762
0.000650453
0.000481085
-0.000203815
0.000371973
0.000526625
-0.000127405
3.71772e-05
0.000458985
-7.47716e-05
-0.00028083
0.00032389
-5.50209e-05
0.000178135
-6.08786e-05
-0.000718391
0.000185489
-8.06144e-05
-0.000732151
9.00367e-05
-0.000148626
-0.000638406
3.02965e-05
-0.00022715
-0.000458697
-1.36132e-06
-0.000306363
-0.000220091
-1.04251e-05
-0.000377589
4.65543e-05
-2.41429e-06
-0.000433475
0.000307806
2.23574e-05
-0.000467756
0.00053197
6.43475e-05
-0.000473074
0.000689214
0.000131306
-0.000444033
0.000753597
0.000239071
-0.000381402
0.000705715
0.00039135
-0.000294135
0.000538612
0.000542343
-0.000196758
0.000272301
0.000613727
-0.000106504
-4.03366e-05
0.000571095
-4.05481e-05
-0.000336871
0.000448458
-9.70461e-06
0.000301308
-9.4296e-06
-0.00072398
0.000273151
4.21683e-05
-0.000725533
0.000161658
-2.77165e-05
-0.000624443
9.39288e-05
-0.000116419
-0.000441469
5.69305e-05
-0.000215141
-0.000204169
4.23361e-05
-0.000311488
5.51635e-05
4.52864e-05
-0.000393078
0.000302049
6.4072e-05
-0.000448264
0.000503417
0.00010126
-0.000465756
0.000630206
0.000166004
-0.000438365
0.000660942
0.000273386
-0.000368813
0.000586786
0.000424844
-0.000270404
0.000413496
0.000578044
-0.000160972
0.000164039
0.000659974
-5.76405e-05
-0.00011806
0.000631665
2.28731e-05
-0.000383993
0.000518177
6.91313e-05
0.000372213
7.93996e-05
-0.000699455
0.000286315
0.000208402
-0.000692419
0.000169705
0.000139274
-0.000588849
0.000102173
4.19416e-05
-0.000406799
6.79468e-05
-7.6738e-05
-0.00017335
5.70794e-05
-0.000201233
7.71263e-05
6.32034e-05
-0.000313317
0.000307729
8.41475e-05
-0.000394259
0.000483415
0.000123179
-0.000427303
0.000575573
0.000190001
-0.000403412
0.000568985
0.00029678
-0.000328298
0.000467752
0.000439787
-0.000220704
0.000290826
0.000579289
-0.000101513
6.38333e-05
0.000653072
1.25576e-05
-0.000181175
0.000626184
0.000107558
-0.000409345
0.000518223
0.0001713
0.000377322
0.00019232
-0.000645819
0.000212768
0.000386996
-0.000634526
0.000106601
0.0003241
-0.000534562
4.92447e-05
0.000224632
-0.000358784
2.71326e-05
9.09375e-05
-0.000132391
2.99159e-05
-5.93858e-05
0.000108752
4.95723e-05
-0.000201978
0.000324193
8.25325e-05
-0.000310178
0.000475108
0.000131763
-0.000360769
0.000532447
0.000206111
-0.000342661
0.000488158
0.000311632
-0.000265327
0.00036064
0.000436619
-0.000153617
0.000181691
0.00054469
-3.04897e-05
-2.09382e-05
0.000590127
8.94518e-05
-0.000225999
0.000550018
0.000195689
-0.00041283
0.000442064
0.000276028
0.000308303
0.000308937
-0.000582828
5.54202e-05
0.000533693
-0.000568161
-2.64379e-05
0.000484382
-0.000474984
-6.45199e-05
0.000393344
-0.000309085
-6.65357e-05
0.000256775
-9.15209e-05
-4.13695e-05
9.15416e-05
0.00014202
1.70007e-06
-7.37707e-05
0.000347455
5.66874e-05
-0.000204959
0.000480812
0.000125311
-0.00027214
0.000510233
0.000214169
-0.000262173
0.000432865
0.000319988
-0.000188508
0.000280217
0.000419957
-8.11237e-05
9.61551e-05
0.000482309
3.66046e-05
-8.8597e-05
0.000482171
0.000154259
-0.000259943
0.000414342
0.000264985
-0.000408538
0.000298488
0.000356843
0.000170759
0.000400819
-0.00053385
-0.000159694
0.000612585
-0.0005146
-0.000210634
0.000580931
-0.00042716
-0.000225715
0.000508611
-0.000271417
-0.000204224
0.000384606
-6.25251e-05
-0.000152464
0.000221878
0.000166846
-8.05628e-05
4.9643e-05
0.000371058
2.87791e-06
-9.32655e-05
0.000501435
9.72037e-05
-0.000171731
0.000520125
0.000206753
-0.000170998
0.000422576
0.000318361
-0.000107943
0.000247863
0.000394667
-1.53951e-05
5.1214e-05
0.000406457
8.65474e-05
-0.000130238
0.000351408
0.00019273
-0.000283786
0.000245365
0.000299156
-0.000406718
0.000113539
0.000394257
-1.15117e-05
0.000445571
-0.000500326
0.000611901
-0.000476413
0.000598146
-0.000393468
0.000549943
-0.000248307
0.000451051
-4.97334e-05
0.000308601
0.000176033
0.000147848
0.000385823
8.20942e-06
0.000528972
-7.26604e-05
0.000560209
-7.8649e-05
0.000465221
-2.85975e-05
0.000279023
4.31352e-05
6.36091e-05
0.000120613
-0.000132323
0.000205544
-0.000288932
0.000297096
-0.000404422
0.000384897
0.000438054
-0.00060591
-0.000521578
0.000817665
-0.000554971
-0.000459224
0.000698527
-0.000430205
-0.000369655
0.000558548
-0.000242085
-0.000254301
0.000382543
-1.36738e-05
-0.000127015
0.000191816
0.000218877
-7.16709e-06
2.30767e-05
0.000411561
9.20361e-05
-8.36859e-05
0.000524891
0.000168893
-9.82372e-05
0.000532256
0.000233443
-1.68468e-05
0.000431966
0.000274921
0.000124173
0.000255165
0.00025425
0.000268132
4.77647e-05
0.000152938
0.000387951
-0.000153834
-1.49533e-06
0.000488197
-0.000329334
-0.000163699
0.000575932
-0.000469185
-0.000297378
0.000645319
-0.000369959
0.000663801
-0.000558621
-0.000619831
0.000642827
-0.000527915
-0.000550086
0.000541314
-0.000420897
-0.000451789
0.000428059
-0.000247202
-0.000326592
0.000291809
-2.62814e-05
-0.000187771
0.000146926
0.000209902
-5.3426e-05
1.95634e-05
0.000421839
6.04822e-05
-5.79634e-05
0.000569667
0.000150568
-6.05701e-05
0.00061946
0.000225226
1.77752e-05
0.000552749
0.00027345
0.000144504
0.000388167
0.000248636
0.000266788
0.000174499
0.000126911
0.000361524
-4.29359e-05
-5.57988e-05
0.000437207
-0.000236739
-0.000241359
0.000500268
-0.000393611
-0.000386786
0.000545558
-0.000461275
0.000551599
-0.000525974
-0.000647476
0.000454953
-0.000510938
-0.000578726
0.000357252
-0.000415943
-0.000481275
0.000255347
-0.000251668
-0.000357385
0.000143837
-3.64046e-05
-0.000219741
3.37117e-05
0.000201603
-8.52364e-05
-5.58037e-05
0.000427366
3.05633e-05
-0.000103427
0.000604778
0.000122523
-9.01349e-05
0.000699545
0.000199486
-1.09116e-05
0.000680583
0.000255977
0.000110056
0.00054501
0.000243293
0.000223667
0.000331701
0.000123792
0.000307091
9.29911e-05
-6.87329e-05
0.000367975
-0.000131495
-0.000266444
0.000412466
-0.000318383
-0.000418692
0.000436272
-0.000496226
0.000428314
-0.000503621
-0.000608864
0.00026542
-0.00050247
-0.000547347
0.000161741
-0.000416764
-0.000457815
6.13195e-05
-0.000258804
-0.000343826
-3.57738e-05
-4.7047e-05
-0.000217558
-0.000120703
0.000192424
-9.40036e-05
-0.000180898
0.000427968
1.2965e-05
-0.000203349
0.000627368
9.74446e-05
-0.000176454
0.000759342
0.000168883
-9.50802e-05
0.000788379
0.00023034
2.45071e-05
0.000690089
0.000238791
0.000142794
0.000484781
0.000142173
0.000231415
0.000226822
-4.00147e-05
0.000290607
-3.04782e-05
-0.000237187
0.0003235
-0.000250695
-0.000391396
0.000327492
-0.000472805
0.000301591
-0.000494245
-0.000515687
9.24957e-05
-0.000504456
-0.000465898
-2.32263e-05
-0.000425804
-0.000390104
-0.000128131
-0.000272023
-0.00029262
-0.000219021
-6.21552e-05
-0.000184822
-0.000288454
0.000178602
-7.96699e-05
-0.000328979
0.000420636
1.18335e-05
-0.00033397
0.000634328
8.3834e-05
-0.000297318
0.000791148
0.000145641
-0.000214958
0.000856811
0.000207152
-9.43392e-05
0.000794588
0.000237761
3.52452e-05
0.000603883
0.000177452
0.000141646
0.000333914
2.38539e-05
0.00021122
4.88258e-05
-0.000159754
0.000240184
-0.000200782
-0.000311232
0.000228284
-0.000396499
0.00018309
-0.000499995
-0.000383717
-4.85689e-05
-0.00051807
-0.000349283
-0.000177005
-0.000443742
-0.000291212
-0.00029018
-0.000292265
-0.000214669
-0.000380855
-8.35952e-05
-0.00013003
-0.000443202
0.000157485
-4.77074e-05
-0.000473008
0.000402774
2.41458e-05
-0.000467672
0.000623324
8.1679e-05
-0.000424786
0.00079218
0.000133154
-0.000341358
0.000878104
0.000192522
-0.000219536
0.00084211
0.000242615
-7.83036e-05
0.000668576
0.000223979
4.95513e-05
0.000396348
0.000111714
0.000136613
9.46401e-05
-4.73076e-05
0.000168661
-0.000176621
-0.000190469
0.000145983
-0.00028004
8.45659e-05
-0.000520437
-0.000230405
-0.000145274
-0.000541212
-0.00021423
-0.000285335
-0.000467779
-0.000176691
-0.000407471
-0.000316778
-0.000123631
-0.000502223
-0.000109069
-6.4366e-05
-0.000564068
0.000130577
-6.87464e-06
-0.000590377
0.000374697
4.36399e-05
-0.000580628
0.000594829
8.61296e-05
-0.00053416
0.000764278
0.000128575
-0.000449021
0.00085445
0.000186605
-0.00032537
0.000830308
0.000253423
-0.000175295
0.000671068
0.000275668
-2.96829e-05
0.000404579
0.000210737
7.54898e-05
9.81449e-05
8.41976e-05
0.000115252
-0.000182556
-4.59876e-05
8.87179e-05
-0.000139532
1.74475e-05
-0.000552441
-7.46026e-05
-0.00018865
-0.00056959
-7.87566e-05
-0.000336858
-0.000492562
-6.25995e-05
-0.000468079
-0.00033958
-3.32784e-05
-0.000570537
-0.000132549
7.25929e-07
-0.000637765
0.000103601
3.37175e-05
-0.000667026
0.00034178
6.34648e-05
-0.000658099
0.00055419
9.15509e-05
-0.000610528
0.00071407
0.000126912
-0.000523
0.000795029
0.000185836
-0.000395873
0.000768613
0.000267685
-0.000239026
0.000616756
0.000326041
-8.07912e-05
0.000360591
0.000307575
3.84559e-05
6.05678e-05
0.000216435
8.80872e-05
-0.000217413
0.000101487
6.41319e-05
4.86661e-06
-1.00107e-05
-0.000591042
6.44408e-05
-0.000170525
-0.000597904
3.95368e-05
-0.000324057
-0.000512346
3.58671e-05
-0.000464992
-0.000354296
4.41785e-05
-0.000579384
-0.000146898
5.61184e-05
-0.000658412
8.43113e-05
6.75181e-05
-0.000697438
0.000312339
7.8763e-05
-0.000694745
0.000510065
9.42346e-05
-0.000648758
0.000651464
0.000124534
-0.000558234
0.000712678
0.000186218
-0.000425205
0.000672579
0.000281255
-0.000261233
0.00052053
0.000368536
-9.42617e-05
0.000275569
0.000389591
3.55394e-05
-1.02547e-05
0.000331524
9.59635e-05
-0.000274627
0.000231001
7.98376e-05
0.000132135
1.22059e-05
-0.00062953
0.000169303
-8.52225e-05
-0.000620885
0.000125506
-0.00024324
-0.000522572
0.000106148
-0.000395744
-0.000356356
9.91134e-05
-0.000527514
-0.000147069
9.51559e-05
-0.000625914
7.86376e-05
9.06682e-05
-0.000682332
0.000293445
8.78702e-05
-0.00069167
0.000470866
9.37798e-05
-0.00065004
0.000586476
0.000120878
-0.000555987
0.000620101
0.000185628
-0.000414437
0.000558582
0.000290044
-0.000241405
0.000400661
0.000396222
-6.65232e-05
0.000166452
0.000445143
7.21529e-05
-9.88455e-05
0.000412256
0.000144017
-0.00034361
0.000324989
0.000141072
0.000224422
8.395e-05
-0.000659412
0.000226092
6.70635e-05
-0.000633364
0.00016805
-9.63087e-05
-0.000520594
0.000139675
-0.000262716
-0.00034439
0.000125513
-0.000417744
-0.000131681
0.000114554
-0.000543596
8.88809e-05
0.00010251
-0.000625482
0.000288992
9.23704e-05
-0.000652876
0.00044247
9.30407e-05
-0.000618495
0.000527118
0.000118602
-0.000520737
0.000527926
0.000184717
-0.00036871
0.00044073
0.00029162
-0.000184783
0.000274802
0.000403998
-2.81966e-06
5.15356e-05
0.000464906
0.000145862
-0.000190818
0.000446577
0.000230906
-0.000410695
0.000369008
0.000244988
0.00026997
0.000200884
-0.000671434
0.000224442
0.000273579
-0.000630492
0.000161477
0.000104905
-0.000505625
0.000132926
-7.61762e-05
-0.000320114
0.000121561
-0.000258297
-0.000103055
0.000114368
-0.000418106
0.000113728
0.000104977
-0.000532565
0.000299672
9.57809e-05
-0.000583613
0.000428204
9.66376e-05
-0.000559433
0.000479565
0.000122392
-0.000458563
0.000445202
0.000186523
-0.000295741
0.000331667
0.000285686
-0.000101236
0.000157555
0.000387295
8.93033e-05
-5.23858e-05
0.000442662
0.000244742
-0.000268799
0.000426476
0.000344072
-0.000461119
0.000354538
0.00037809
0.000260811
0.000348268
-0.000660725
0.000157013
0.000501898
-0.000610759
0.00010316
0.000332452
-0.000479534
8.54151e-05
0.000140918
-0.000288045
8.75985e-05
-6.65895e-05
-6.67674e-05
9.54878e-05
-0.000261783
0.00014861
9.98713e-05
-0.00041225
0.000323681
0.000100983
-0.000490452
0.000430067
0.000108415
-0.000478932
0.000449744
0.000136662
-0.000376608
0.000380933
0.000195172
-0.000205166
0.000241883
0.000275667
-4.54871e-06
6.07494e-05
0.000348625
0.000189315
-0.000135198
0.000379126
0.000348935
-0.000324632
0.000351429
0.00046017
-0.000488466
0.000279925
0.000514475
0.000194541
0.000499993
-0.000633016
2.38717e-05
0.000700827
-0.000579817
-5.88566e-06
0.000540229
-0.000448853
-1.81253e-06
0.000349608
-0.000256048
2.412e-05
0.000127449
-3.11915e-05
5.76389e-05
-9.54662e-05
0.000186451
8.65182e-05
-0.00027806
0.00035748
0.000107401
-0.000382406
0.000449874
0.000128262
-0.000384383
0.000445195
0.000162383
-0.000283215
0.000346895
0.000213267
-0.000108303
0.000183385
0.000265759
9.22934e-05
-6.06407e-06
0.000295406
0.000279273
-0.000192237
0.00028465
0.000434907
-0.000358773
0.000231878
0.000551072
-0.00049663
0.000153555
0.000621071
7.63693e-05
0.000621383
-0.000599202
-0.000157288
0.000818068
-0.000547102
-0.000154368
0.000677313
-0.000421846
-0.00012135
0.000502892
-0.000232666
-6.4929e-05
0.000284474
-5.41231e-06
1.44664e-06
5.0817e-05
0.000218955
6.25831e-05
-0.000150789
0.000396226
0.000110421
-0.000273556
0.000489056
0.000149986
-0.000286284
0.000474768
0.000193769
-0.000188096
0.000356914
0.000239178
-1.59993e-05
0.000171329
0.000261256
0.000174693
-3.15278e-05
0.000240188
0.000344622
-0.000217054
0.000177872
0.000485034
-0.000370834
8.95853e-05
0.000595229
-0.000490722
-3.36088e-06
0.00067106
-7.6472e-05
0.00068257
-0.000558926
0.000826175
-0.000512861
0.00071311
-0.000399375
0.000566991
-0.000220959
0.000371067
4.09221e-06
0.000147864
0.000237412
-5.43132e-05
0.000431437
-0.000181521
0.000542096
-0.000196875
0.000539016
-9.90702e-05
0.000418291
6.89591e-05
0.000216547
0.000242281
-5.7707e-06
0.000383621
-0.000202953
0.000495525
-0.000357397
0.000586036
-0.000469907
0.000654756
0.000671813
-0.000556421
-0.000382182
0.000915056
-0.00046474
-0.000270552
0.000693044
-0.000312247
-0.00013253
0.000460488
-0.000117756
1.53511e-05
0.000211627
9.04165e-05
0.000150968
-2.10446e-05
0.00027647
0.000250251
-0.000193631
0.000407454
0.000300445
-0.000267646
0.00046257
0.000308555
-0.000220677
0.000434727
0.000291029
-5.79841e-05
0.000327829
0.000249153
0.000176377
0.00015926
0.000163234
0.00041333
-3.76084e-05
2.84825e-05
0.000602728
-0.000226856
-0.000126379
0.000738829
-0.000384087
-0.000259069
0.000826573
-0.000497206
-0.000340038
0.000867249
-0.00034836
0.000839388
-0.000498613
-0.000446748
0.000717069
-0.000432812
-0.000324841
0.000529802
-0.000301903
-0.000171762
0.000336382
-0.000122029
-5.99759e-06
0.000133283
8.16323e-05
0.000149224
-5.49905e-05
0.000275526
0.000269218
-0.000193297
0.000427482
0.000338046
-0.00024752
0.000513661
0.000357595
-0.00019579
0.00052043
0.000342743
-4.07079e-05
0.000441484
0.000294739
0.000177863
0.000286723
0.000191936
0.000392847
9.02806e-05
2.95081e-05
0.000556941
-0.000107893
-0.000154985
0.000663987
-0.000278678
-0.00031079
0.000722774
-0.000407073
-0.000403395
0.00073731
-0.000413436
0.000698539
-0.000442512
-0.000457142
0.000495888
-0.000398857
-0.000335048
0.000323803
-0.000288438
-0.000179557
0.000152722
-0.000125123
-9.98424e-06
-1.54921e-05
6.94947e-05
0.000150405
-0.000162088
0.000266564
0.000277519
-0.000261174
0.000435665
0.000353691
-0.000288173
0.000552317
0.000377873
-0.000227066
0.000598648
0.00036436
-7.886e-05
0.000559502
0.000318199
0.000125743
0.000430888
0.000216341
0.000327875
0.00023906
4.7879e-05
0.000480548
2.80482e-05
-0.000149341
0.000573343
-0.00016434
-0.000317888
0.000611952
-0.000314861
-0.000418203
0.000601602
-0.000432807
0.000544795
-0.000396513
-0.000418054
0.000276945
-0.00037254
-0.00030318
0.0001059
-0.000280017