/*--------------------------------*- C++ -*----------------------------------*\
| =========                 |                                                 |
| \\      /  F ield         | OpenFOAM: The Open Source CFD Toolbox           |
|  \\    /   O peration     | Version:  3.0.0                                 |
|   \\  /    A nd           | Web:      www.OpenFOAM.org                      |
|    \\/     M anipulation  |                                                 |
\*---------------------------------------------------------------------------*/
FoamFile
{
    version     2.0;
    format      ascii;
    class       volVectorField;
    location    "6.25";
    object      U;
}
// * * * * * * * * * * * * * * * * * * * * * * * * * * * * * * * * * * * * * //

dimensions      [0 1 -1 0 0 0 0];

internalField   nonuniform List<vector> 
4096
(
(-0.129026 -0.129961 0.0577446)
(-0.123942 -0.145973 0.0869575)
(-0.115784 -0.156724 0.107848)
(-0.0899824 -0.156435 0.117293)
(-0.0494343 -0.143143 0.113433)
(0.000839617 -0.11688 0.0959797)
(0.053087 -0.0790343 0.0672609)
(0.0967503 -0.0316732 0.0320442)
(0.120283 0.0213033 -0.00397287)
(0.116473 0.0692606 -0.0357005)
(0.0889455 0.0968396 -0.0586493)
(0.0487973 0.0956465 -0.0692444)
(0.00558569 0.0687981 -0.0656813)
(-0.0361993 0.0263952 -0.0485775)
(-0.0748971 -0.0210166 -0.0216598)
(-0.0951286 -0.0635828 0.00766497)
(-0.125772 -0.169889 0.0466365)
(-0.124841 -0.180905 0.0756564)
(-0.11927 -0.187991 0.0971551)
(-0.0955436 -0.185763 0.108868)
(-0.056941 -0.172176 0.109477)
(-0.0078571 -0.1466 0.0986014)
(0.0453915 -0.109219 0.07751)
(0.0942213 -0.0604968 0.0489577)
(0.128472 -0.00276792 0.0158973)
(0.137913 0.0524764 -0.0186039)
(0.118896 0.08332 -0.0490745)
(0.0793175 0.0768978 -0.0681221)
(0.0312588 0.0401526 -0.0706094)
(-0.0174019 -0.0103592 -0.0564539)
(-0.0626446 -0.0607234 -0.0304561)
(-0.08752 -0.101092 -0.000879229)
(-0.1286 -0.200678 0.0327303)
(-0.13283 -0.209877 0.0631116)
(-0.129708 -0.216015 0.0868947)
(-0.106097 -0.213318 0.101955)
(-0.0662101 -0.199729 0.106938)
(-0.0149271 -0.174547 0.101224)
(0.0415377 -0.137857 0.0855515)
(0.0954724 -0.0899291 0.0618758)
(0.13847 -0.0317973 0.0320292)
(0.160959 0.0275027 -0.00293232)
(0.154449 0.0644333 -0.0387328)
(0.120014 0.060153 -0.0657546)
(0.0684074 0.020437 -0.0753312)
(0.0105282 -0.0344374 -0.0657151)
(-0.0459603 -0.0873141 -0.0418985)
(-0.0808976 -0.128041 -0.0125015)
(-0.133538 -0.209145 0.0169991)
(-0.142956 -0.218114 0.0482743)
(-0.142053 -0.224622 0.0738386)
(-0.117947 -0.222829 0.0917308)
(-0.0758662 -0.210856 0.100467)
(-0.0213664 -0.188062 0.0990999)
(0.0391021 -0.154496 0.087896)
(0.0981235 -0.110381 0.0683395)
(0.148321 -0.0557171 0.0418797)
(0.181826 0.00435524 0.00840571)
(0.188359 0.0486051 -0.0300626)
(0.161627 0.0520205 -0.0635085)
(0.107857 0.0148509 -0.0799035)
(0.0402999 -0.0409905 -0.0750556)
(-0.0289004 -0.0951931 -0.0537373)
(-0.0754136 -0.136303 -0.0250791)
(-0.140284 -0.196804 0.000961727)
(-0.153927 -0.207271 0.0322886)
(-0.154691 -0.215385 0.0586144)
(-0.129696 -0.215519 0.0782662)
(-0.0851349 -0.206073 0.0896601)
(-0.0272281 -0.186549 0.0915431)
(0.0372458 -0.157046 0.0837784)
(0.100884 -0.117897 0.0675007)
(0.156649 -0.0687244 0.0440633)
(0.19795 -0.01132 0.0129674)
(0.215199 0.0384002 -0.0255577)
(0.19671 0.0524694 -0.0627932)
(0.142395 0.0230101 -0.0843935)
(0.0660054 -0.0300142 -0.0835493)
(-0.0152653 -0.084096 -0.0646399)
(-0.0724123 -0.12587 -0.0371774)
(-0.148732 -0.166423 -0.013446)
(-0.164983 -0.1798 0.0171487)
(-0.166608 -0.190459 0.0431207)
(-0.1404 -0.193228 0.0632002)
(-0.0933965 -0.186835 0.0757779)
(-0.0323919 -0.170956 0.0794284)
(0.0355035 -0.145768 0.073762)
(0.102799 -0.111792 0.0596979)
(0.162417 -0.0686283 0.0386046)
(0.208338 -0.0159085 0.0101236)
(0.232349 0.0362955 -0.0265929)
(0.220484 0.0612328 -0.0645668)
(0.166698 0.0430497 -0.0887613)
(0.0836185 -0.00383916 -0.0904219)
(-0.00740075 -0.0561017 -0.0734441)
(-0.0728677 -0.0987981 -0.0474037)
(-0.158179 -0.122225 -0.024257)
(-0.175177 -0.139678 0.00504971)
(-0.17679 -0.15354 0.0296256)
(-0.149164 -0.159414 0.0487017)
(-0.100021 -0.156359 0.0607793)
(-0.0365891 -0.144201 0.0644314)
(0.0337064 -0.123198 0.0592615)
(0.103298 -0.0940641 0.0461782)
(0.164985 -0.0565073 0.0266121)
(0.212639 -0.00890184 0.000528803)
(0.239136 0.0434772 -0.0331996)
(0.230789 0.0777362 -0.0691193)
(0.177834 0.0723313 -0.0929381)
(0.0908668 0.0340052 -0.0951531)
(-0.00638447 -0.0152526 -0.0791253)
(-0.0767595 -0.0589863 -0.0544135)
(-0.167308 -0.0697486 -0.0297113)
(-0.183256 -0.0923104 -0.0019673)
(-0.184075 -0.109815 0.0203567)
(-0.155021 -0.118992 0.0370716)
(-0.104252 -0.119278 0.046933)
(-0.0392933 -0.110709 0.0486675)
(0.0321085 -0.0936664 0.0422041)
(0.102293 -0.0688044 0.0287211)
(0.164058 -0.035924 0.00983987)
(0.210882 0.00726224 -0.0141497)
(0.23606 0.0588972 -0.0441988)
(0.227634 0.100454 -0.0758781)
(0.175147 0.107443 -0.0965619)
(0.0872971 0.0787128 -0.0972377)
(-0.0119734 0.0331512 -0.0809709)
(-0.0832862 -0.0117485 -0.0571798)
(-0.174224 -0.0154703 -0.0283282)
(-0.187687 -0.0439494 -0.00221869)
(-0.187065 -0.0652882 0.0172669)
(-0.156742 -0.0777403 0.0304483)
(-0.105142 -0.0811754 0.0364402)
(-0.0399302 -0.0758621 0.0344833)
(0.0311123 -0.0622633 0.0249998)
(0.10022 -0.0408921 0.00966526)
(0.159981 -0.0114894 -0.00944396)
(0.203449 0.0285802 -0.0316594)
(0.224215 0.0796596 -0.0576086)
(0.212582 0.126701 -0.0835151)
(0.160068 0.144307 -0.0988883)
(0.074299 0.124718 -0.0961523)
(-0.0225791 0.0829026 -0.0783774)
(-0.0909449 0.0367546 -0.0548982)
(-0.176258 0.0334965 -0.019234)
(-0.186573 -0.00112265 0.00532481)
(-0.184274 -0.0260337 0.0217498)
(-0.153261 -0.041341 0.0306929)
(-0.101828 -0.0474225 0.0316753)
(-0.0375885 -0.044659 0.0245118)
(0.031637 -0.0336337 0.010403)
(0.0979099 -0.0147564 -0.00816727)
(0.153524 0.0124211 -0.0284583)
(0.191247 0.0508814 -0.0493116)
(0.205107 0.101925 -0.0709576)
(0.188237 0.152734 -0.0902063)
(0.135781 0.178176 -0.098851)
(0.0549863 0.165958 -0.0913027)
(-0.0352893 0.127317 -0.0710743)
(-0.0974311 0.080037 -0.0472495)
(-0.170194 0.0699185 -0.00288569)
(-0.177758 0.030044 0.0203708)
(-0.174105 0.00246473 0.0340089)
(-0.143505 -0.0146573 0.0386777)
(-0.0935492 -0.0222327 0.0341853)
(-0.0316341 -0.0208745 0.0209682)
(0.0343872 -0.0112228 0.00110617)
(0.0962481 0.00634144 -0.0218367)
(0.14574 0.0325964 -0.0441924)
(0.175525 0.0707071 -0.0642248)
(0.180595 0.121767 -0.081727)
(0.157811 0.174078 -0.0941522)
(0.106579 0.203692 -0.0955955)
(0.0338008 0.196208 -0.0826305)
(-0.0461241 0.159707 -0.059323)
(-0.0998435 0.111854 -0.0345767)
(-0.154372 0.0873544 0.0177894)
(-0.160298 0.0446627 0.0403406)
(-0.15606 0.0160072 0.0520709)
(-0.127284 -0.00136123 0.0532904)
(-0.0803177 -0.00877158 0.0438996)
(-0.0220238 -0.00713919 0.0247902)
(0.0396513 0.00279771 -0.00105647)
(0.0958723 0.0206513 -0.0288914)
(0.137756 0.0474179 -0.0539957)
(0.157848 0.0858485 -0.0739285)
(0.153033 0.135884 -0.0879883)
(0.124712 0.186172 -0.0943436)
(0.0764955 0.215234 -0.0892715)
(0.0142769 0.209247 -0.0712976)
(-0.0523878 0.174133 -0.0448714)
(-0.0962469 0.126707 -0.0187563)
(-0.132937 0.0813462 0.0373842)
(-0.137358 0.0396393 0.0601266)
(-0.132924 0.012104 0.0714467)
(-0.106924 -0.00362112 0.0710215)
(-0.0639853 -0.00893924 0.0585552)
(-0.0101413 -0.00496347 0.0351256)
(0.0467218 0.00734703 0.00433109)
(0.0970229 0.0276078 -0.0280893)
(0.130746 0.0565563 -0.0563455)
(0.140396 0.0955713 -0.0770815)
(0.125487 0.142402 -0.089179)
(0.092178 0.185913 -0.0913536)
(0.047616 0.208793 -0.0816031)
(-0.00335503 0.200509 -0.0599492)
(-0.0557317 0.166168 -0.031047)
(-0.0890808 0.12029 -0.00336202)
(-0.115291 0.0504602 0.0509489)
(-0.116593 0.013551 0.074427)
(-0.111321 -0.0105799 0.0866909)
(-0.0877494 -0.0228195 0.0867574)
(-0.0486978 -0.0241474 0.0739403)
(0.000915424 -0.0156813 0.0490791)
(0.0535695 0.00146971 0.0158232)
(0.099103 0.0266925 -0.0196894)
(0.126182 0.0599105 -0.0509972)
(0.126795 0.0997843 -0.0738679)
(0.102776 0.140924 -0.0864219)
(0.0644992 0.173097 -0.0872899)
(0.0219413 0.184723 -0.0753775)
(-0.0204444 0.170357 -0.0517569)
(-0.0607613 0.135232 -0.0213766)
(-0.0842484 0.0912123 0.0075908)
(-0.107823 -0.00190132 0.056735)
(-0.104645 -0.0318344 0.0810084)
(-0.0976586 -0.051136 0.0949218)
(-0.0751407 -0.0587938 0.0970675)
(-0.0387038 -0.0549048 0.0864045)
(0.00784449 -0.0403502 0.0632903)
(0.0577557 -0.0163659 0.0308486)
(0.100999 0.0160458 -0.00527325)
(0.12553 0.0555666 -0.0389539)
(0.121974 0.0973096 -0.0656547)
(0.0920549 0.132059 -0.0820029)
(0.0485699 0.150784 -0.0849501)
(0.00440598 0.148221 -0.0732257)
(-0.0348368 0.12474 -0.0489476)
(-0.0684249 0.086651 -0.0178157)
(-0.084963 0.0437138 0.0119455)
(-0.1086 -0.0568386 0.0552186)
(-0.100931 -0.0767377 0.0800081)
(-0.0918227 -0.0897049 0.0956586)
(-0.0692602 -0.0930146 0.100675)
(-0.0344414 -0.0858845 0.0939051)
(0.00974953 -0.0684401 0.0751999)
(0.0578435 -0.0412327 0.0466828)
(0.100947 -0.00451099 0.0126503)
(0.127559 0.0411987 -0.022156)
(0.126909 0.0888467 -0.0537423)
(0.0971695 0.122246 -0.0766906)
(0.0499084 0.12864 -0.0844973)
(0.00073189 0.109068 -0.074732)
(-0.0415742 0.0731246 -0.0508038)
(-0.0751726 0.0308538 -0.0196104)
(-0.0892763 -0.00926313 0.0103112)
(-0.154928 -0.138126 0.127883)
(-0.145613 -0.139649 0.138397)
(-0.133583 -0.134685 0.141038)
(-0.10014 -0.119318 0.131053)
(-0.0499282 -0.0946121 0.108799)
(0.0101436 -0.0638249 0.0780351)
(0.0702112 -0.0304661 0.04554)
(0.118033 0.00412878 0.0188826)
(0.141348 0.0397114 0.00262995)
(0.132857 0.0702337 -0.00429173)
(0.0976295 0.0833678 -0.00505871)
(0.0492875 0.0723432 4.30707e-05)
(-0.00109129 0.0410698 0.0123764)
(-0.0487342 -0.000792419 0.0319212)
(-0.0922735 -0.043715 0.0558855)
(-0.11276 -0.0779016 0.076469)
(-0.144826 -0.172906 0.102244)
(-0.140846 -0.171447 0.112133)
(-0.132032 -0.164314 0.116153)
(-0.101662 -0.147733 0.110958)
(-0.0541925 -0.122132 0.0967668)
(0.00453152 -0.0898435 0.0759516)
(0.0662472 -0.0537124 0.0528656)
(0.120231 -0.0148657 0.0326878)
(0.154819 0.026551 0.0183318)
(0.159111 0.0627103 0.00813318)
(0.131092 0.0761046 0.00050087)
(0.0824284 0.0579317 -0.00159691)
(0.0273323 0.0167103 0.00532602)
(-0.0263606 -0.0325269 0.0210347)
(-0.0753742 -0.0779923 0.0418227)
(-0.100548 -0.110269 0.0605506)
(-0.14139 -0.197504 0.0742011)
(-0.142415 -0.194935 0.0835721)
(-0.135859 -0.187155 0.0885738)
(-0.106331 -0.170292 0.0867211)
(-0.0588754 -0.144668 0.0781403)
(0.000639573 -0.112321 0.0644298)
(0.0646327 -0.0758581 0.048504)
(0.123712 -0.0365246 0.033928)
(0.167921 0.00638982 0.0225725)
(0.186136 0.0467655 0.0121678)
(0.170061 0.0648866 0.000958034)
(0.125035 0.0471092 -0.00650708)
(0.06559 0.00209415 -0.00459738)
(0.00305781 -0.0515845 0.00705518)
(-0.055933 -0.099598 0.0244637)
(-0.0905101 -0.132557 0.0414817)
(-0.140658 -0.199858 0.0442323)
(-0.14644 -0.197739 0.0520104)
(-0.141788 -0.19086 0.0567435)
(-0.112389 -0.175516 0.0567503)
(-0.0639989 -0.152044 0.0520646)
(-0.00281028 -0.122229 0.0436381)
(0.0638221 -0.0883773 0.0332745)
(0.127255 -0.0517706 0.0233677)
(0.178872 -0.0111242 0.0153092)
(0.209152 0.0309081 0.00688555)
(0.206363 0.0558941 -0.00437977)
(0.167626 0.0441189 -0.0142414)
(0.104888 0.000455324 -0.015627)
(0.0329863 -0.0543785 -0.00731682)
(-0.0372707 -0.103473 0.00667251)
(-0.0823638 -0.13691 0.021305)
(-0.142674 -0.18307 0.0151628)
(-0.152238 -0.182723 0.0203911)
(-0.149015 -0.177857 0.0236833)
(-0.11934 -0.165143 0.024124)
(-0.0696597 -0.145035 0.0216791)
(-0.00655455 -0.119103 0.0167645)
(0.0626377 -0.0893359 0.0103262)
(0.129593 -0.0570109 0.00389246)
(0.186292 -0.0207891 -0.00135026)
(0.224916 0.0198235 -0.00696719)
(0.233447 0.0506483 -0.0156611)
(0.202125 0.0483767 -0.0246184)
(0.137924 0.0110426 -0.0268793)
(0.0577487 -0.041478 -0.0206925)
(-0.0229358 -0.0902588 -0.00959635)
(-0.0774442 -0.124242 0.00210845)
(-0.147787 -0.15088 -0.00992978)
(-0.159583 -0.15338 -0.00761541)
(-0.157116 -0.151401 -0.00655692)
(-0.126835 -0.142113 -0.00691358)
(-0.0758052 -0.126079 -0.00872379)
(-0.0109806 -0.104712 -0.0119198)
(0.0602184 -0.0796569 -0.0161144)
(0.129607 -0.0520996 -0.0202865)
(0.189301 -0.0209133 -0.0234361)
(0.232252 0.0163513 -0.0263426)
(0.247881 0.0507142 -0.0312648)
(0.223134 0.0589648 -0.0367729)
(0.159291 0.0316715 -0.0374685)
(0.0733147 -0.015409 -0.0318423)
(-0.0154203 -0.0623717 -0.0229872)
(-0.0768599 -0.0970033 -0.0140898)
(-0.155901 -0.107873 -0.0282676)
(-0.16801 -0.114159 -0.0286193)
(-0.165454 -0.115763 -0.0301531)
(-0.134201 -0.110439 -0.0323054)
(-0.0819089 -0.0988782 -0.0349738)
(-0.0158593 -0.0823768 -0.0381931)
(0.0564277 -0.0622236 -0.0417901)
(0.126819 -0.0393758 -0.0449072)
(0.187416 -0.0128434 -0.0466674)
(0.231239 0.0206578 -0.0472765)
(0.249253 0.0566957 -0.0482259)
(0.228437 0.0746763 -0.0490211)
(0.166087 0.0593131 -0.0464184)
(0.077536 0.0200706 -0.0399194)
(-0.015819 -0.0238642 -0.0322605)
(-0.0809109 -0.05922 -0.0254925)
(-0.166135 -0.0593294 -0.0374177)
(-0.176589 -0.0702727 -0.0398073)
(-0.173013 -0.0759467 -0.0440126)
(-0.14038 -0.0749248 -0.048776)
(-0.0869796 -0.0680386 -0.0536989)
(-0.0203536 -0.0563929 -0.0586572)
(0.0519112 -0.0409675 -0.0633281)
(0.121724 -0.0224392 -0.0666251)
(0.18111 0.000242391 -0.0676029)
(0.222857 0.0306991 -0.066202)
(0.239104 0.0675893 -0.063376)
(0.218864 0.0937594 -0.0592316)
(0.15822 0.0904424 -0.0525076)
(0.0702042 0.0602613 -0.0439609)
(-0.0239685 0.0200957 -0.0361584)
(-0.0890132 -0.0160671 -0.0304107)
(-0.176996 -0.0109111 -0.0353641)
(-0.184024 -0.0272276 -0.0390613)
(-0.178593 -0.0371342 -0.0458871)
(-0.144278 -0.0403597 -0.0540688)
(-0.089841 -0.03793 -0.0627075)
(-0.0231297 -0.0308117 -0.0711065)
(0.0480626 -0.0196953 -0.0783951)
(0.115629 -0.00490371 -0.0830733)
(0.171638 0.0148281 -0.0838807)
(0.208754 0.0433712 -0.0806246)
(0.220047 0.0811188 -0.0742273)
(0.197413 0.11383 -0.065395)
(0.138101 0.121253 -0.0543563)
(0.0531857 0.100038 -0.0428933)
(-0.0381764 0.0637479 -0.0336087)
(-0.0997794 0.0267741 -0.0276022)
(-0.185991 0.031536 -0.0207408)
(-0.188571 0.00957711 -0.0251095)
(-0.180725 -0.00421836 -0.0344436)
(-0.144599 -0.011036 -0.0467296)
(-0.0893378 -0.0122602 -0.060408)
(-0.0230834 -0.00889035 -0.0739147)
(0.0461272 -0.00140592 -0.0854514)
(0.11003 0.0103694 -0.0927191)
(0.160711 0.0280946 -0.0939759)
(0.190986 0.0558048 -0.0890018)
(0.195049 0.0945384 -0.0792141)
(0.168117 0.131997 -0.0660606)
(0.109965 0.147742 -0.0507854)
(0.0300937 0.134141 -0.0357501)
(-0.0554258 0.10128 -0.0238994)
(-0.110812 0.0636565 -0.01654)
(-0.189675 0.0623971 0.00638298)
(-0.18802 0.0353718 0.00187418)
(-0.177851 0.0186444 -0.00971479)
(-0.140352 0.00945242 -0.0265463)
(-0.0847532 0.00591514 -0.0463178)
(-0.0194974 0.00690379 -0.0664003)
(0.047028 0.0120224 -0.0836172)
(0.106233 0.0218436 -0.094602)
(0.150046 0.0385117 -0.0969206)
(0.171684 0.0660711 -0.0905531)
(0.167042 0.10535 -0.0776928)
(0.135118 0.145161 -0.0607004)
(0.0786589 0.165832 -0.0414302)
(0.00574564 0.157441 -0.0224671)
(-0.0713276 0.127363 -0.00711253)
(-0.118981 0.089553 0.00228322)
(-0.184578 0.076598 0.0428803)
(-0.180398 0.0464846 0.0390338)
(-0.168858 0.0285051 0.0259942)
(-0.13118 0.0187708 0.00490265)
(-0.0761144 0.0148869 -0.0213359)
(-0.0123335 0.0154349 -0.0488117)
(0.0511418 0.0199734 -0.0727622)
(0.105098 0.0293011 -0.0883249)
(0.141109 0.0459112 -0.0923574)
(0.152935 0.0734558 -0.085187)
(0.138899 0.111812 -0.069983)
(0.102195 0.150458 -0.0499757)
(0.0485125 0.171703 -0.0274104)
(-0.0156151 0.165522 -0.00469512)
(-0.0821342 0.137406 0.0147955)
(-0.121396 0.100343 0.0267313)
(-0.171022 0.0699021 0.0810921)
(-0.165992 0.0403104 0.0793986)
(-0.154315 0.0235016 0.0667232)
(-0.118023 0.0155619 0.0430591)
(-0.0646371 0.0137965 0.0114948)
(-0.00277553 0.0163606 -0.0229138)
(0.0578151 0.0225735 -0.0536602)
(0.106892 0.0333084 -0.0742427)
(0.135218 0.0510562 -0.08067)
(0.137044 0.0783664 -0.0737064)
(0.113623 0.113394 -0.0575993)
(0.0725209 0.146263 -0.03619)
(0.0220339 0.162829 -0.0116943)
(-0.0326868 0.155272 0.0138657)
(-0.0875889 0.128122 0.0371287)
(-0.118257 0.0928661 0.0519826)
(-0.155058 0.0395135 0.111044)
(-0.149183 0.0147423 0.112945)
(-0.137926 0.00189753 0.103082)
(-0.104033 -0.00169016 0.0799841)
(-0.0531408 0.00138143 0.0462352)
(0.00674721 0.00883276 0.00741199)
(0.0653682 0.0195104 -0.0285653)
(0.111268 0.0340683 -0.0536517)
(0.133878 0.0545302 -0.0630388)
(0.127264 0.0814019 -0.0578856)
(0.095283 0.110483 -0.0431649)
(0.0496065 0.133029 -0.0227585)
(0.00091626 0.139797 0.00162571)
(-0.0463141 0.126902 0.0283866)
(-0.0908512 0.0988707 0.0541256)
(-0.113374 0.0655409 0.071597)
(-0.143347 -0.0124815 0.126109)
(-0.135626 -0.0296167 0.131803)
(-0.124567 -0.0364555 0.126516)
(-0.0930536 -0.0337324 0.107301)
(-0.044822 -0.0235598 0.0756436)
(0.0133889 -0.00861561 0.0366842)
(0.0714917 0.0091905 -0.00119306)
(0.117217 0.029945 -0.0290292)
(0.138518 0.0549119 -0.0415176)
(0.127845 0.0819491 -0.0400657)
(0.0896026 0.103944 -0.029532)
(0.0386957 0.113609 -0.0127731)
(-0.0113551 0.107181 0.00937704)
(-0.055433 0.0854974 0.0354344)
(-0.0935893 0.0540055 0.0618428)
(-0.110116 0.0213735 0.080884)
(-0.13622 -0.0658347 0.124975)
(-0.126047 -0.0741143 0.13363)
(-0.114907 -0.0753113 0.133327)
(-0.085653 -0.0677163 0.120225)
(-0.0405044 -0.0523063 0.0945263)
(0.0156314 -0.0314104 0.0600222)
(0.0739224 -0.0074063 0.0243381)
(0.122221 0.0193772 -0.00366915)
(0.147595 0.0504129 -0.0185083)
(0.13972 0.0814493 -0.0215414)
(0.099942 0.0995083 -0.0169324)
(0.0440722 0.0958568 -0.005827)
(-0.0108493 0.0733549 0.0120566)
(-0.0571339 0.0402924 0.0352752)
(-0.0943235 0.00458762 0.0601694)
(-0.108384 -0.0262902 0.0792255)
(-0.168017 -0.121184 0.188232)
(-0.149913 -0.10587 0.172032)
(-0.130198 -0.0841559 0.149503)
(-0.0891425 -0.0560699 0.115813)
(-0.0337164 -0.0254003 0.0746451)
(0.0274724 0.00295105 0.0338708)
(0.0840639 0.0254411 0.00321779)
(0.125324 0.042556 -0.00880433)
(0.142417 0.0571619 0.000114693)
(0.130163 0.0673816 0.0222245)
(0.0919633 0.064538 0.0462496)
(0.0398174 0.0434972 0.0679604)
(-0.0143185 0.00888219 0.0893194)
(-0.0643275 -0.0295668 0.111372)
(-0.108447 -0.0629656 0.131895)
(-0.125848 -0.082853 0.142184)
(-0.151528 -0.149275 0.148444)
(-0.140832 -0.131902 0.134433)
(-0.125658 -0.107494 0.11663)
(-0.0889157 -0.0762233 0.0915596)
(-0.0366201 -0.0414782 0.0615857)
(0.0238317 -0.00800042 0.0320561)
(0.083223 0.0200626 0.0100117)
(0.131408 0.042199 0.00229517)
(0.159101 0.0605391 0.0112795)
(0.157941 0.0717969 0.0300218)
(0.126045 0.0646897 0.0482235)
(0.074075 0.034467 0.0634202)
(0.0164516 -0.00991179 0.0788119)
(-0.038308 -0.0549415 0.0952961)
(-0.0867584 -0.0906136 0.110378)
(-0.109175 -0.109064 0.117571)
(-0.139777 -0.166649 0.10616)
(-0.135087 -0.148427 0.091957)
(-0.123031 -0.122854 0.0757648)
(-0.0890383 -0.09037 0.0556097)
(-0.0388707 -0.0542904 0.0333611)
(0.0208308 -0.0191197 0.0127911)
(0.0819756 0.0110415 -0.00130297)
(0.135472 0.0350198 -0.0041143)
(0.172899 0.0549939 0.00632029)
(0.185056 0.0685144 0.0244017)
(0.164375 0.0628506 0.0404724)
(0.116091 0.0305104 0.0522816)
(0.0549851 -0.0187648 0.0636201)
(-0.00715597 -0.0685583 0.0756309)
(-0.0636151 -0.106928 0.0859037)
(-0.0944098 -0.126291 0.090094)
(-0.131012 -0.164525 0.0627987)
(-0.131718 -0.147459 0.0465031)
(-0.122246 -0.123091 0.0298502)
(-0.0902172 -0.0921606 0.0122284)
(-0.041436 -0.0578662 -0.00480402)
(0.0178232 -0.0243134 -0.0186821)
(0.0802293 0.0046681 -0.0264604)
(0.137528 0.027643 -0.0251353)
(0.182238 0.0469732 -0.0130811)
(0.206184 0.0623929 0.00605972)
(0.198388 0.0616213 0.0236915)
(0.156506 0.0328995 0.0362304)
(0.0931065 -0.0162822 0.0464983)
(0.0233569 -0.067636 0.0555297)
(-0.0420329 -0.107197 0.0612786)
(-0.0818574 -0.127509 0.061605)
(-0.126179 -0.146558 0.0224211)
(-0.131215 -0.131999 0.00286166)
(-0.123827 -0.110486 -0.0155946)
(-0.0931989 -0.0830424 -0.0324709)
(-0.0452766 -0.0527162 -0.046459)
(0.01379 -0.0231127 -0.0559703)
(0.0770976 0.00249583 -0.0594369)
(0.136935 0.0227377 -0.055189)
(0.186255 0.0398569 -0.0419037)
(0.218167 0.0557783 -0.021303)
(0.22137 0.0608927 -4.99874e-05)
(0.187206 0.0402472 0.0166753)
(0.123615 -0.00373903 0.028927)
(0.0477913 -0.0532385 0.0367203)
(-0.0255149 -0.0926851 0.0387711)
(-0.0732202 -0.114004 0.0347816)
(-0.126132 -0.116697 -0.0111386)
(-0.133941 -0.105661 -0.0342234)
(-0.127959 -0.0882471 -0.0551449)
(-0.0981589 -0.0657028 -0.0725734)
(-0.0507318 -0.0408358 -0.0853685)
(0.00815726 -0.0166517 -0.0926037)
(0.0718687 0.00431418 -0.0935848)
(0.132991 0.0210002 -0.0874749)
(0.184504 0.0353982 -0.0732911)
(0.220164 0.0508214 -0.0514984)
(0.230126 0.0613034 -0.0264033)
(0.202923 0.0510892 -0.00396923)
(0.141281 0.0164519 0.0123754)
(0.0620769 -0.0280088 0.0206892)
(-0.0167823 -0.0660155 0.0201162)
(-0.0698959 -0.0883894 0.0123537)
(-0.130945 -0.0791824 -0.0347737)
(-0.139527 -0.072502 -0.0608423)
(-0.133993 -0.0601004 -0.0843641)
(-0.104344 -0.0433813 -0.10327)
(-0.0571151 -0.0248664 -0.116403)
(0.00142993 -0.00691156 -0.123122)
(0.0647686 0.00875638 -0.123164)
(0.12571 0.0215549 -0.116086)
(0.177189 0.0334235 -0.10115)
(0.213004 0.0482694 -0.0782852)
(0.22497 0.0633046 -0.0500798)
(0.202096 0.0639395 -0.0223571)
(0.143549 0.0411056 -0.00131775)
(0.0640658 0.00420783 0.00876272)
(-0.017158 -0.0309976 0.00702373)
(-0.0724691 -0.054417 -0.00318762)
(-0.140036 -0.0386326 -0.0458563)
(-0.147034 -0.0369904 -0.0740144)
(-0.140678 -0.0301031 -0.10004)
(-0.110279 -0.0196043 -0.12122)
(-0.0628646 -0.00774222 -0.136105)
(-0.00487028 0.00375795 -0.143925)
(0.05723 0.0139627 -0.144426)
(0.116425 0.0229209 -0.137201)
(0.165696 0.032743 -0.12163)
(0.198724 0.0475401 -0.097548)
(0.208659 0.0666101 -0.0668813)
(0.186752 0.0772615 -0.0351346)
(0.131162 0.0668275 -0.00993664)
(0.0539961 0.0389467 0.00261203)
(-0.0264026 0.00748731 0.00131131)
(-0.0806234 -0.0168322 -0.0095527)
(-0.152186 7.05405e-05 -0.0422347)
(-0.155191 -0.00368236 -0.0716522)
(-0.146617 -0.00224219 -0.10015)
(-0.11442 0.00232598 -0.124463)
(-0.0662502 0.00793199 -0.142566)
(-0.00882998 0.01337 -0.153203)
(0.0513146 0.018435 -0.15568)
(0.107305 0.0238875 -0.14921)
(0.152303 0.0321927 -0.133099)
(0.18011 0.0475583 -0.107457)
(0.185023 0.0703321 -0.0745008)
(0.161101 0.0894538 -0.0397761)
(0.107489 0.0903425 -0.0112934)
(0.0341736 0.0715399 0.00410442)
(-0.0427715 0.0440131 0.00463253)
(-0.0930743 0.0189632 -0.00520083)
(-0.165327 0.0321755 -0.0223682)
(-0.162544 0.0231513 -0.052629)
(-0.150602 0.0198805 -0.0837923)
(-0.115637 0.019612 -0.112354)
(-0.0660695 0.0201692 -0.135416)
(-0.00906755 0.0206395 -0.15074)
(0.0486722 0.0214104 -0.156736)
(0.100322 0.0239634 -0.151913)
(0.139325 0.0312449 -0.135376)
(0.159949 0.0475021 -0.107794)
(0.157794 0.0733641 -0.0723858)
(0.129849 0.0988178 -0.0351798)
(0.0772334 0.108579 -0.00401378)
(0.00838081 0.0974687 0.0145243)
(-0.0633028 0.0735665 0.0182138)
(-0.107524 0.0479125 0.0106267)
(-0.176556 0.0536429 0.0137456)
(-0.167467 0.0401049 -0.0172662)
(-0.151717 0.0335086 -0.0513716)
(-0.113501 0.0302236 -0.0853321)
(-0.0620424 0.0277004 -0.115133)
(-0.00516322 0.0250207 -0.137071)
(0.0500552 0.0229329 -0.148127)
(0.096704 0.0235219 -0.145842)
(0.128521 0.0302171 -0.129067)
(0.140548 0.0471886 -0.0993352)
(0.130078 0.0748196 -0.0613365)
(0.0971825 0.103747 -0.0218462)
(0.0452157 0.118847 0.0117593)
(-0.0185634 0.112978 0.0337688)
(-0.0838047 0.0920405 0.0416495)
(-0.120946 0.0662275 0.0369477)
(-0.182578 0.0614963 0.062883)
(-0.168291 0.045166 0.0314552)
(-0.14932 0.0371921 -0.0053832)
(-0.10824 0.0332342 -0.0453033)
(-0.0548019 0.0301926 -0.0831265)
(0.00232662 0.026773 -0.113288)
(0.0553216 0.0237631 -0.13083)
(0.0969315 0.023634 -0.131946)
(0.121103 0.0301495 -0.115274)
(0.123842 0.0471387 -0.0835466)
(0.104608 0.0743025 -0.0432881)
(0.0666537 0.102874 -0.00207273)
(0.0156055 0.118998 0.0336554)
(-0.042294 0.115408 0.0592543)
(-0.100167 0.0964935 0.0720239)
(-0.130189 0.0714791 0.0706179)
(-0.181523 0.0535064 0.116751)
(-0.164237 0.0374409 0.0862877)
(-0.143476 0.0306214 0.0481347)
(-0.100762 0.0286465 0.00314549)
(-0.0457717 0.0279542 -0.0426299)
(0.0119748 0.0265718 -0.0815713)
(0.0635571 0.0249255 -0.106361)
(0.10098 0.0255893 -0.111537)
(0.118097 0.0323956 -0.0955126)
(0.111803 0.0483988 -0.0625191)
(0.0839698 0.0721837 -0.0211227)
(0.0412235 0.095708 0.020486)
(-0.00870016 0.107947 0.0572013)
(-0.0604786 0.103279 0.0856791)
(-0.110525 0.0853487 0.103261)
(-0.133832 0.0622641 0.105487)
(-0.174973 0.0274914 0.162408)
(-0.156635 0.0158863 0.135362)
(-0.135673 0.0133711 0.0989119)
(-0.0929198 0.0162843 0.0519369)
(-0.037132 0.0209097 0.000650808)
(0.021659 0.0244895 -0.0456262)
(0.0732597 0.026716 -0.07711)
(0.108532 0.0299206 -0.0864453)
(0.120732 0.0376796 -0.0717654)
(0.107062 0.0517362 -0.0389437)
(0.0714389 0.0692246 0.00147408)
(0.0238097 0.083184 0.0412785)
(-0.0258248 0.0866822 0.0769246)
(-0.0726604 0.0772529 0.106494)
(-0.115637 0.0586581 0.127573)
(-0.133018 0.0379991 0.133257)
(-0.166151 -0.0161884 0.18791)
(-0.147946 -0.0196405 0.166366)
(-0.128061 -0.0148902 0.135106)
(-0.0867906 -0.00436599 0.0907769)
(-0.0311932 0.00829897 0.0387158)
(0.0289981 0.0195153 -0.0110741)
(0.082557 0.0279393 -0.0468566)
(0.118971 0.0353581 -0.0594417)
(0.130319 0.0449865 -0.046561)
(0.112795 0.056937 -0.0155337)
(0.0710281 0.0664527 0.0214664)
(0.0180873 0.0679898 0.0567978)
(-0.0332989 0.0592167 0.0887882)
(-0.0779682 0.0415828 0.116847)
(-0.116293 0.019822 0.138943)
(-0.129491 0.00065397 0.147022)
(-0.155446 -0.0616454 0.18822)
(-0.138225 -0.0566978 0.172937)
(-0.120711 -0.0452717 0.149091)
(-0.0827834 -0.0275934 0.111716)
(-0.0291941 -0.00657796 0.0642932)
(0.0319239 0.0134597 0.0161931)
(0.0890924 0.0293815 -0.0200132)
(0.1303 0.0419853 -0.0337419)
(0.14609 0.0548489 -0.022104)
(0.13019 0.066765 0.00660439)
(0.0853068 0.0691155 0.0387264)
(0.0267651 0.0566384 0.0672042)
(-0.0289879 0.0330093 0.0926142)
(-0.0750419 0.00528751 0.115948)
(-0.111953 -0.0203842 0.135855)
(-0.123477 -0.0382676 0.14462)
(-0.161516 -0.0891635 0.22938)
(-0.13165 -0.061625 0.184435)
(-0.102277 -0.0287286 0.135489)
(-0.0563704 0.00591193 0.0792513)
(-0.00255712 0.0368356 0.0228671)
(0.0496806 0.0584578 -0.0227364)
(0.0913391 0.0682654 -0.0469784)
(0.11572 0.0687037 -0.0426354)
(0.119759 0.0643359 -0.00990366)
(0.10273 0.0558048 0.0399455)
(0.0661421 0.0382113 0.0897668)
(0.016781 0.0089699 0.129484)
(-0.0348208 -0.0262251 0.159798)
(-0.0811304 -0.0576025 0.182773)
(-0.119471 -0.0774736 0.197667)
(-0.130638 -0.0804516 0.19669)
(-0.140998 -0.10891 0.179857)
(-0.120769 -0.0784945 0.141897)
(-0.0972497 -0.0406093 0.101809)
(-0.0562202 0.000423042 0.0571546)
(-0.00508377 0.0386788 0.0129163)
(0.0475633 0.0677513 -0.0226583)
(0.0930399 0.0836861 -0.0407337)
(0.124295 0.0875258 -0.0345606)
(0.13725 0.0832612 -0.00346331)
(0.129051 0.0710311 0.0426128)
(0.0981482 0.0455224 0.0871798)
(0.0502849 0.00602762 0.120708)
(-0.00284779 -0.0382548 0.144209)
(-0.0522738 -0.0754875 0.160085)
(-0.0939157 -0.0976305 0.168137)
(-0.110427 -0.0997154 0.163885)
(-0.121814 -0.11919 0.125721)
(-0.109827 -0.0873541 0.0900769)
(-0.0913721 -0.0471162 0.0542012)
(-0.055262 -0.00332427 0.0173532)
(-0.00772828 0.0380139 -0.0167182)
(0.0439603 0.0705491 -0.0421049)
(0.0920409 0.0898422 -0.0525696)
(0.129508 0.0958884 -0.0431829)
(0.151721 0.0923619 -0.0129776)
(0.154552 0.0798704 0.0305428)
(0.133035 0.0525182 0.0727298)
(0.0892135 0.00870753 0.10381)
(0.0344803 -0.0413345 0.123812)
(-0.019932 -0.0835378 0.134678)
(-0.0671564 -0.108459 0.13657)
(-0.0906525 -0.111483 0.128035)
(-0.105808 -0.114777 0.0717635)
(-0.101056 -0.0839837 0.0352735)
(-0.0870654 -0.0445943 0.000619899)
(-0.0553099 -0.00163449 -0.031366)
(-0.0111805 0.0390536 -0.0577793)
(0.0391463 0.0714431 -0.0747499)
(0.0887884 0.0910571 -0.0785787)
(0.130968 0.0973589 -0.066312)
(0.160753 0.0939646 -0.0369212)
(0.173755 0.0827705 0.00510152)
(0.16282 0.057992 0.0479575)
(0.125176 0.0156266 0.0809121)
(0.0700692 -0.0352511 0.101105)
(0.0108408 -0.0793107 0.109035)
(-0.0424494 -0.105684 0.105326)
(-0.073101 -0.110131 0.0913945)
(-0.0949938 -0.0988306 0.0233456)
(-0.0961598 -0.0707275 -0.0158343)
(-0.0859893 -0.034596 -0.051162)
(-0.0578178 0.00451513 -0.0807031)
(-0.0165281 0.041178 -0.102228)
(0.0324236 0.0700866 -0.113461)
(0.0828301 0.0873795 -0.112615)
(0.128125 0.092451 -0.0982615)
(0.163004 0.0887388 -0.0695661)
(0.183163 0.0794625 -0.0285196)
(0.181243 0.0602243 0.016548)
(0.150749 0.0245967 0.0543024)
(0.0972476 -0.0219067 0.0778002)
(0.0349103 -0.064437 0.0849561)
(-0.0234134 -0.0910766 0.0768472)
(-0.0601056 -0.0970502 0.0573273)
(-0.0904094 -0.0746695 -0.0154584)
(-0.0957366 -0.0504679 -0.0578547)
(-0.0884837 -0.0194186 -0.0948387)
(-0.0630513 0.0135536 -0.123743)
(-0.0240605 0.0436387 -0.142796)
(0.0234694 0.0666205 -0.15079)
(0.0737881 0.0796746 -0.147125)
(0.120515 0.0825411 -0.131373)
(0.157965 0.078429 -0.102991)
(0.181711 0.0714176 -0.062565)
(0.185388 0.0591158 -0.0153928)
(0.161301 0.0337754 0.0276327)
(0.11128 -0.00388682 0.0559163)
(0.0483027 -0.0416363 0.0641418)
(-0.0129061 -0.0671811 0.0532531)
(-0.0533436 -0.0746185 0.0292156)
(-0.0920133 -0.0457712 -0.0417013)
(-0.0991715 -0.0263332 -0.0868881)
(-0.0935047 -0.00157 -0.125865)
(-0.0697405 0.0238416 -0.155392)
(-0.0324892 0.0458507 -0.173845)
(0.0134384 0.0614629 -0.180552)
(0.0626125 0.0690863 -0.175543)
(0.108895 0.0691282 -0.158889)
(0.146416 0.0647513 -0.130338)
(0.170505 0.0603657 -0.0900442)
(0.175961 0.0553109 -0.0415289)
(0.156011 0.0416866 0.00543759)
(0.110239 0.0157119 0.0381826)
(0.0492175 -0.0146489 0.048556)
(-0.0121713 -0.0375749 0.0368161)
(-0.0536348 -0.0463049 0.0102635)
(-0.0989973 -0.0160004 -0.0530236)
(-0.105135 -0.00177518 -0.100204)
(-0.099195 0.0162771 -0.141324)
(-0.0756513 0.0337036 -0.172542)
(-0.0393821 0.0472 -0.192016)
(0.00484727 0.0549649 -0.199125)
(0.0518528 0.0566813 -0.194032)
(0.0958012 0.0536272 -0.176929)
(0.130933 0.0491514 -0.147772)
(0.152535 0.0476872 -0.106894)
(0.156422 0.049595 -0.0573758)
(0.137739 0.0473996 -0.00810722)
(0.0955975 0.0339487 0.0278421)
(0.0381706 0.012493 0.0407212)
(-0.020971 -0.00683775 0.0298583)
(-0.0606963 -0.0165732 0.00306921)
(-0.110071 0.0106189 -0.0474292)