/*--------------------------------*- C++ -*----------------------------------*\
| =========                 |                                                 |
| \\      /  F ield         | OpenFOAM: The Open Source CFD Toolbox           |
|  \\    /   O peration     | Version:  3.0.0                                 |
|   \\  /    A nd           | Web:      www.OpenFOAM.org                      |
|    \\/     M anipulation  |                                                 |
\*---------------------------------------------------------------------------*/
FoamFile
{
    version     2.0;
    format      ascii;
    class       volScalarField;
    location    "9";
    object      k;
}
// * * * * * * * * * * * * * * * * * * * * * * * * * * * * * * * * * * * * * //

dimensions      [0 2 -2 0 0 0 0];

internalField   nonuniform List<scalar> 
400
(
1.45451e-06
3.11692e-06
1.20706e-05
0.000111813
0.000355485
0.00054759
0.000641998
0.000686499
0.000699649
0.000696579
0.000653795
0.000614215
0.000550854
0.000496639
0.000430015
0.000369285
0.000306015
0.000241756
0.000169789
0.000101408
5.09666e-06
1.91538e-05
6.99525e-05
0.000208349
0.000313842
0.000355684
0.000365175
0.000366529
0.000366502
0.000374545
0.000388588
0.0004168
0.000447626
0.000480782
0.000515698
0.000541703
0.000552597
0.000549896
0.000503751
0.000457328
1.5878e-05
7.46514e-05
0.000161832
0.000246103
0.000304187
0.000332444
0.000357704
0.000383537
0.000422006
0.000455443
0.000486524
0.000508477
0.000531845
0.00056112
0.000598793
0.000646529
0.000697294
0.000728815
0.000773092
0.000902223
4.34114e-05
0.000126676
0.000198304
0.000262394
0.000312549
0.000348279
0.000397249
0.000436047
0.000464338
0.000481851
0.00049846
0.000509642
0.000530301
0.000559275
0.000605694
0.000668083
0.000750041
0.000832979
0.000902903
0.00118552
7.70237e-05
0.000156679
0.000222192
0.000281531
0.000331352
0.000372524
0.000402668
0.000415955
0.000417017
0.000395058
0.000385139
0.000382653
0.00040343
0.000444417
0.000515089
0.000620868
0.000757884
0.000890568
0.00101535
0.0014026
0.000116932
0.000177309
0.000233986
0.000291999
0.000341767
0.000368319
0.000378349
0.000350735
0.000308542
0.000280271
0.000267518
0.000263917
0.000280164
0.000321444
0.000394643
0.000517061
0.000708445
0.000916675
0.00110064
0.00156351
0.000158323
0.000177238
0.000237935
0.000299596
0.000337984
0.000349396
0.000325763
0.000271873
0.000229384
0.000204554
0.000193161
0.000190325
0.000206403
0.00024336
0.000310997
0.00042773
0.000639721
0.00092367
0.00118512
0.00170016
0.000206678
0.000174712
0.000236306
0.000298636
0.000326646
0.000321597
0.000277024
0.00021902
0.000180838
0.000158531
0.000148257
0.000145707
0.000160166
0.000193482
0.000253762
0.000357684
0.000567628
0.000909563
0.0012636
0.00181191
0.000248957
0.000169681
0.000231763
0.000293245
0.000312345
0.000299293
0.000247091
0.000188861
0.000152852
0.000131565
0.000121743
0.000119513
0.00013285
0.000163562
0.000219079
0.000311873
0.000505284
0.000882195
0.00134163
0.00191703
0.000301541
0.000159025
0.000222212
0.000285442
0.000304933
0.000285645
0.000228858
0.000173008
0.000137449
0.000117403
0.000108674
0.000108179
0.000120485
0.000149223
0.000199874
0.000284193
0.000453948
0.000854976
0.00141821
0.00201432
0.000339095
0.000154944
0.000208706
0.000272884
0.000295741
0.000278675
0.000229517
0.000174844
0.000138671
0.000116804
0.000105088
0.000105704
0.000116586
0.000144134
0.00019184
0.000271073
0.000418931
0.000825584
0.00148985
0.00211741
0.000372136
0.000157681
0.000189519
0.000258526
0.000288151
0.000276785
0.000235498
0.00018336
0.000146423
0.000123345
0.000111196
0.000112078
0.00012067
0.000144839
0.000190469
0.000266093
0.000402365
0.000807158
0.00156088
0.00222782
0.000371135
0.000163521
0.000173324
0.000235346
0.000273997
0.000271375
0.000249538
0.000203069
0.000164639
0.000140438
0.000127936
0.000129713
0.000139208
0.000164144
0.000203899
0.000266228
0.000395689
0.000797425
0.00163359
0.00235967
0.000351358
0.000175869
0.000165668
0.000203007
0.000258102
0.000263217
0.000253421
0.00022874
0.000197608
0.000174926
0.000160866
0.000162263
0.000170379
0.000192633
0.000223348
0.000280442
0.000395349
0.000795922
0.00172814
0.00252101
0.000298256
0.000174305
0.000158565
0.000175061
0.000223018
0.000244743
0.000245511
0.000238353
0.000223057
0.000210616
0.000200503
0.000201976
0.000208537
0.00022366
0.000245549
0.000294955
0.000409867
0.000828881
0.00185834
0.00273605
0.000186069
0.000157703
0.000149476
0.000160867
0.000195066
0.000225317
0.000232823
0.000232108
0.000227775
0.000223679
0.000222539
0.000224295
0.000227668
0.000237216
0.000257456
0.000310865
0.000439887
0.000892255
0.00202786
0.00302279
5.60073e-05
0.000111484
0.000127518
0.000136261
0.000155046
0.000180908
0.000197379
0.00020427
0.000207891
0.00020971
0.000212161
0.00021783
0.000225519
0.000241819
0.000273628
0.000352693
0.000524353
0.001047
0.00231698
0.00343758
3.05488e-05
7.28845e-05
0.000104685
0.00012821
0.000149032
0.000171437
0.000185677
0.000196629
0.000201332
0.000209811
0.000217086
0.000232386
0.000250921
0.000293229
0.000365517
0.0005383
0.000800524
0.00145084
0.0028933
0.0040829
0.000148299
0.000309114
0.000374571
0.000406623
0.000429929
0.000468053
0.000496574
0.000551186
0.000591469
0.000672429
0.000735636
0.000859188
0.000969083
0.00116344
0.00133364
0.00173755
0.00214718
0.00298453
0.00454897
0.00527931
0.00307547
0.00593617
0.00681726
0.00680587
0.00671007
0.00660231
0.0065248
0.00651324
0.00651751
0.00654106
0.00656952
0.00663438
0.0066883
0.00677698
0.006882
0.00697141
0.0070632
0.00719467
0.00769447
0.0067184
)
;

boundaryField
{
    movingWall
    {
        type            kqRWallFunction;
        value           nonuniform List<scalar> 
20
(
0.00307547
0.00593617
0.00681726
0.00680587
0.00671007
0.00660231
0.0065248
0.00651324
0.00651751
0.00654106
0.00656952
0.00663438
0.0066883
0.00677698
0.006882
0.00697141
0.0070632
0.00719467
0.00769447
0.0067184
)
;
    }
    fixedWalls
    {
        type            kqRWallFunction;
        value           nonuniform List<scalar> 
60
(
1.45451e-06
5.09666e-06
1.5878e-05
4.34114e-05
7.70237e-05
0.000116932
0.000158323
0.000206678
0.000248957
0.000301541
0.000339095
0.000372136
0.000371135
0.000351358
0.000298256
0.000186069
5.60073e-05
3.05488e-05
0.000148299
0.00307547
0.000101408
0.000457328
0.000902223
0.00118552
0.0014026
0.00156351
0.00170016
0.00181191
0.00191703
0.00201432
0.00211741
0.00222782
0.00235967
0.00252101
0.00273605
0.00302279
0.00343758
0.0040829
0.00527931
0.0067184
1.45451e-06
3.11692e-06
1.20706e-05
0.000111813
0.000355485
0.00054759
0.000641998
0.000686499
0.000699649
0.000696579
0.000653795
0.000614215
0.000550854
0.000496639
0.000430015
0.000369285
0.000306015
0.000241756
0.000169789
0.000101408
)
;
    }
    frontAndBack
    {
        type            empty;
    }
}


// ************************************************************************* //
