/*--------------------------------*- C++ -*----------------------------------*\
| =========                 |                                                 |
| \\      /  F ield         | OpenFOAM: The Open Source CFD Toolbox           |
|  \\    /   O peration     | Version:  3.0.0                                 |
|   \\  /    A nd           | Web:      www.OpenFOAM.org                      |
|    \\/     M anipulation  |                                                 |
\*---------------------------------------------------------------------------*/
FoamFile
{
    version     2.0;
    format      ascii;
    class       volScalarField;
    location    "9";
    object      nut;
}
// * * * * * * * * * * * * * * * * * * * * * * * * * * * * * * * * * * * * * //

dimensions      [0 2 -1 0 0 0 0];

internalField   nonuniform List<scalar> 
400
(
1.13618e-08
2.43436e-08
9.41919e-08
8.6424e-07
2.68634e-06
4.06785e-06
4.73024e-06
5.03883e-06
5.12959e-06
5.1084e-06
4.81224e-06
4.53636e-06
4.09089e-06
3.70589e-06
3.22779e-06
2.78711e-06
2.32291e-06
1.84601e-06
1.3052e-06
7.84583e-07
3.9798e-08
3.7864e-07
9.30289e-07
2.4712e-06
3.72185e-06
4.87164e-06
5.83045e-06
7.03224e-06
8.27698e-06
9.64297e-06
1.07414e-05
1.18052e-05
1.22225e-05
1.22944e-05
1.21293e-05
1.1277e-05
9.84634e-06
7.9356e-06
5.39139e-06
3.42446e-06
1.23856e-07
1.4867e-06
2.78322e-06
4.21472e-06
6.40874e-06
9.06133e-06
1.19154e-05
1.50266e-05
1.80002e-05
2.02129e-05
2.18218e-05
2.23089e-05
2.19712e-05
2.13228e-05
1.99718e-05
1.81269e-05
1.54592e-05
1.19448e-05
8.41131e-06
6.50338e-06
3.37736e-07
2.64476e-06
4.18752e-06
6.45164e-06
1.07681e-05
1.50455e-05
2.08158e-05
2.56795e-05
2.97237e-05
3.23558e-05
3.41897e-05
3.5083e-05
3.46905e-05
3.35428e-05
3.11975e-05
2.76777e-05
2.29644e-05
1.71341e-05
1.08626e-05
8.35262e-06
5.97311e-07
3.61917e-06
5.77263e-06
9.64818e-06
1.61312e-05
2.23634e-05
2.93338e-05
3.40704e-05
3.83695e-05
3.88545e-05
3.91871e-05
3.9267e-05
3.91872e-05
3.86263e-05
3.73917e-05
3.47928e-05
2.99091e-05
2.22773e-05
1.3558e-05
9.71733e-06
9.03362e-07
4.52738e-06
7.37533e-06
1.31189e-05
2.1537e-05
2.85715e-05
3.62531e-05
3.88229e-05
3.98959e-05
3.96361e-05
3.96918e-05
3.97081e-05
3.98279e-05
4.02021e-05
4.01187e-05
3.90149e-05
3.55817e-05
2.74861e-05
1.63596e-05
1.07018e-05
1.21837e-06
4.97616e-06
8.79362e-06
1.64434e-05
2.58302e-05
3.31134e-05
3.92383e-05
3.90314e-05
3.92972e-05
3.8669e-05
3.83583e-05
3.82321e-05
3.84641e-05
3.93902e-05
4.02305e-05
4.03083e-05
3.87644e-05
3.21249e-05
1.93245e-05
1.15207e-05
1.58331e-06
5.26056e-06
9.96278e-06
1.90744e-05
2.87808e-05
3.56375e-05
3.99314e-05
3.85746e-05
3.84499e-05
3.75203e-05
3.70216e-05
3.68507e-05
3.73907e-05
3.87971e-05
4.02919e-05
4.09329e-05
4.05116e-05
3.56148e-05
2.25078e-05
1.21792e-05
1.89974e-06
5.3985e-06
1.07352e-05
2.0475e-05
2.99079e-05
3.663e-05
4.00532e-05
3.81569e-05
3.7613e-05
3.62765e-05
3.54408e-05
3.51471e-05
3.58951e-05
3.76096e-05
3.95492e-05
4.06163e-05
4.08948e-05
3.7863e-05
2.54047e-05
1.27898e-05
2.2899e-06
5.21108e-06
1.10376e-05
2.12155e-05
3.08529e-05
3.73829e-05
3.97517e-05
3.81002e-05
3.69186e-05
3.54581e-05
3.45469e-05
3.42764e-05
3.51632e-05
3.70754e-05
3.9118e-05
4.02291e-05
4.05174e-05
3.93418e-05
2.86348e-05
1.33476e-05
2.56628e-06
4.84713e-06
1.07012e-05
2.04046e-05
2.98514e-05
3.63827e-05
3.95594e-05
3.82495e-05
3.69655e-05
3.54301e-05
3.42211e-05
3.41227e-05
3.49292e-05
3.68587e-05
3.88455e-05
3.98936e-05
3.93927e-05
3.95675e-05
3.1112e-05
1.3931e-05
2.80792e-06
4.35228e-06
9.56701e-06
1.90568e-05
2.85103e-05
3.52931e-05
3.91195e-05
3.84826e-05
3.727e-05
3.5891e-05
3.47478e-05
3.4743e-05
3.53473e-05
3.69582e-05
3.87484e-05
3.96349e-05
3.86136e-05
3.94316e-05
3.3521e-05
1.45475e-05
2.80063e-06
3.78946e-06
8.26551e-06
1.66832e-05
2.58021e-05
3.26601e-05
3.81881e-05
3.87219e-05
3.77364e-05
3.68237e-05
3.60209e-05
3.61323e-05
3.66673e-05
3.79219e-05
3.86911e-05
3.83714e-05
3.80291e-05
3.91555e-05
3.53288e-05
1.52729e-05
2.65614e-06
3.25486e-06
6.91914e-06
1.33127e-05
2.26807e-05
2.92199e-05
3.49265e-05
3.83137e-05
3.88622e-05
3.86708e-05
3.80334e-05
3.79861e-05
3.80524e-05
3.85876e-05
3.81274e-05
3.72432e-05
3.59115e-05
3.77599e-05
3.58081e-05
1.6145e-05
2.26563e-06
2.73524e-06
5.49328e-06
9.9299e-06
1.72799e-05
2.38667e-05
2.89856e-05
3.31663e-05
3.5536e-05
3.68609e-05
3.7462e-05
3.75598e-05
3.75977e-05
3.73243e-05
3.61123e-05
3.48526e-05
3.42113e-05
3.69248e-05
3.67048e-05
1.7282e-05
1.42817e-06
2.13369e-06
4.04466e-06
7.55542e-06
1.29051e-05
1.89496e-05
2.3644e-05
2.72918e-05
3.00161e-05
3.15443e-05
3.30949e-05
3.32634e-05
3.30596e-05
3.25401e-05
3.17307e-05
3.13194e-05
3.18855e-05
3.53995e-05
3.66916e-05
1.87558e-05
4.35203e-07
1.53531e-06
2.8584e-06
4.70059e-06
7.60817e-06
1.15926e-05
1.55211e-05
1.87184e-05
2.15678e-05
2.33037e-05
2.49162e-05
2.55337e-05
2.59175e-05
2.62649e-05
2.66707e-05
2.79839e-05
3.03058e-05
3.44156e-05
3.68311e-05
2.08089e-05
2.3796e-07
1.14522e-06
2.30357e-06
3.81344e-06
5.73992e-06
8.1536e-06
1.05259e-05
1.27225e-05
1.45772e-05
1.62073e-05
1.76127e-05
1.87667e-05
1.97643e-05
2.15158e-05
2.36423e-05
2.73882e-05
3.06869e-05
3.39161e-05
3.68593e-05
2.38372e-05
1.1423e-06
5.81867e-06
7.70295e-06
9.38e-06
1.11567e-05
1.33695e-05
1.5333e-05
1.77753e-05
1.93783e-05
2.18147e-05
2.32782e-05
2.56886e-05
2.7329e-05
2.96515e-05
3.12818e-05
3.40196e-05
3.50538e-05
3.49212e-05
3.79025e-05
2.90029e-05
1.90216e-05
3.16322e-05
3.49658e-05
3.49239e-05
3.45708e-05
3.41709e-05
3.38815e-05
3.38381e-05
3.38542e-05
3.39423e-05
3.40487e-05
3.42903e-05
3.44902e-05
3.48176e-05
3.52027e-05
3.55284e-05
3.58609e-05
3.63335e-05
3.80949e-05
3.46017e-05
)
;

boundaryField
{
    movingWall
    {
        type            nutkWallFunction;
        Cmu             0.09;
        kappa           0.41;
        E               9.8;
        value           nonuniform List<scalar> 
20
(
0
0
0
0
0
0
0
0
0
0
0
0
0
0
0
0
0
5.77781e-08
3.28012e-07
0
)
;
    }
    fixedWalls
    {
        type            nutkWallFunction;
        Cmu             0.09;
        kappa           0.41;
        E               9.8;
        value           uniform 0;
    }
    frontAndBack
    {
        type            empty;
    }
}


// ************************************************************************* //
