/*--------------------------------*- C++ -*----------------------------------*\
| =========                 |                                                 |
| \\      /  F ield         | OpenFOAM: The Open Source CFD Toolbox           |
|  \\    /   O peration     | Version:  3.0.0                                 |
|   \\  /    A nd           | Web:      www.OpenFOAM.org                      |
|    \\/     M anipulation  |                                                 |
\*---------------------------------------------------------------------------*/
FoamFile
{
    version     2.0;
    format      ascii;
    class       volScalarField;
    location    "9";
    object      omega;
}
// * * * * * * * * * * * * * * * * * * * * * * * * * * * * * * * * * * * * * //

dimensions      [0 0 -1 0 0 0 0];

internalField   nonuniform List<scalar> 
400
(
128.018
128.039
128.149
129.377
132.33
134.614
135.722
136.242
136.395
136.359
135.861
135.398
134.654
134.013
133.223
132.497
131.738
130.962
130.087
129.251
128.063
50.5857
75.1944
84.3107
84.3241
73.0112
62.6324
52.1212
44.2797
38.8412
36.1766
35.3064
36.6232
39.1057
42.5166
48.0359
56.122
69.2949
93.4362
133.547
128.197
50.2127
58.1454
58.3914
47.4644
36.6882
30.0202
25.5238
23.4445
22.5323
22.2953
22.7926
24.2064
26.3155
29.982
35.6669
45.1054
61.0152
91.911
138.731
128.537
47.8968
47.356
40.6709
29.0254
23.1484
19.084
16.9804
15.6218
14.8923
14.5793
14.5267
15.2867
16.6734
19.4148
24.1379
32.661
48.6152
83.1203
141.934
128.951
43.2914
38.4906
29.1797
20.5411
16.6578
13.7271
12.2087
10.8684
10.1676
9.82822
9.7449
10.2949
11.5056
13.7755
17.8447
25.3396
39.9764
74.8893
144.34
129.441
39.1636
31.7255
22.2579
15.8688
12.8911
10.4363
9.03425
7.73368
7.07111
6.73988
6.64644
7.03435
7.9957
9.83689
13.2529
19.9104
33.3505
67.278
146.098
129.947
35.6174
27.0577
18.2199
13.0849
10.5515
8.30216
6.96548
5.83716
5.28988
5.0357
4.97813
5.36612
6.17817
7.73038
10.6114
16.5028
28.7525
61.3276
147.574
130.536
33.2118
23.7188
15.6564
11.3494
9.02414
6.93751
5.67782
4.70322
4.22522
4.00462
3.95397
4.28356
4.98702
6.29808
8.73831
14.0115
25.5389
56.1404
148.77
131.048
31.4311
21.5891
14.3221
10.4435
8.17069
6.16907
4.94958
4.0638
3.62673
3.43512
3.40037
3.70106
4.34893
5.53941
7.6785
12.3557
23.2996
52.8104
149.887
131.683
30.5167
20.1323
13.4544
9.88344
7.64106
5.75719
4.54085
3.72305
3.31104
3.1457
3.15607
3.42645
4.02484
5.10952
7.06437
11.2038
21.732
49.5274
150.913
132.135
31.9661
19.5031
13.3736
9.90711
7.65953
5.80184
4.57114
3.75138
3.29673
3.07086
3.09776
3.3378
3.91045
4.93854
6.7949
10.6347
20.8652
47.8867
151.993
132.531
36.2294
19.8096
13.5661
10.1069
7.84247
6.01997
4.76475
3.9287
3.43667
3.20008
3.22592
3.41383
3.919
4.91553
6.71359
10.4203
20.4698
46.5642
153.141
132.519
43.1515
20.9695
14.1068
10.6192
8.30907
6.53443
5.24429
4.36288
3.81379
3.55173
3.58994
3.7965
4.32846
5.26992
6.93818
10.4049
20.3656
46.2398
154.501
132.282
54.0327
23.9434
15.2492
11.3798
9.00811
7.25583
5.97017
5.08483
4.52346
4.2296
4.27165
4.47748
4.9921
5.85795
7.53
11.009
21.0785
48.2613
156.148
131.644
63.7258
28.8652
17.6296
12.9062
10.2546
8.47012
7.18661
6.27693
5.7138
5.35218
5.37745
5.54653
5.99233
6.7996
8.46291
11.9805
22.4478
50.6292
158.318
130.285
73.9112
36.9563
21.2916
15.1154
11.8903
9.84701
8.50469
7.58842
7.09095
6.72425
6.74301
6.88659
7.28996
8.11378
9.92562
13.7958
25.2053
55.2678
161.166
128.692
72.6132
44.6116
28.9881
20.3789
15.6055
12.7168
10.9128
9.63892
8.99901
8.51497
8.53106
8.70141
9.20693
10.2595
12.6034
17.3021
30.4223
62.9081
165.198
128.378
63.6425
45.4445
33.6205
25.9641
21.0259
17.64
15.4552
13.8114
12.9454
12.3255
12.3829
12.6957
13.6285
15.4603
19.6545
26.0869
42.7774
78.4956
171.283
129.825
53.1245
48.627
43.35
38.5354
35.009
32.3859
31.0085
30.5223
30.8247
31.6019
33.4463
35.4599
39.2372
42.6331
51.0751
61.2538
85.4647
120.018
182.027
161.683
187.662
194.969
194.877
194.097
193.214
192.577
192.482
192.517
192.711
192.945
193.477
193.919
194.642
195.496
196.221
196.961
198.017
201.982
194.164
)
;

boundaryField
{
    movingWall
    {
        Cmu             0.09;
        kappa           0.41;
        E               9.8;
        beta1           0.075;
        type            omegaWallFunction;
        value           nonuniform List<scalar> 
20
(
161.683
187.662
194.969
194.877
194.097
193.214
192.577
192.482
192.517
192.711
192.945
193.477
193.919
194.642
195.496
196.221
196.961
198.017
201.982
194.164
)
;
    }
    fixedWalls
    {
        Cmu             0.09;
        kappa           0.41;
        E               9.8;
        beta1           0.075;
        type            omegaWallFunction;
        value           nonuniform List<scalar> 
60
(
128.018
128.063
128.197
128.537
128.951
129.441
129.947
130.536
131.048
131.683
132.135
132.531
132.519
132.282
131.644
130.285
128.692
128.378
129.825
161.683
129.251
133.547
138.731
141.934
144.34
146.098
147.574
148.77
149.887
150.913
151.993
153.141
154.501
156.148
158.318
161.166
165.198
171.283
182.027
194.164
128.018
128.039
128.149
129.377
132.33
134.614
135.722
136.242
136.395
136.359
135.861
135.398
134.654
134.013
133.223
132.497
131.738
130.962
130.087
129.251
)
;
    }
    frontAndBack
    {
        type            empty;
    }
}


// ************************************************************************* //
