/*--------------------------------*- C++ -*----------------------------------*\
| =========                 |                                                 |
| \\      /  F ield         | OpenFOAM: The Open Source CFD Toolbox           |
|  \\    /   O peration     | Version:  3.0.0                                 |
|   \\  /    A nd           | Web:      www.OpenFOAM.org                      |
|    \\/     M anipulation  |                                                 |
\*---------------------------------------------------------------------------*/
FoamFile
{
    version     2.0;
    format      ascii;
    class       volScalarField;
    location    "9";
    object      p;
}
// * * * * * * * * * * * * * * * * * * * * * * * * * * * * * * * * * * * * * //

dimensions      [0 2 -2 0 0 0 0];

internalField   nonuniform List<scalar> 
400
(
5.13969e-08
-0.000102018
-0.000223788
-0.000210089
-0.00069643
-0.00216464
-0.004247
-0.00633232
-0.00805455
-0.00923274
-0.00976522
-0.00953553
-0.00849632
-0.00663337
-0.00394231
-0.000552616
0.00321535
0.00661981
0.0087499
0.00924006
1.05874e-05
-7.40512e-05
-0.000177065
-0.000649396
-0.0017577
-0.00351
-0.0055115
-0.00742985
-0.00903845
-0.0101432
-0.0106333
-0.0104468
-0.00954527
-0.00786885
-0.00542044
-0.00226171
0.0013381
0.00482177
0.00734338
0.00858287
0.000299213
-2.34848e-05
-0.00065212
-0.00180968
-0.00353129
-0.00553522
-0.00752754
-0.0093529
-0.0108272
-0.0117773
-0.0121645
-0.011957
-0.0111357
-0.00968754
-0.00761123
-0.00493745
-0.0017843
0.00156872
0.00453177
0.00631839
0.00031893
-0.000324422
-0.00161086
-0.00348702
-0.00566312
-0.00781804
-0.00976368
-0.0113644
-0.0125382
-0.0132768
-0.0135602
-0.0133646
-0.0126691
-0.0114656
-0.00975955
-0.00757496
-0.00495271
-0.00199017
0.000913059
0.00280387
-0.000370529
-0.00129008
-0.00308986
-0.00542073
-0.00777917
-0.00988998
-0.0116528
-0.0130224
-0.0139985
-0.0145956
-0.0148096
-0.0146283
-0.0140399
-0.0130426
-0.0116492
-0.00988457
-0.00776961
-0.00531558
-0.00276474
-0.00100849
-0.00180052
-0.00286293
-0.00491706
-0.0073395
-0.00964691
-0.0115999
-0.0131655
-0.0143533
-0.0151947
-0.0156998
-0.0158737
-0.0157123
-0.0152134
-0.0143812
-0.013233
-0.0117968
-0.010101
-0.00813518
-0.00615576
-0.00453759
-0.00363512
-0.00473316
-0.00677434
-0.00906597
-0.0111983
-0.012956
-0.0143476
-0.0153969
-0.0161386
-0.0165816
-0.0167347
-0.0165981
-0.0161744
-0.0154718
-0.0145109
-0.0133205
-0.0119532
-0.0103867
-0.00889416
-0.00750869
-0.00544899
-0.00646364
-0.00835964
-0.0104743
-0.0124046
-0.0139798
-0.0152302
-0.0161744
-0.0168423
-0.0172428
-0.0173853
-0.0172723
-0.0169085
-0.0163042
-0.0154827
-0.0144689
-0.013347
-0.0120798
-0.0109614
-0.00978995
-0.00686866
-0.00779973
-0.00953316
-0.0114883
-0.0132463
-0.0146785
-0.0158249
-0.0166946
-0.0173115
-0.0176837
-0.0178204
-0.0177253
-0.0174042
-0.0168678
-0.0161425
-0.0152417
-0.0142965
-0.0132034
-0.0123725
-0.0113702
-0.00776325
-0.00859994
-0.0102086
-0.0120568
-0.013699
-0.0150448
-0.0161314
-0.0169596
-0.0175485
-0.0179053
-0.0180388
-0.0179537
-0.017657
-0.0171578
-0.0164864
-0.0156325
-0.0148292
-0.0137573
-0.0132045
-0.0122347
-0.00805702
-0.00884138
-0.0103672
-0.0121655
-0.013759
-0.0150802
-0.0161507
-0.0169707
-0.0175546
-0.017909
-0.0180418
-0.0179577
-0.0176654
-0.0171714
-0.016511
-0.0156442
-0.0149466
-0.0137473
-0.0134906
-0.0123944
-0.00775006
-0.00853156
-0.0100142
-0.0118123
-0.013424
-0.0147769
-0.0158767
-0.0167244
-0.0173292
-0.017696
-0.0178314
-0.0177393
-0.0174301
-0.0169096
-0.0162108
-0.015327
-0.0145531
-0.0132916
-0.0132447
-0.011862
-0.00693776
-0.00776626
-0.00923978
-0.0110279
-0.0127102
-0.0141366
-0.0153062
-0.0162172
-0.0168709
-0.017267
-0.0174102
-0.0173022
-0.0169557
-0.0163749
-0.0156002
-0.0146404
-0.013713
-0.0124422
-0.0123965
-0.0107313
-0.00588343
-0.00671502
-0.00813593
-0.0098449
-0.0115996
-0.0131355
-0.0144214
-0.015439
-0.0161758
-0.0166231
-0.0167834
-0.0166552
-0.0162536
-0.0155813
-0.0146881
-0.0135859
-0.0124739
-0.0111585
-0.0109966
-0.0091222
-0.00486106
-0.00560519
-0.00684289
-0.00836938
-0.0101032
-0.0117624
-0.0132125
-0.014385
-0.0152449
-0.0157714
-0.0159649
-0.0158193
-0.0153508
-0.0145604
-0.0135061
-0.0122029
-0.0108713
-0.00942437
-0.00909533
-0.00704536
-0.0042399
-0.0046321
-0.00542504
-0.00663078
-0.00824849
-0.0100185
-0.0116734
-0.0130528
-0.0140842
-0.0147275
-0.0149799
-0.0148306
-0.0142989
-0.0133777
-0.0121299
-0.010576
-0.00895905
-0.00724849
-0.00665747
-0.00420683
-0.0041364
-0.0039747
-0.00400485
-0.00472297
-0.0061478
-0.00798573
-0.00985172
-0.0114761
-0.0127307
-0.0135436
-0.0139028
-0.0137887
-0.0132113
-0.0121627
-0.0107051
-0.00885363
-0.00684122
-0.00465086
-0.00340421
0.000558542
-0.0037194
-0.00326922
-0.00253805
-0.00275685
-0.00399847
-0.00588762
-0.0079282
-0.0097603
-0.0112329
-0.0122379
-0.0127345
-0.0126898
-0.0121216
-0.0110124
-0.00938281
-0.0072229
-0.00466819
-0.00160516
0.00131719
0.00947057
-0.00437847
-0.00284991
-0.00136349
-0.00123017
-0.00238252
-0.00429746
-0.00645624
-0.00846152
-0.0101048
-0.0112648
-0.0118809
-0.0119322
-0.0113987
-0.0102519
-0.00846709
-0.00594967
-0.00261276
0.00206013
0.00833632
0.0231454
-0.00222766
0.000799336
0.000851099
9.0114e-05
-0.00131556
-0.00328174
-0.0055032
-0.00763973
-0.00939589
-0.0106463
-0.0113133
-0.0113881
-0.0108342
-0.00966011
-0.00773888
-0.00491902
-0.000339071
0.00682809
0.0178917
0.0358019
)
;

boundaryField
{
    movingWall
    {
        type            zeroGradient;
    }
    fixedWalls
    {
        type            zeroGradient;
    }
    frontAndBack
    {
        type            empty;
    }
}


// ************************************************************************* //
