/*--------------------------------*- C++ -*----------------------------------*\
| =========                 |                                                 |
| \\      /  F ield         | OpenFOAM: The Open Source CFD Toolbox           |
|  \\    /   O peration     | Version:  3.0.0                                 |
|   \\  /    A nd           | Web:      www.OpenFOAM.org                      |
|    \\/     M anipulation  |                                                 |
\*---------------------------------------------------------------------------*/
FoamFile
{
    version     2.0;
    format      ascii;
    class       surfaceScalarField;
    location    "9";
    object      phi;
}
// * * * * * * * * * * * * * * * * * * * * * * * * * * * * * * * * * * * * * //

dimensions      [0 3 -1 0 0 0 0];

internalField   nonuniform List<scalar> 
760
(
2.83861e-07
-2.83866e-07
1.95065e-07
8.87958e-08
-3.70107e-07
5.65171e-07
-1.66113e-06
1.29102e-06
-3.3896e-06
1.72847e-06
-4.97297e-06
1.58338e-06
-6.29743e-06
1.32446e-06
-7.33197e-06
1.03454e-06
-8.06845e-06
7.36472e-07
-8.56824e-06
4.99794e-07
-8.82012e-06
2.51883e-07
-8.86356e-06
4.3434e-08
-8.65863e-06
-2.04924e-07
-8.23881e-06
-4.1982e-07
-7.50294e-06
-7.35869e-07
-6.44028e-06
-1.06267e-06
-4.95463e-06
-1.48564e-06
-3.1123e-06
-1.84233e-06
-1.13732e-06
-1.97498e-06
-1.13732e-06
-1.68489e-07
-1.15377e-07
-9.99362e-07
9.1967e-07
-2.56118e-06
2.12698e-06
-4.32797e-06
3.05781e-06
-5.6341e-06
3.0346e-06
-6.73064e-06
2.67992e-06
-7.61538e-06
2.2092e-06
-8.28904e-06
1.7082e-06
-8.79508e-06
1.24251e-06
-9.09466e-06
7.99374e-07
-9.20649e-06
3.63716e-07
-9.10482e-06
-5.82409e-08
-8.86897e-06
-4.4077e-07
-8.42192e-06
-8.6687e-07
-7.77521e-06
-1.38258e-06
-6.84551e-06
-1.99236e-06
-5.59305e-06
-2.73811e-06
-3.90916e-06
-3.52622e-06
-1.89695e-06
-3.98719e-06
-3.03427e-06
-9.26255e-07
8.10878e-07
-2.38022e-06
2.37363e-06
-3.94888e-06
3.69565e-06
-5.12451e-06
4.23344e-06
-6.01535e-06
3.92544e-06
-6.7319e-06
3.39647e-06
-7.24363e-06
2.72093e-06
-7.57081e-06
2.03538e-06
-7.7466e-06
1.41831e-06
-7.78472e-06
8.3749e-07
-7.74471e-06
3.23707e-07
-7.62759e-06
-1.75363e-07
-7.39754e-06
-6.70819e-07
-7.03962e-06
-1.22479e-06
-6.55211e-06
-1.8701e-06
-5.88333e-06
-2.66114e-06
-4.98693e-06
-3.63451e-06
-3.75437e-06
-4.75878e-06
-2.10439e-06
-5.63717e-06
-5.13866e-06
-1.30187e-06
2.11274e-06
-2.83658e-06
3.90834e-06
-4.09973e-06
4.95881e-06
-4.92516e-06
5.05887e-06
-5.49241e-06
4.49269e-06
-5.84535e-06
3.74941e-06
-6.03181e-06
2.90738e-06
-6.14072e-06
2.14429e-06
-6.19221e-06
1.4698e-06
-6.20741e-06
8.52685e-07
-6.15832e-06
2.74621e-07
-6.04055e-06
-2.93135e-07
-5.83534e-06
-8.76026e-07
-5.54113e-06
-1.519e-06
-5.15048e-06
-2.26075e-06
-4.65483e-06
-3.15679e-06
-4.02399e-06
-4.26535e-06
-3.14953e-06
-5.63324e-06
-1.8259e-06
-6.9608e-06
-6.96456e-06
-1.37624e-06
3.48899e-06
-2.68795e-06
5.22005e-06
-3.608e-06
5.87885e-06
-4.18509e-06
5.63596e-06
-4.51245e-06
4.82005e-06
-4.68483e-06
3.92178e-06
-4.78935e-06
3.01191e-06
-4.86475e-06
2.2197e-06
-4.89582e-06
1.50086e-06
-4.8879e-06
8.44773e-07
-4.82889e-06
2.15605e-07
-4.71231e-06
-4.09708e-07
-4.5279e-06
-1.06044e-06
-4.27487e-06
-1.77203e-06
-3.95187e-06
-2.58375e-06
-3.56097e-06
-3.54769e-06
-3.09275e-06
-4.73357e-06
-2.46939e-06
-6.25659e-06
-1.49938e-06
-7.93081e-06
-8.46395e-06
-1.179e-06
4.66799e-06
-2.19988e-06
6.24093e-06
-2.88338e-06
6.56235e-06
-3.28548e-06
6.03806e-06
-3.50222e-06
5.0368e-06
-3.62267e-06
4.04224e-06
-3.70453e-06
3.09376e-06
-3.75986e-06
2.27503e-06
-3.78369e-06
1.52468e-06
-3.77118e-06
8.32262e-07
-3.71711e-06
1.61543e-07
-3.61529e-06
-5.11535e-07
-3.45915e-06
-1.21658e-06
-3.24709e-06
-1.98409e-06
-2.98194e-06
-2.8489e-06
-2.67127e-06
-3.85836e-06
-2.33273e-06
-5.07211e-06
-1.91208e-06
-6.67724e-06
-1.16927e-06
-8.67363e-06
-9.63321e-06
-9.13204e-07
5.58119e-06
-1.63062e-06
6.95835e-06
-2.12362e-06
7.05535e-06
-2.40889e-06
6.32333e-06
-2.57217e-06
5.20008e-06
-2.67081e-06
4.14088e-06
-2.74293e-06
3.16588e-06
-2.78979e-06
2.32189e-06
-2.81193e-06
1.54682e-06
-2.80489e-06
8.25225e-07
-2.76508e-06
1.21735e-07
-2.68753e-06
-5.89085e-07
-2.56709e-06
-1.33702e-06
-2.40116e-06
-2.15002e-06
-2.19341e-06
-3.05665e-06
-1.9493e-06
-4.10247e-06
-1.68607e-06
-5.33534e-06
-1.38137e-06
-6.98194e-06
-9.37758e-07
-9.11724e-06
-1.0571e-05
-5.69322e-07
6.15051e-06
-1.0625e-06
7.45152e-06
-1.41416e-06
7.40702e-06
-1.61114e-06
6.52031e-06
-1.73432e-06
5.32325e-06
-1.81576e-06
4.22232e-06
-1.87938e-06
3.2295e-06
-1.92109e-06
2.36361e-06
-1.94334e-06
1.56907e-06
-1.94365e-06
8.25536e-07
-1.92048e-06
9.856e-08
-1.87043e-06
-6.39127e-07
-1.7902e-06
-1.41726e-06
-1.67633e-06
-2.26388e-06
-1.5316e-06
-3.20139e-06
-1.36179e-06
-4.27228e-06
-1.18311e-06
-5.51402e-06
-9.81257e-07
-7.18379e-06
-6.89292e-07
-9.4092e-06
-1.12603e-05
-2.97468e-07
6.44798e-06
-5.65721e-07
7.71977e-06
-7.59813e-07
7.60111e-06
-8.83202e-07
6.6437e-06
-9.72098e-07
5.41214e-06
-1.03665e-06
4.28687e-06
-1.08965e-06
3.2825e-06
-1.12553e-06
2.39949e-06
-1.14753e-06
1.59107e-06
-1.15505e-06
8.3305e-07
-1.14841e-06
9.19235e-08
-1.12608e-06
-6.61455e-07
-1.08682e-06
-1.45651e-06
-1.02689e-06
-2.32381e-06
-9.46778e-07
-3.2815e-06
-8.46962e-07
-4.3721e-06
-7.56316e-07
-5.60466e-06
-6.57431e-07
-7.28268e-06
-5.36737e-07
-9.5299e-06
-1.1797e-05
7.99889e-09
6.43998e-06
-9.44584e-08
7.82223e-06
-1.63809e-07
7.67046e-06
-2.18944e-07
6.69883e-06
-2.67078e-07
5.46028e-06
-3.10564e-07
4.33036e-06
-3.4848e-07
3.32041e-06
-3.76636e-07
2.42764e-06
-3.97519e-07
1.61195e-06
-4.11943e-07
8.47475e-07
-4.21624e-07
1.01604e-07
-4.26435e-07
-6.56644e-07
-4.27008e-07
-1.45594e-06
-4.20656e-07
-2.33016e-06
-4.09187e-07
-3.29297e-06
-3.87782e-07
-4.3935e-06
-3.99729e-07
-5.59271e-06
-3.9641e-07
-7.28599e-06
-3.76061e-07
-9.55025e-06
-1.21731e-05
2.5988e-07
6.1801e-06
3.73159e-07
7.70895e-06
4.49486e-07
7.59414e-06
4.38738e-07
6.70958e-06
4.19467e-07
5.47955e-06
3.96419e-07
4.35341e-06
3.72946e-07
3.34389e-06
3.5283e-07
2.44776e-06
3.33063e-07
1.63172e-06
3.11769e-07
8.68769e-07
2.85874e-07
1.27499e-07
2.54226e-07
-6.24996e-07
2.15203e-07
-1.41692e-06
1.67691e-07
-2.28265e-06
1.17938e-07
-3.24322e-06
1.83963e-08
-4.29396e-06
-1.47113e-08
-5.55961e-06
-1.72323e-07
-7.12838e-06
-2.78615e-07
-9.44396e-06
-1.24517e-05
5.32211e-07
5.64789e-06
8.44299e-07
7.39686e-06
1.04002e-06
7.39841e-06
1.07916e-06
6.67045e-06
1.09097e-06
5.46774e-06
1.09447e-06
4.34991e-06
1.09275e-06
3.34561e-06
1.08633e-06
2.45417e-06
1.07111e-06
1.64694e-06
1.04466e-06
8.95219e-07
1.0027e-06
1.6946e-07
9.43417e-07
-5.65709e-07
8.62833e-07
-1.33633e-06
7.61264e-07
-2.18108e-06
6.26466e-07
-3.10842e-06
4.85661e-07
-4.15316e-06
2.79671e-07
-5.35362e-06
6.43277e-09
-6.85514e-06
-1.33913e-07
-9.30361e-06
-1.25856e-05
7.82536e-07
4.86536e-06
1.26681e-06
6.91258e-06
1.60618e-06
7.05905e-06
1.74948e-06
6.52715e-06
1.80413e-06
5.41309e-06
1.83886e-06
4.31517e-06
1.85898e-06
3.32549e-06
1.86515e-06
2.448e-06
1.85342e-06
1.65868e-06
1.82094e-06
9.27694e-07
1.76184e-06
2.28562e-07
1.67343e-06
-4.77305e-07
1.54951e-06
-1.21242e-06
1.3877e-06
-2.01926e-06
1.18036e-06
-2.90109e-06
9.46109e-07
-3.9189e-06
6.15161e-07
-5.02267e-06
2.84625e-07
-6.52461e-06
2.2294e-08
-9.04128e-06
-1.25633e-05
1.03914e-06
3.82622e-06
1.70873e-06
6.24299e-06
2.13946e-06
6.62832e-06
2.39386e-06
6.27275e-06
2.51398e-06
5.29298e-06
2.59878e-06
4.23037e-06
2.65755e-06
3.26672e-06
2.69069e-06
2.41486e-06
2.69368e-06
1.65569e-06
2.66316e-06
9.58211e-07
2.59119e-06
3.00531e-07
2.47407e-06
-3.60181e-07
2.3043e-06
-1.04264e-06
2.07945e-06
-1.79442e-06
1.78827e-06
-2.6099e-06
1.43887e-06
-3.56951e-06
9.86177e-07
-4.56997e-06
5.45678e-07
-6.08411e-06
1.59113e-07
-8.65471e-06
-1.24042e-05
1.19918e-06
2.62703e-06
2.01051e-06
5.43167e-06
2.60436e-06
6.03447e-06
3.04919e-06
5.82792e-06
3.30619e-06
5.03597e-06
3.46734e-06
4.06922e-06
3.57185e-06
3.16221e-06
3.63256e-06
2.35415e-06
3.64773e-06
1.64052e-06
3.61586e-06
9.90075e-07
3.52719e-06
3.89205e-07
3.37619e-06
-2.09181e-07
3.1555e-06
-8.21957e-07
2.86053e-06
-1.49945e-06
2.47118e-06
-2.22055e-06
1.99411e-06
-3.09244e-06
1.40224e-06
-3.9781e-06
8.22388e-07
-5.50426e-06
3.0669e-07
-8.13902e-06
-1.20975e-05
1.24572e-06
1.38131e-06
2.14734e-06
4.53005e-06
2.87785e-06
5.30396e-06
3.5206e-06
5.18517e-06
3.9818e-06
4.57477e-06
4.29309e-06
3.75794e-06
4.4984e-06
2.95691e-06
4.62489e-06
2.22766e-06
4.67821e-06
1.5872e-06
4.6628e-06
1.00548e-06
4.56948e-06
4.82528e-07
4.3988e-06
-3.85046e-08
4.12932e-06
-5.52468e-07
3.76133e-06
-1.13146e-06
3.26117e-06
-1.72039e-06
2.63998e-06
-2.47125e-06
1.88434e-06
-3.22246e-06
1.1367e-06
-4.75662e-06
4.89054e-07
-7.49137e-06
-1.16084e-05
7.3384e-07
6.47472e-07
1.91524e-06
3.34865e-06
2.97877e-06
4.24043e-06
3.89867e-06
4.26526e-06
4.62608e-06
3.84736e-06
5.15154e-06
3.23248e-06
5.51411e-06
2.59434e-06
5.74575e-06
1.99602e-06
5.86178e-06
1.47117e-06
5.88098e-06
9.86278e-07
5.7916e-06
5.71906e-07
5.59319e-06
1.59904e-07
5.26641e-06
-2.25689e-07
4.81949e-06
-6.84539e-07
4.19808e-06
-1.09898e-06
3.43286e-06
-1.70603e-06
2.51123e-06
-2.30082e-06
1.57598e-06
-3.82138e-06
7.03473e-07
-6.61886e-06
-1.0905e-05
9.14175e-08
5.56055e-07
1.15251e-06
2.28756e-06
2.41408e-06
2.97885e-06
3.67329e-06
3.00606e-06
4.74618e-06
2.77447e-06
5.58774e-06
2.39092e-06
6.20136e-06
1.98072e-06
6.63066e-06
1.56671e-06
6.88158e-06
1.22025e-06
6.99041e-06
8.77453e-07
6.94359e-06
6.18727e-07
6.78325e-06
3.20243e-07
6.46916e-06
8.83978e-08
6.00286e-06
-2.18232e-07
5.34914e-06
-4.45271e-07
4.54252e-06
-8.99414e-07
3.55891e-06
-1.3172e-06
2.49024e-06
-2.7527e-06
1.19093e-06
-5.31956e-06
-9.71403e-06
-1.08669e-06
1.64275e-06
-1.03057e-07
1.30392e-06
1.53474e-06
1.34105e-06
3.13711e-06
1.40369e-06
4.50324e-06
1.40834e-06
5.6242e-06
1.26995e-06
6.49974e-06
1.10518e-06
7.16321e-06
9.03246e-07
7.62721e-06
7.56248e-07
7.91833e-06
5.86334e-07
8.06335e-06
4.7371e-07
8.06645e-06
3.17136e-07
7.92642e-06
2.28431e-07
7.63584e-06
7.23489e-08
7.21701e-06
-2.64378e-08
6.61437e-06
-2.96776e-07
5.86919e-06
-5.72027e-07
4.76447e-06
-1.64798e-06
2.6803e-06
-3.23539e-06
-7.03373e-06
1.64275e-06
2.94667e-06
4.28773e-06
5.69141e-06
7.09975e-06
8.36971e-06
9.47489e-06
1.03781e-05
1.11344e-05
1.17207e-05
1.21944e-05
1.25116e-05
1.274e-05
1.28123e-05
1.27859e-05
1.24891e-05
1.19171e-05
1.02691e-05
7.03373e-06
)
;

boundaryField
{
    movingWall
    {
        type            calculated;
        value           uniform 0;
    }
    fixedWalls
    {
        type            calculated;
        value           uniform 0;
    }
    frontAndBack
    {
        type            empty;
        value           nonuniform 0();
    }
}


// ************************************************************************* //
