/*--------------------------------*- C++ -*----------------------------------*\
| =========                 |                                                 |
| \\      /  F ield         | OpenFOAM: The Open Source CFD Toolbox           |
|  \\    /   O peration     | Version:  3.0.0                                 |
|   \\  /    A nd           | Web:      www.OpenFOAM.org                      |
|    \\/     M anipulation  |                                                 |
\*---------------------------------------------------------------------------*/
FoamFile
{
    version     2.0;
    format      ascii;
    class       volVectorField;
    location    "9";
    object      U;
}
// * * * * * * * * * * * * * * * * * * * * * * * * * * * * * * * * * * * * * //

dimensions      [0 1 -1 0 0 0 0];

internalField   nonuniform List<vector> 
400
(
(0.00295046 -0.00392754 0)
(0.00779904 -0.00157297 0)
(-0.000715198 0.00153056 0)
(-0.0120304 0.00804051 0)
(-0.0507957 0.0177083 0)
(-0.0890006 0.0164375 0)
(-0.116541 0.0137313 0)
(-0.140687 0.0112927 0)
(-0.156147 0.00876125 0)
(-0.168977 0.00627743 0)
(-0.175278 0.00387794 0)
(-0.178118 0.00198754 0)
(-0.177051 -0.00171828 0)
(-0.169444 -0.00380096 0)
(-0.157563 -0.00788371 0)
(-0.137743 -0.0106497 0)
(-0.111904 -0.014909 0)
(-0.0779855 -0.0167125 0)
(-0.0424316 -0.0168704 0)
(-0.00789641 -0.00341887 0)
(0.000286501 -0.00858114 0)
(-0.00746004 0.00519115 0)
(-0.0301078 0.0234433 0)
(-0.0692466 0.0460046 0)
(-0.103555 0.0483414 0)
(-0.127261 0.0426838 0)
(-0.147143 0.0358891 0)
(-0.160811 0.0280595 0)
(-0.173366 0.0192931 0)
(-0.180249 0.0125006 0)
(-0.184804 0.00536709 0)
(-0.184402 -0.000732764 0)
(-0.181173 -0.0078542 0)
(-0.17357 -0.0151795 0)
(-0.162128 -0.0246349 0)
(-0.144966 -0.0354636 0)
(-0.122392 -0.0484069 0)
(-0.0932252 -0.0601105 0)
(-0.0590567 -0.062172 0)
(-0.017708 -0.0377059 0)
(-0.00758118 0.00506348 0)
(-0.0298539 0.03402 0)
(-0.0625715 0.0608006 0)
(-0.0943654 0.0734227 0)
(-0.114846 0.0690947 0)
(-0.130093 0.0604999 0)
(-0.141726 0.0483518 0)
(-0.150272 0.0363197 0)
(-0.154544 0.0264309 0)
(-0.155887 0.0161877 0)
(-0.156034 0.00694003 0)
(-0.154166 -0.00247505 0)
(-0.151225 -0.0118825 0)
(-0.144769 -0.022402 0)
(-0.136288 -0.0346406 0)
(-0.123893 -0.0497526 0)
(-0.1077 -0.0682386 0)
(-0.0857628 -0.088903 0)
(-0.0578437 -0.10324 0)
(-0.0218302 -0.087604 0)
(-0.0109062 0.0298781 0)
(-0.0411945 0.0642885 0)
(-0.0734714 0.088032 0)
(-0.0944095 0.0921742 0)
(-0.1069 0.0835564 0)
(-0.11563 0.0709593 0)
(-0.120104 0.0561788 0)
(-0.122316 0.0420625 0)
(-0.123428 0.028825 0)
(-0.124546 0.0168213 0)
(-0.124093 0.00589271 0)
(-0.122547 -0.00481849 0)
(-0.119222 -0.0157923 0)
(-0.114154 -0.0279669 0)
(-0.107184 -0.0421348 0)
(-0.098257 -0.0594616 0)
(-0.0865631 -0.0810844 0)
(-0.0703196 -0.106989 0)
(-0.0490275 -0.129812 0)
(-0.0188965 -0.126452 0)
(-0.011999 0.0554247 0)
(-0.0438376 0.0907018 0)
(-0.0671757 0.10744 0)
(-0.0820457 0.106239 0)
(-0.0888394 0.0929682 0)
(-0.0931987 0.0770247 0)
(-0.0948625 0.0596958 0)
(-0.0966866 0.0440942 0)
(-0.0976906 0.0298265 0)
(-0.0981889 0.0169392 0)
(-0.0974928 0.00479286 0)
(-0.0958238 -0.00718807 0)
(-0.0927156 -0.019599 0)
(-0.0882699 -0.0332035 0)
(-0.0824366 -0.0488397 0)
(-0.0753838 -0.0676603 0)
(-0.0669062 -0.0912254 0)
(-0.0543552 -0.12171 0)
(-0.039224 -0.152728 0)
(-0.0162903 -0.158465 0)
(-0.0100503 0.080059 0)
(-0.0381192 0.114064 0)
(-0.0542215 0.12354 0)
(-0.0653311 0.116288 0)
(-0.06885 0.0986907 0)
(-0.071722 0.0800375 0)
(-0.0730065 0.0614116 0)
(-0.0747672 0.0451952 0)
(-0.0754949 0.0303771 0)
(-0.0757939 0.016777 0)
(-0.0751137 0.0036808 0)
(-0.0736143 -0.00937779 0)
(-0.0709642 -0.0229841 0)
(-0.0672138 -0.0377752 0)
(-0.0623577 -0.0544823 0)
(-0.0565894 -0.0740929 0)
(-0.0504125 -0.0979799 0)
(-0.0406377 -0.129478 0)
(-0.0330817 -0.168358 0)
(-0.00893746 -0.18353 0)
(-0.00841716 0.101567 0)
(-0.0295166 0.130491 0)
(-0.0397766 0.134944 0)
(-0.0485106 0.123092 0)
(-0.0500681 0.102332 0)
(-0.0526425 0.0820045 0)
(-0.0538617 0.0627496 0)
(-0.0554435 0.0460779 0)
(-0.0560364 0.0307684 0)
(-0.0563424 0.0165474 0)
(-0.0558612 0.00271268 0)
(-0.0547256 -0.011221 0)
(-0.0526887 -0.0258377 0)
(-0.0497676 -0.041705 0)
(-0.0459609 -0.0594635 0)
(-0.0412087 -0.0800594 0)
(-0.0370324 -0.104602 0)
(-0.028343 -0.137417 0)
(-0.0264801 -0.178863 0)
(-0.0066591 -0.203799 0)
(-0.00458912 0.116737 0)
(-0.0192501 0.144028 0)
(-0.0266659 0.144776 0)
(-0.0327574 0.128501 0)
(-0.0333055 0.105393 0)
(-0.0356501 0.0837538 0)
(-0.0367376 0.0640392 0)
(-0.0380936 0.0469126 0)
(-0.0386414 0.0311808 0)
(-0.0389836 0.0164755 0)
(-0.0387465 0.00210589 0)
(-0.0380288 -0.0124532 0)
(-0.0366738 -0.027783 0)
(-0.0346732 -0.044424 0)
(-0.0321123 -0.0628744 0)
(-0.0283554 -0.0840361 0)
(-0.0265105 -0.108615 0)
(-0.0189176 -0.141986 0)
(-0.0217554 -0.185601 0)
(-0.00208332 -0.219265 0)
(-0.00208714 0.126724 0)
(-0.0106041 0.151259 0)
(-0.0144105 0.149666 0)
(-0.0182074 0.131403 0)
(-0.0181984 0.107189 0)
(-0.0202298 0.0850539 0)
(-0.0211126 0.0651449 0)
(-0.0222087 0.0476619 0)
(-0.0227145 0.0316117 0)
(-0.0230829 0.016556 0)
(-0.0230868 0.00182176 0)
(-0.0227919 -0.0131559 0)
(-0.0221324 -0.0289668 0)
(-0.021051 -0.046191 0)
(-0.0198847 -0.0652236 0)
(-0.0169925 -0.0869311 0)
(-0.0176948 -0.11161 0)
(-0.0105848 -0.14536 0)
(-0.017676 -0.189694 0)
(-0.00053642 -0.231448 0)
(0.00210726 0.129979 0)
(-0.00187385 0.156805 0)
(-0.00288165 0.153895 0)
(-0.00481063 0.134089 0)
(-0.00445699 0.109246 0)
(-0.0059193 0.0864449 0)
(-0.0064828 0.0661659 0)
(-0.00727444 0.0483314 0)
(-0.00770915 0.0320461 0)
(-0.00809952 0.0167817 0)
(-0.00833572 0.00186641 0)
(-0.00845782 -0.0133047 0)
(-0.00850393 -0.0293158 0)
(-0.00829598 -0.0467989 0)
(-0.00865763 -0.0660837 0)
(-0.00661623 -0.0879045 0)
(-0.0101866 -0.112567 0)
(-0.00358835 -0.145855 0)
(-0.0147184 -0.191024 0)
(0.0026999 -0.240229 0)
(0.00501923 0.127708 0)
(0.00513891 0.156403 0)
(0.00805218 0.153122 0)
(0.00807314 0.133842 0)
(0.00893163 0.109132 0)
(0.00808641 0.0866658 0)
(0.00778804 0.0665766 0)
(0.00727561 0.0487297 0)
(0.00691161 0.032421 0)
(0.00649204 0.0171298 0)
(0.00602255 0.00222157 0)
(0.0054996 -0.0129364 0)
(0.00473246 -0.0289159 0)
(0.00413762 -0.046396 0)
(0.00231148 -0.065703 0)
(0.00326013 -0.0872707 0)
(-0.00300926 -0.112199 0)
(0.00311585 -0.144211 0)
(-0.0123627 -0.190789 0)
(0.00434677 -0.246449 0)
(0.00741379 0.120652 0)
(0.0131602 0.153927 0)
(0.0184472 0.152077 0)
(0.0205125 0.135055 0)
(0.0219086 0.110284 0)
(0.0218392 0.0874856 0)
(0.0219691 0.0671326 0)
(0.0218514 0.0491338 0)
(0.0216585 0.0328264 0)
(0.0212585 0.0176268 0)
(0.0205635 0.00290729 0)
(0.0196615 -0.0120172 0)
(0.0181317 -0.0277036 0)
(0.0167289 -0.0448824 0)
(0.0136264 -0.0638505 0)
(0.0129241 -0.0849575 0)
(0.00444566 -0.109446 0)
(0.00961712 -0.140297 0)
(-0.0105898 -0.187916 0)
(0.00785652 -0.249846 0)
(0.0101506 0.109058 0)
(0.0196326 0.145058 0)
(0.0285469 0.145197 0)
(0.0328194 0.132242 0)
(0.0356959 0.108119 0)
(0.0364888 0.0861808 0)
(0.0370645 0.0664712 0)
(0.0373115 0.0489079 0)
(0.0372838 0.0330008 0)
(0.0369026 0.0181968 0)
(0.035943 0.00393192 0)
(0.0346757 -0.0105035 0)
(0.0322975 -0.0256057 0)
(0.0301264 -0.0421879 0)
(0.0254747 -0.060381 0)
(0.023268 -0.0811659 0)
(0.0125431 -0.104134 0)
(0.016006 -0.134418 0)
(-0.00844188 -0.183542 0)
(0.0109315 -0.251295 0)
(0.0128685 0.0896773 0)
(0.0266833 0.135686 0)
(0.0389611 0.139355 0)
(0.044333 0.130281 0)
(0.0490079 0.108575 0)
(0.0511255 0.0862431 0)
(0.0525922 0.0664025 0)
(0.0535571 0.0489434 0)
(0.0539562 0.0333539 0)
(0.0538138 0.0189962 0)
(0.0526794 0.00534466 0)
(0.051142 -0.00837427 0)
(0.0478369 -0.022584 0)
(0.0448844 -0.0382143 0)
(0.0384289 -0.0552851 0)
(0.0347336 -0.0751217 0)
(0.0213077 -0.0963292 0)
(0.0226195 -0.12677 0)
(-0.00599652 -0.177426 0)
(0.0156504 -0.250988 0)
(0.0146815 0.0678621 0)
(0.0310899 0.117781 0)
(0.046893 0.127113 0)
(0.0558559 0.121107 0)
(0.0630548 0.103574 0)
(0.0674796 0.0829543 0)
(0.0702911 0.0641595 0)
(0.0721158 0.0476055 0)
(0.0729125 0.0329446 0)
(0.0729943 0.0195128 0)
(0.0715492 0.00690081 0)
(0.0697314 -0.0057295 0)
(0.065307 -0.0186105 0)
(0.0615731 -0.0328757 0)
(0.0530224 -0.0482807 0)
(0.0477832 -0.0666854 0)
(0.0310696 -0.085795 0)
(0.0299509 -0.116474 0)
(-0.00329976 -0.169221 0)
(0.0202007 -0.249839 0)
(0.0153191 0.0391944 0)
(0.0347249 0.102833 0)
(0.0514805 0.116752 0)
(0.0635837 0.113837 0)
(0.0740178 0.0996691 0)
(0.0820223 0.0810165 0)
(0.087582 0.0629808 0)
(0.0913157 0.0469943 0)
(0.0931018 0.0331171 0)
(0.0939746 0.0206195 0)
(0.0923707 0.00919794 0)
(0.0906663 -0.00213077 0)
(0.0851539 -0.013376 0)
(0.0808035 -0.0259354 0)
(0.0699108 -0.0391228 0)
(0.0628927 -0.0554469 0)
(0.0423085 -0.0721106 0)
(0.0385986 -0.103439 0)
(-0.00053949 -0.159329 0)
(0.0263044 -0.246181 0)
(0.00222564 0.0116671 0)
(0.0291709 0.0737093 0)
(0.0512798 0.0943356 0)
(0.068328 0.0957186 0)
(0.0838258 0.0862946 0)
(0.0965765 0.0721166 0)
(0.105867 0.0574174 0)
(0.112687 0.0433664 0)
(0.115954 0.0309697 0)
(0.118297 0.019831 0)
(0.116596 0.0100999 0)
(0.115211 0.00055339 0)
(0.108344 -0.008381 0)
(0.103216 -0.0184032 0)
(0.0897783 -0.0282616 0)
(0.0806994 -0.0415663 0)
(0.0563747 -0.0551608 0)
(0.0499906 -0.0871561 0)
(0.00348501 -0.145955 0)
(0.0339058 -0.235878 0)
(-0.0095926 0.018212 0)
(0.0137677 0.0639849 0)
(0.0372447 0.0794261 0)
(0.0604685 0.080141 0)
(0.0824524 0.0730529 0)
(0.102295 0.0620894 0)
(0.116917 0.0507111 0)
(0.128682 0.0404062 0)
(0.134612 0.0311408 0)
(0.13983 0.0221657 0)
(0.139133 0.0146566 0)
(0.138917 0.00689259 0)
(0.132063 0.000524119 0)
(0.127055 -0.0072203 0)
(0.112852 -0.0136776 0)
(0.102884 -0.024556 0)
(0.0774439 -0.0352082 0)
(0.0695218 -0.0673572 0)
(0.0157832 -0.124992 0)
(0.0488627 -0.207315 0)
(-0.0217869 -0.00222848 0)
(-0.0165628 0.0160984 0)
(0.014008 0.032333 0)
(0.0466772 0.0376375 0)
(0.0750014 0.0380111 0)
(0.100901 0.0343115 0)
(0.120308 0.0293149 0)
(0.137172 0.0230179 0)
(0.147648 0.018279 0)
(0.156501 0.0132166 0)
(0.159881 0.00972882 0)
(0.162348 0.00517097 0)
(0.159911 0.00245021 0)
(0.1568 -0.00236534 0)
(0.14753 -0.00526996 0)
(0.140203 -0.0123566 0)
(0.12022 -0.0195488 0)
(0.11252 -0.0457711 0)
(0.0576279 -0.0893451 0)
(0.0823543 -0.153607 0)
(0.0388234 0.0793711 0)
(0.0392496 0.0482761 0)
(0.0699764 0.0296239 0)
(0.0999271 0.0230774 0)
(0.126807 0.0211898 0)
(0.154155 0.0190114 0)
(0.177106 0.017299 0)
(0.198591 0.0150868 0)
(0.214888 0.0136394 0)
(0.229401 0.0116699 0)
(0.239253 0.0105874 0)
(0.247951 0.00877486 0)
(0.252554 0.00791073 0)
(0.256261 0.00594132 0)
(0.25573 0.0046802 0)
(0.25247 0.00216074 0)
(0.242766 0.00132004 0)
(0.226802 -0.00833845 0)
(0.172318 -0.0172434 0)
(0.157677 -0.0939898 0)
)
;

boundaryField
{
    movingWall
    {
        type            fixedValue;
        value           uniform (1 0 0);
    }
    fixedWalls
    {
        type            fixedValue;
        value           uniform (0 0 0);
    }
    frontAndBack
    {
        type            empty;
    }
}


// ************************************************************************* //
