/*--------------------------------*- C++ -*----------------------------------*\
| =========                 |                                                 |
| \\      /  F ield         | OpenFOAM: The Open Source CFD Toolbox           |
|  \\    /   O peration     | Version:  3.0.0                                 |
|   \\  /    A nd           | Web:      www.OpenFOAM.org                      |
|    \\/     M anipulation  |                                                 |
\*---------------------------------------------------------------------------*/
FoamFile
{
    version     2.0;
    format      ascii;
    class       surfaceScalarField;
    location    "5.75";
    object      phi;
}
// * * * * * * * * * * * * * * * * * * * * * * * * * * * * * * * * * * * * * //

dimensions      [0 3 -1 0 0 0 0];

internalField   nonuniform List<scalar> 
11520
(
-0.000611157
-0.000209876
0.000420202
-0.000554574
-0.000131646
0.000405802
-0.000432286
-7.34779e-05
0.000367079
-0.000257676
-1.64576e-05
0.000296672
-5.02751e-05
4.64e-05
0.000203017
0.000162763
0.00011517
0.000101426
0.000349167
0.000185643
1.09776e-05
0.000478551
0.000246666
-5.29729e-05
0.00052654
0.000272259
-8.19052e-05
0.000480829
0.000224163
-8.48281e-05
0.000344008
9.30477e-05
-7.16102e-05
0.000137687
-6.76037e-05
-3.5557e-05
-9.75314e-05
-0.000184764
3.31938e-05
-0.000316166
-0.000231012
0.000125734
-0.000485964
-0.000227944
0.000219578
-0.000205817
0.000277698
-0.000714738
-0.000386057
0.000331844
-0.000654596
-0.00031623
0.000324169
-0.00052242
-0.00027024
0.000300617
-0.000332882
-0.00022237
0.000251938
-0.000105846
-0.000163393
0.000181989
0.000131183
-9.09709e-05
9.94447e-05
0.000343873
-8.47639e-06
1.74893e-05
0.000495805
7.27428e-05
-5.16569e-05
0.000553193
0.000124192
-9.62535e-05
0.000498716
0.000102996
-0.000117576
0.00033975
-4.79592e-06
-0.000117056
0.000108019
-0.000149682
-8.71202e-05
-0.000148399
-0.000263185
-2.44344e-05
-0.000383144
-0.00031804
5.99291e-05
-0.000566468
-0.000329438
0.000145284
-0.000312769
0.000200179
-0.000771437
-0.000516693
0.000235663
-0.000711991
-0.000460542
0.00023995
-0.000575023
-0.000429824
0.000231897
-0.000376475
-0.00039445
0.00020218
-0.000136894
-0.000343839
0.000151396
0.000116093
-0.000273842
8.38582e-05
0.000348626
-0.000185797
7.14299e-06
0.000521979
-8.87622e-05
-6.76574e-05
0.000596328
-9.35286e-06
-0.000128498
0.000545754
5.96878e-06
-0.000167886
0.000375925
-6.78448e-05
-0.000179974
0.000125477
-0.000192234
-0.000157197
-0.000150512
-0.000302599
-0.000100007
-0.000402546
-0.000367392
-2.18012e-05
-0.000600762
-0.00039393
5.96604e-05
-0.000384464
0.000118209
-0.000789785
-0.000583022
0.000141967
-0.0007345
-0.000544281
0.000162456
-0.000596402
-0.000529214
0.000170998
-0.000392699
-0.000506972
0.000158825
-0.000145139
-0.000466788
0.000124043
0.000118036
-0.00040345
6.76655e-05
0.000363386
-0.000316463
-6.0828e-06
0.00055278
-0.000211213
-8.85776e-05
0.000644267
-0.000109771
-0.000166764
0.000605053
-5.78707e-05
-0.000225916
0.000435142
-9.31889e-05
-0.000252576
0.000174689
-0.000193409
-0.000238231
-0.000116274
-0.000299276
-0.000186225
-0.000384274
-0.00037339
-0.000111217
-0.000596819
-0.000414098
-3.01518e-05
-0.000414752
3.63455e-05
-0.000781897
-0.00057836
5.93468e-05
-0.0007325
-0.000559074
9.80529e-05
-0.000595709
-0.000558297
0.000123342
-0.000389735
-0.000548201
0.000127087
-0.000137718
-0.00051876
0.000105276
0.000130966
-0.000464447
5.6631e-05
0.000382956
-0.000383495
-1.69316e-05
0.000580765
-0.000278189
-0.000108541
0.000685194
-0.000163447
-0.000204126
0.000659626
-8.18673e-05
-0.000283985
0.000497605
-8.04008e-05
-0.000326957
0.000235988
-0.000154648
-0.000321898
-6.35204e-05
-0.000253415
-0.000274054
-0.00034371
-0.000334298
-0.000199795
-0.000568397
-0.000386879
-0.000116062
-0.000399521
-3.96686e-05
-0.000756882
-0.000507099
-3.308e-06
-0.000714023
-0.000507092
5.26462e-05
-0.000580371
-0.000518022
9.29574e-05
-0.00037466
-0.00051794
0.000109403
-0.000121455
-0.000498315
9.66749e-05
0.000148534
-0.000453817
5.19954e-05
0.000401423
-0.00038182
-2.39514e-05
0.000601516
-0.000281783
-0.000125065
0.000712295
-0.000162901
-0.000236966
0.000698284
-6.18692e-05
-0.000336014
0.00054822
-3.02996e-05
-0.000394707
0.00029306
-7.98353e-05
-0.000398336
-7.33512e-06
-0.000169413
-0.000352932
-0.000293778
-0.000253784
-0.000276857
-0.000526699
-0.000314974
-0.000188098
-0.000339409
-0.000101958
-0.000718944
-0.000381799
-3.8057e-05
-0.000683068
-0.000398896
3.19306e-05
-0.000554174
-0.000417966
8.27919e-05
-0.000351295
-0.000424987
0.000106779
-0.000100265
-0.000413349
9.78709e-05
0.000166965
-0.000378149
5.26051e-05
0.000415996
-0.000316105
-2.81365e-05
0.000612745
-0.000224531
-0.00013843
0.000723792
-0.000108221
-0.000263315
0.00071735
1.99213e-06
-0.000376741
0.000580385
5.39865e-05
-0.000447101
0.000337633
2.43681e-05
-0.000456418
4.41429e-05
-5.59695e-05
-0.000410656
-0.000241309
-0.000141215
-0.000330186
-0.000477314
-0.000207325
-0.000234763
-0.000241466
-0.00014002
-0.000668604
-0.000221878
-3.73573e-05
-0.000640252
-0.000251092
4.00742e-05
-0.000517957
-0.000273871
9.4468e-05
-0.000320701
-0.000284462
0.000118595
-7.53435e-05
-0.000278259
0.000106697
0.000185219
-0.000250795
5.5854e-05
0.000426278
-0.000198248
-3.18054e-05
0.000615299
-0.000116341
-0.000149497
0.000721978
-7.08169e-06
-0.000281638
0.000719554
0.000103495
-0.000401253
0.000595661
0.000165074
-0.000475523
0.000369987
0.000147351
-0.00048475
9.09485e-05
7.34367e-05
-0.000434782
-0.000186695
-1.10121e-05
-0.000347426
-0.000420625
-7.84421e-05
-0.000244804
-0.000118357
-0.000144561
-0.000603919
-4.97026e-05
2.57226e-06
-0.000584378
-8.36036e-05
7.89039e-05
-0.000470969
-0.000105007
0.000127694
-0.000282347
-0.000115234
0.000142868
-4.62363e-05
-0.000111413
0.000120192
0.000204078
-8.95633e-05
5.86716e-05
0.000433741
-4.51224e-05
-3.70354e-05
0.000611852
2.70573e-05
-0.000158557
0.000711408
0.00012636
-0.000289859
0.000710858
0.000229776
-0.000404805
0.00060036
0.000289701
-0.000472356
0.000395747
0.000273662
-0.000473774
0.000137512
0.000200951
-0.000415372
-0.000126
0.0001177
-0.000319705
-0.000353499
5.31265e-05
-0.000210547
1.33215e-05
-0.000108806
-0.00052352
0.000111395
8.04305e-05
-0.000514597
8.25832e-05
0.000146819
-0.000412637
6.80683e-05
0.000180422
-0.000235635
6.2253e-05
0.00017721
-1.18659e-05
6.67973e-05
0.000135988
0.000225006
8.54126e-05
5.939e-05
0.000440612
0.000123263
-4.43549e-05
0.00060571
0.000185911
-0.000164731
0.000696649
0.000272743
-0.000285743
0.000697116
0.000361947
-0.000384039
0.000600962
0.000408747
-0.00043345
0.000421224
0.000382757
-0.000419406
0.000189402
0.000304793
-0.000349623
-5.5019e-05
0.0002233
-0.000245906
-0.000272917
0.000166734
-0.000132082
0.000134893
-3.23332e-05
-0.000430687
0.000239763
0.000187726
-0.000433438
0.000226865
0.00023805
-0.000344871
0.000224963
0.000249056
-0.000181891
0.000227545
0.000219705
2.7173e-05
0.000235756
0.000153584
0.000248445
0.000253331
5.87451e-05
0.000448408
0.000285793
-5.21139e-05
0.000599239
0.000338673
-0.000166098
0.000680515
0.000410107
-0.000267963
0.000681169
0.000477709
-0.000339154
0.000599756
0.000499387
-0.000361474
0.000447206
0.000451372
-0.000327582
0.000245267
0.000362277
-0.000246732
2.33267e-05
0.000284462
-0.000137324
-0.00018264
0.0002423
-2.0664e-05
0.00022746
7.59351e-05
-0.00033958
0.000316728
0.000307145
-0.000351303
0.000328964
0.000341181
-0.000275293
0.000345189
0.00032741
-0.000126684
0.000360218
0.000268435
6.69185e-05
0.000375221
0.000174284
0.000272201
0.000394025
5.99934e-05
0.000456229
0.00042227
-5.65355e-05
0.00059219
0.000464855
-0.000160007
0.000662579
0.000517386
-0.00023688
0.000661436
0.000555368
-0.000275558
0.000592283
0.000540084
-0.000268478
0.00046404
0.000460017
-0.000216828
0.00028953
0.000357035
-0.00012934
8.99054e-05
0.000286405
-1.79482e-05
-0.000101675
0.000263991
0.000100508
0.000271753
0.000196069
-0.000278735
0.000328076
0.000415782
-0.000290697
0.000369049
0.000438331
-0.000221005
0.000406981
0.000404403
-8.26675e-05
0.000438311
0.000319213
9.84695e-05
0.000464164
0.000199439
0.000290138
0.000487912
6.77466e-05
0.000459952
0.000514584
-5.26251e-05
0.000581508
0.000547421
-0.000143877
0.000640077
0.000578054
-0.00019534
0.000633754
0.000579059
-0.000204352
0.000569574
0.000518526
-0.000174815
0.000454107
0.000403059
-0.000113893
0.000295417
0.000289518
-2.69741e-05
0.000111241
0.000229132
8.46259e-05
-6.48482e-05
0.000226572
0.000203602
0.000254107
0.000299887
-0.00028102
0.000268683
0.000491023
-0.000282067
0.000333145
0.000506655
-0.000208056
0.000390326
0.000462414
-7.04512e-05
0.000438818
0.000362543
0.000107034
0.000479531
0.000227051
0.000293246
0.000514074
8.4235e-05
0.000455812
0.000545142
-3.78935e-05
0.000567433
0.000572228
-0.000119223
0.000614762
0.000582215
-0.000151796
0.000598532
0.000544885
-0.000141883
0.000526888
0.000439602
-0.000102495
0.000405963
0.000294926
-4.20368e-05
0.000244142
0.000177249
4.3031e-05
6.40574e-05
0.000128709
0.000150955
-0.000100656
0.000140251
0.000268117
0.000176075
0.000361613
-0.00035851
0.000146625
0.00051733
-0.00034366
0.000223304
0.000526628
-0.000257451
0.000289413
0.000482331
-0.000110059
0.000348597
0.000383576
7.73029e-05
0.000402835
0.000247933
0.000274485
0.000451857
0.000103679
0.000447004
0.000494948
-1.88608e-05
0.000563236
0.0005269
-9.67636e-05
0.000604098
0.000528275
-0.000121891
0.000569745
0.000465147
-0.000105483
0.000472484
0.000327882
-6.58299e-05
0.000325192
0.000165169
-8.88841e-06
0.000144193
4.86787e-05
7.19518e-05
-4.28163e-05
8.34548e-06
0.000175867
-0.000203742
2.50217e-05
0.00028689
5.80867e-05
0.000370629
-0.000486331
0.000491731
-0.000459864
0.000494161
-0.000360708
0.000455174
-0.000198014
0.000368566
9.55926e-06
0.000246542
0.000233143
0.000112165
0.000435244
-6.65314e-06
0.000575691
-8.56464e-05
0.000620659
-0.000113177
0.000561078
-9.9715e-05
0.000418927
-6.4245e-05
0.000230257
-1.23497e-05
2.41584e-05
6.50708e-05
-0.000172176
0.000161876
-0.000335646
0.000263548
0.000334469
-0.000671293
-0.00016595
0.000623953
-0.000583807
-6.0186e-05
0.000512693
-0.000422542
2.89495e-05
0.000395394
-0.000207362
0.000109085
0.000261467
3.36803e-05
0.000179845
0.00012722
0.000265864
0.00023871
1.59364e-05
0.000454426
0.000284587
-4.99305e-05
0.000569196
0.000314101
-5.499e-05
0.000591529
0.000308603
3.03912e-07
0.000513454
0.000233941
9.38785e-05
0.000342509
8.39771e-05
0.000194955
0.000105754
-8.64332e-05
0.00029134
-0.000151377
-0.000206732
0.000383208
-0.000383535
-0.000251771
0.000463457
-0.000559238
-0.000240279
0.000519366
-0.000200998
0.000520753
-0.000754162
-0.000348515
0.000523535
-0.000665437
-0.000250326
0.000425585
-0.000497298
-0.000170212
0.00033164
-0.000269252
-9.35173e-05
0.000226494
-8.66442e-06
-1.83131e-05
0.00011956
0.000249506
5.29685e-05
2.70164e-05
0.000466342
0.000118503
-3.32627e-05
0.000603005
0.000171608
-4.58271e-05
0.000630893
0.000190643
-6.18157e-06
0.00054018
0.000138683
6.83944e-05
0.000346535
8.10774e-06
0.000152459
8.79045e-05
-0.000149549
0.000234626
-0.000186377
-0.000269975
0.000313091
-0.000431469
-0.000327876
0.000381126
-0.000619288
-0.000335766
0.000428589
-0.000305895
0.000430823
-0.000790529
-0.000485012
0.000389081
-0.000704857
-0.00040182
0.000305771
-0.000535566
-0.000337726
0.000230122
-0.000302267
-0.000272641
0.000148004
-3.12904e-05
-0.000202704
6.48108e-05
0.00024264
-0.000127985
-9.119e-06
0.000479749
-5.01693e-05
-6.12939e-05
0.000637572
2.48303e-05
-7.8703e-05
0.000679375
7.4447e-05
-5.41044e-05
0.000588953
5.78382e-05
3.38245e-06
0.000383663
-4.11164e-05
7.45394e-05
0.000109104
-0.000180209
0.000148023
-0.000180175
-0.000299373
0.00021867
-0.0004385
-0.000369819
0.000278468
-0.000637928
-0.000396154
0.000319477
-0.000377235
0.000325231
-0.000792459
-0.000558887
0.000242038
-0.000712116
-0.000495086
0.00017538
-0.000544386
-0.00044969
0.000115231
-0.000309357
-0.000399974
5.11292e-05
-3.36719e-05
-0.000340774
-1.35721e-05
0.000248234
-0.000270208
-7.20175e-05
0.000496541
-0.000188323
-0.000116237
0.000668439
-9.89268e-05
-0.000136718
0.000723891
-2.22268e-05
-0.000125542
0.000641135
-8.78708e-07
-8.44432e-05
0.00043481
-6.24762e-05
-2.48911e-05
0.000152976
-0.000178642
4.20345e-05
-0.000146287
-0.000293847
0.000107513
-0.000415244
-0.000374251
0.000162173
-0.000624509
-0.000416363
0.000199322
-0.000410113
0.000210977
-0.000774194
-0.000565983
0.000101063
-0.000699563
-0.000523106
5.14411e-05
-0.000534576
-0.000495905
4.57054e-06
-0.000300046
-0.000462279
-4.51369e-05
-2.33736e-05
-0.000416135
-9.60356e-05
0.000260459
-0.000354182
-0.000143227
0.000511608
-0.000274836
-0.000181568
0.000688486
-0.00017944
-0.000204907
0.00075231
-8.42313e-05
-0.000205944
0.000679203
-3.0871e-05
-0.000180885
0.000479574
-5.64328e-05
-0.000133372
0.000199207
-0.000147603
-7.25691e-05
-0.00010327
-0.000255307
-1.01173e-05
-0.000378251
-0.000341439
4.23738e-05
-0.000594143
-0.000395126
7.85921e-05
-0.000401752
9.74023e-05
-0.000746451
-0.000511013
-1.76571e-05
-0.000676978
-0.000488661
-5.12722e-05
-0.000515557
-0.000477386
-8.69829e-05
-0.000283285
-0.000458198
-0.00012695
-8.84813e-06
-0.000425069
-0.000168829
0.000271962
-0.000373778
-0.000209218
0.000519145
-0.000301157
-0.000244813
0.000693118
-0.000206553
-0.000271925
0.000758589
-0.000102459
-0.00028421
0.000693201
-2.73631e-05
-0.000274134
0.000504111
-2.36276e-05
-0.000238422
0.000232338
-9.11073e-05
-0.000183059
-6.59256e-05
-0.000188543
-0.000121432
-0.000340812
-0.000275689
-6.77204e-05
-0.000558927
-0.000335799
-2.93097e-05
-0.000352972
-3.83425e-06
-0.000715307
-0.000406403
-9.82946e-05
-0.000649901
-0.000401404
-0.000120733
-0.000492421
-0.000402181
-0.000149892
-0.000264172
-0.000394616
-0.000185052
5.16724e-06
-0.000373057
-0.000223479
0.00027865
-0.000332515
-0.00026214
0.00051678
-0.000268716
-0.000298708
0.000682109
-0.000179512
-0.000330799
0.000743608
-7.46274e-05
-0.000352646
0.000682653
1.12039e-05
-0.000354353
0.00050513
3.43791e-05
-0.000327584
0.000246826
-1.4225e-05
-0.000274996
-4.06824e-05
-0.000100812
-0.000210879
-0.000309226
-0.000184991
-0.000152341
-0.000524634
-0.000246428
-0.000108726
-0.000270855
-7.58369e-05
-0.000681598
-0.00026695
-0.00013045
-0.000619722
-0.000274987
-0.000148219
-0.000466686
-0.000283283
-0.000177465
-0.000244064
-0.00028373
-0.000214915
1.75693e-05
-0.000271304
-0.00025669
0.000280653
-0.000240463
-0.000299281
0.000506415
-0.000186029
-0.000340255
0.000659821
-0.00010497
-0.000377446
0.000714156
-5.39483e-06
-0.000405205
0.000655186
8.14047e-05
-0.000412484
0.000489131
0.000113196
-0.000388285
0.000247137
7.60475e-05
-0.000333028
-2.49716e-05
-1.79261e-06
-0.000261693
-0.000282522
-8.06298e-05
-0.000194237
-0.000491639
-0.000138607
-0.000143508
-0.000165458
-0.000106359
-0.00064336
-0.000109717
-0.000106638
-0.000585218
-0.000125078
-0.000129148
-0.000437295
-0.000136034
-0.000167479
-0.000221544
-0.000140613
-0.000216
3.06325e-05
-0.000134508
-0.000268779
0.000281391
-0.000111782
-0.000320768
0.000493176
-6.65185e-05
-0.000368331
0.000633617
4.69151e-06
-0.000408661
0.000680047
9.44301e-05
-0.000436114
0.000622421
0.000174087
-0.000439861
0.000467988
0.000204102
-0.000408828
0.00024403
0.000169535
-0.000343303
-9.94326e-06
9.6342e-05
-0.000259534
-0.00025401
2.39701e-05
-0.000180238
-0.000455331
-2.61252e-05
-0.000121708
-4.98645e-05
-8.43938e-05
-0.00059729
4.8013e-05
-2.63574e-05
-0.000544169
3.22857e-05
-6.36649e-05
-0.000402285
2.35212e-05
-0.000121018
-0.000194241
1.85112e-05
-0.000189958
4.76026e-05
2.09308e-05
-0.000261294
0.000285369
3.70343e-05
-0.000327193
0.000483034
7.33092e-05
-0.000381847
0.000611043
0.000133244
-0.000421294
0.000650506
0.000209467
-0.000440242
0.000595164
0.000275126
-0.000429736
0.000453509
0.000293679
-0.000381371
0.000249263
0.00025227
-0.000297896
1.50015e-05
0.000178676
-0.000197695
-0.000215149
0.000113581
-0.000105367
-0.000409458
7.61338e-05
-4.00322e-05
6.23761e-05
-7.68394e-06
-0.000541818
0.000188057
0.000103637
-0.000495675
0.000180966
4.32272e-05
-0.000360883
0.000179407
-4.1621e-05
-0.000160963
0.000177368
-0.000139073
7.05307e-05
0.000178305
-0.000235284
0.000295728
0.000188823
-0.000318241
0.000480169
0.000215906
-0.000379151
0.000597051
0.000263002
-0.000412737
0.000631003
0.00032232
-0.000414768
0.000579348
0.000367663
-0.000380037
0.000452049
0.000365242
-0.000305737
0.00026913
0.000307324
-0.000199717
5.52611e-05
0.000228314
-8.25011e-05
-0.000161729
0.000171774
2.14737e-05
-0.000350773
0.000152135
9.23783e-05
0.000155506
0.000117895
-0.000481594
0.000290815
0.000266055
-0.000443259
0.000302845
0.000180967
-0.000315882
0.000314445
6.49942e-05
-0.000123684
0.000319333
-6.5728e-05
9.84075e-05
0.000321247
-0.00019075
0.000312415
0.000327245
-0.000292436
0.000485132
0.000344919
-0.000358266
0.000592171
0.000377677
-0.000381722
0.000621393
0.000416766
-0.000360549
0.000573677
0.000435246
-0.000295425
0.000460481
0.000402044
-0.000192085
0.000297733
0.000318659
-6.5416e-05
0.000102172
0.000230583
6.39523e-05
-0.000103493
0.000183951
0.000175538
-0.000288051
0.000186193
0.000251008
0.000212379
0.000271073
-0.000433518
0.000334606
0.000434878
-0.000399333
0.000375285
0.000331706
-0.000276619
0.000407378
0.000188756
-8.95962e-05
0.000425242
2.62814e-05
0.000125789
0.00043262
-0.000127319
0.000331399
0.000436963
-0.000247581
0.00049467
0.000446438
-0.000317415
0.000593063
0.000464417
-0.00032901
0.00061719
0.00048034
-0.00028304
0.00057092
0.000465397
-0.000188233
0.000466404
0.000393079
-6.13346e-05
0.000315429
0.000278768
7.69723e-05
0.000129854
0.000180562
0.000208622
-6.81e-05
0.000144562
0.000321969
-0.000246888
0.000167351
0.000401233
0.0002149
0.000421107
-0.000426033
0.000302042
0.000578841
-0.00038708
0.000373665
0.000469322
-0.000261638
0.0004314
0.00031295
-7.31775e-05
0.000469651
0.000129673
0.000142334
0.000490592
-4.64323e-05
0.000346262
0.000500245
-0.000182975
0.000505779
0.000506584
-0.000257555
0.00059864
0.000512599
-0.000260266
0.000616694
0.000505156
-0.000194667
0.000565494
0.000453437
-7.87225e-05
0.000456775
0.000339305
5.9999e-05
0.000300751
0.000196287
0.000196469
0.000111834
9.15118e-05
0.000320999
-8.54584e-05
6.30787e-05
0.000429731
-0.000258451
9.82243e-05
0.000510236
0.00015614
0.0005327
-0.000481098
0.000193317
0.000669559
-0.000430988
0.000287017
0.000563167
-0.000295371
0.000366021
0.000412092
-9.55357e-05
0.000426304
0.000227088
0.000133576
0.000467306
4.2108e-05
0.000351925
0.000491217
-0.000105641
0.000523458
0.000503816
-0.000187627
0.000621314
0.000507281
-0.000189302
0.000633196
0.000485756
-0.000114373
0.000564586
0.000405804
1.07596e-05
0.000431572
0.000258579
0.000147911
0.000251073
9.52692e-05
0.000272628
4.46526e-05
-1.38165e-05
0.0003837
-0.000159261
-4.02792e-05
0.000483138
-0.000330418
-4.0196e-06
0.000560291
5.15668e-05
0.000582377
-0.00058798
0.000689869
-0.000530344
0.00058935
-0.000383881
0.000456203
-0.000166251
0.00028818
8.97165e-05
0.00011279
0.000341627
-3.39337e-05
0.000546627
-0.000120077
0.000667098
-0.00012569
0.000678208
-5.16761e-05
0.000579514
7.02114e-05
0.000400346
0.000193904
0.000180548
0.000299008
-4.71913e-05
0.000392842
-0.000258897
0.000479508
-0.000432916
0.000549742
0.000568476
-0.000657176
-9.07746e-05
0.000761107
-0.000535854
2.86192e-05
0.000547003
-0.000345404
0.000132899
0.000343814
-0.000111729
0.000217781
0.000146029
0.000132281
0.000278574
-2.07408e-05
0.000351563
0.000313955
-0.000128197
0.000515568
0.000328314
-0.000155038
0.000601687
0.000325312
-9.09155e-05
0.000596302
0.000292638
5.57183e-05
0.000494093
0.00020095
0.000250561
0.000302208
4.43589e-05
0.00044545
5.08005e-05
-0.000124842
0.000605076
-0.000211982
-0.000238975
0.000717486
-0.000438877
-0.000272659
0.000779123
-0.00059947
-0.000242691
0.000788761
-0.000179018
0.000730123
-0.000718327
-0.000252967
0.000661685
-0.000599826
-0.000135852
0.000471555
-0.000405729
-3.09599e-05
0.000301401
-0.000159918
6.0864e-05
0.0001376
0.000105835
0.000134996
-2.61577e-06
0.000354392
0.000188764
-9.63487e-05
0.000548859
0.000223871
-0.000123287
0.000656732
0.000241138
-6.95262e-05
0.000655637
0.000225856
6.16944e-05
0.000539704
0.000147357
0.00023792
0.000326036
6.91501e-07
0.000409794
5.47423e-05
-0.000163488
0.000544565
-0.000222711
-0.000283274
0.000634843
-0.000461588
-0.000333738
0.000681081
-0.000634626
-0.000325422
0.000684358
-0.000272736
0.000632285
-0.000733446
-0.000378107
0.000500198
-0.000622762
-0.000273976
0.000333211
-0.000432715
-0.000180814
0.000189929
-0.000185515
-9.5274e-05
5.69422e-05
8.91117e-05
-2.0286e-05
-5.45342e-05
0.000354458
4.24551e-05
-0.000128156
0.000570896
9.41977e-05
-0.000148059
0.000699857
0.000134374
-0.0001009
0.000711212
0.000146349
1.40479e-05
0.000594632
9.60905e-05
0.000171228
0.000370663
-2.66119e-05
0.000325812
8.67735e-05
-0.000178203
0.000446628
-0.000201966
-0.000300595
0.00052473
-0.000450863
-0.000366035
0.000559661
-0.000633154
-0.000377921
0.000554267
-0.000338366
0.000505175
-0.000716161
-0.000450953
0.000310591
-0.000614417
-0.000365983
0.000165643
-0.000431295
-0.000291192
4.24888e-05
-0.000188077
-0.000220359
-6.70039e-05
8.65957e-05
-0.000153941
-0.00015459
0.000356938
-9.14237e-05
-0.000208481
0.000583067
-3.06096e-05
-0.000217558
0.000724714
2.80762e-05
-0.000172068
0.000748042
6.78212e-05
-7.03419e-05
0.000638727
5.19278e-05
6.90345e-05
0.000416262
-3.85492e-05
0.000209511
0.000130001
-0.00017113
0.000321224
-0.000163142
-0.000291747
0.000391806
-0.000417479
-0.000368199
0.000418674
-0.000605164
-0.000396728
0.000405814
-0.000371606
0.000359508
-0.00068278
-0.000468726
0.000122137
-0.000588799
-0.000404806
-3.71765e-06
-0.00041348
-0.000350945
-0.000110995
-0.000177044
-0.00029816
-0.000203773
9.183e-05
-0.000245103
-0.000273747
0.000357757
-0.000188927
-0.000311651
0.000581681
-0.000125962
-0.000310139
0.000724743
-5.59603e-05
-0.000263932
0.000754113
5.37285e-06
-0.000172866
0.000654479
2.09086e-05
-5.02326e-05
0.000442182
-3.62296e-05
7.66055e-05
0.000163644
-0.000145946
0.000180786
-0.000125299
-0.000259605
0.000246684
-0.00037853
-0.000341536
0.000268941
-0.000566639
-0.000381663
0.000251636
-0.00037023
0.000208867
-0.000645936
-0.000437152
-4.17779e-05
-0.000558452
-0.000393576
-0.000149986
-0.000390478
-0.000358959
-0.000246943
-0.000162831
-0.00032422
-0.000328537
9.58152e-05
-0.000285888
-0.000386691
0.000350246
-0.000239057
-0.000413519
0.000562765
-0.000178741
-0.000404553
0.000697525
-0.000104145
-0.0003585
0.000725698
-2.96486e-05
-0.000277362
0.000633994
9.01134e-06
-0.000170533
0.000436098
-1.96311e-05
-5.71247e-05
0.000173147
-0.000106225
4.01716e-05
-0.000103147
-0.000208946
0.000104202
-0.000347763
-0.000290655
0.000126015
-0.000530542
-0.000336545
0.000108352
-0.00033625
7.01266e-05
-0.000613041
-0.000365739
-0.000161279
-0.00052983
-0.000339483
-0.000258037
-0.000368994
-0.000321004
-0.000348684
-0.000151538
-0.000301976
-0.000424752
9.36334e-05
-0.000277387
-0.000477151
0.000331772
-0.000240612
-0.000498724
0.000527034
-0.000185665
-0.000487046
0.000647254
-0.000111569
-0.000443595
0.000668642
-3.18024e-05
-0.00037188
0.000581684
2.0105e-05
-0.000278489
0.000398894
1.15742e-05
-0.000176
0.000155745
-5.55172e-05
-8.25556e-05
-0.000101773
-0.000145554
-1.67516e-05
-0.000331319
-0.000221869
8.41878e-06
-0.000503961
-0.000268125
-4.50437e-06
-0.000274555
-3.68816e-05
-0.000586084
-0.000266191
-0.000223346
-0.000505126
-0.000252981
-0.000315678
-0.00035062
-0.000246154
-0.00040682
-0.000143815
-0.000239199
-0.000484497
8.6325e-05
-0.000226023
-0.000538194
0.000305943
-0.000198669
-0.000560842
0.000481539
-0.000150442
-0.000551073
0.0005848
-8.04993e-05
-0.000511776
0.000596827
-1.96256e-06
-0.000447073
0.000512076
5.39872e-05
-0.000361615
0.000343059
5.59183e-05
-0.000263612
0.000120526
2.14956e-06
-0.000168161
-0.000115522
-7.65139e-05
-9.46848e-05
-0.000327372
-0.000144986
-5.927e-05
-0.00048689
-0.000186425
-6.56906e-05
-0.000194641
-9.37295e-05
-0.000563134
-0.000149954
-0.000219231
-0.00048283
-0.000144982
-0.000317451
-0.000333249
-0.000144869
-0.000418346
-0.000136174
-0.000145849
-0.000506426
7.94464e-05
-0.000141271
-0.000569151
0.000280969
-0.000122245
-0.000598714
0.000437541
-8.15715e-05
-0.000593774
0.000524619
-1.86953e-05
-0.000557542
0.00052749
5.3342e-05
-0.000494289
0.000443927
0.000105481
-0.000407792
0.000286741
0.000108664
-0.000304388
8.30793e-05
6.07251e-05
-0.000198217
-0.000132688
-9.64866e-06
-0.000110632
-0.000327309
-6.86942e-05
-6.19083e-05
-0.000474223
-0.000101191
-6.00282e-05
-0.000106211
-8.75573e-05
-0.000540324
-2.79769e-05
-0.000147105
-0.000459801
-2.59439e-05
-0.000263226
-0.00031333
-2.77637e-05
-0.000384593
-0.000123751
-3.27581e-05
-0.000492628
7.97472e-05
-3.41899e-05
-0.000571874
0.000265779
-2.26322e-05
-0.000612838
0.000406176
9.52006e-06
-0.000613335
0.000479873
6.25962e-05
-0.000576282
0.000475573
0.000123648
-0.000506248
0.000393564
0.000165362
-0.000407609
0.000246876
0.000161433
-0.000287451
5.96128e-05
0.00011164
-0.000161547
-0.000139317
4.58208e-05
-5.42352e-05
-0.000320513
-2.73685e-06
9.87116e-06
-0.000458461
-2.22214e-05
1.89464e-05
-1.87758e-05
-1.44848e-05
-0.000514234
8.95737e-05
-1.31365e-05
-0.000433673
9.42031e-05
-0.000157481
-0.000288483
9.47705e-05
-0.000309345
-0.000103332
8.91877e-05
-0.00044617
9.17068e-05
8.37942e-05
-0.000548307
0.000266177
8.82877e-05
-0.000603632
0.000394382
0.000110571
-0.000608407
0.000458295
0.000151118
-0.000565171
0.000449465
0.000197159
-0.000479448
0.000370192
0.000222565
-0.000357968
0.000233552
0.000203677
-0.000211341
6.03993e-05
0.000144516
-5.94402e-05
-0.000125762
7.95353e-05
6.99455e-05
-0.000299072
4.27114e-05
0.000149335
-0.000433586
4.08297e-05
0.000163842
5.84388e-05
0.00012055
-0.000485819
0.000189273
0.000169442
-0.000405447
0.000204164
-9.36696e-06
-0.000259698
0.000211773
-0.000197757
-7.55457e-05
0.000208897
-0.00036959
0.000115378
0.000201519
-0.000499399
0.000282857
0.000199298
-0.000570925
0.000403075
0.000210535
-0.000578448
0.000460583
0.00023614
-0.000524252
0.000449436
0.000263494
-0.000415738
0.000373818
0.000266811
-0.000264053
0.00024665
0.000225011
-8.62514e-05
8.48087e-05
0.000148889
9.20524e-05
-9.33436e-05
8.13535e-05
0.000240286
-0.000264546
5.74908e-05
0.000331961
-0.000400942
7.70197e-05
0.000351214
0.000113871
0.00029743
-0.000463584
0.000253105
0.000375952
-0.000382275
0.000287751
0.00016681
-0.000233136
0.000309122
-5.77314e-05
-4.57378e-05
0.000313894
-0.000266114
0.00014611
0.000307849
-0.000425496
0.000311659
0.000300474
-0.000514307
0.000428178
0.000300629
-0.000524028
0.000482109
0.000309942
-0.000456743
0.000469621
0.000315555
-0.000322613
0.000396517
0.000291078
-0.000139396
0.000274743
0.00021869
6.67611e-05
0.000117676
0.000119632
0.000263296
-5.98809e-05
4.65125e-05
0.00042102
-0.00023426
3.45427e-05
0.000519296
-0.000375207
7.52043e-05
0.000543995
0.000132602
0.000485848
-0.000466358
0.000259531
0.000574596
-0.000379414
0.000322223
0.000347906
-0.00022171
0.000365912
9.84562e-05
-2.45459e-05
0.000386607
-0.000140204
0.000175458
0.000388723
-0.000327311
0.000346369
0.000380779
-0.000434191
0.000465198
0.000372437
-0.000448193
0.000518843
0.000366424
-0.000370393
0.000504322
0.000349249
-0.00021384
0.000428134
0.000293417
-4.87275e-06
0.000301343
0.000186296
0.000219185
0.000135704
6.22975e-05
0.000419443
-5.18826e-05
-1.8141e-05
0.000573239
-0.000234542
-2.32639e-05
0.000670197
-0.000380486
3.1191e-05
0.000700193
0.000102849
0.000646144
-0.000514131
0.000196693
0.000729336
-0.000417717
0.000287126
0.00050185
-0.000245567
0.0003574
0.000248454
-2.91241e-05
0.000401843
-4.59098e-06
0.000192333
0.000420992
-0.000211617
0.000383107
0.000420474
-0.000336111
0.000516828
0.000410117
-0.000359028
0.000577089
0.000394715
-0.000277853
0.000558347
0.000360547
-0.000106929
0.000466844
0.000278088
0.00011759
0.000317048
0.000139844
0.000344158
0.000125945
-5.66927e-06
0.000531698
-8.20265e-05
-9.56301e-05
0.000669161
-0.000277035
-0.000101992
0.000756875
-0.000429233
-4.55046e-05
0.000789184
2.96578e-05
0.000743528
-0.000606016
0.000807062
-0.000504766
0.000590975
-0.00031801
0.000355077
-7.44695e-05
0.000110465
0.000184076
-9.93884e-05
0.000414431
-0.000232918
0.000581712
-0.000264452
0.000660896
-0.000185663
0.000638202
-1.11024e-05
0.000516116
0.000214962
0.00032182
0.000425075
9.38178e-05
0.000583855
-0.000135641
0.000694151
-0.000341179
0.000766943
-0.000502054
0.000799002
0.000762572
-0.000549622
-7.16746e-06
0.000781206
-0.000398915
0.000114083
0.000480221
-0.000197427
0.000219578
0.000203089
2.49986e-05
0.000296045
-3.95372e-05
0.000235495
0.000336628
-0.000215822
0.000405995
0.000343376
-0.000299672
0.000516771
0.000326716
-0.00027617
0.000556404
0.000295173
-0.000142566
0.00051975
0.000240869
8.6052e-05
0.000404984
0.000140285
0.000370134
0.000216127
-1.13352e-05
0.000650583
-2.1046e-05
-0.00016952
0.000871443
-0.000261733
-0.000270154
0.00100232
-0.000459057
-0.000286689
0.00103894
-0.000582507
-0.000233877
0.000990868
-0.000145017
0.000863529
-0.000593374
-0.000117239
0.000702681
-0.000449214
6.99232e-06
0.000434486
-0.000244881
0.000121767
0.000194878
-7.58388e-06
0.000212205
-1.58569e-05
0.0002293
0.000269411
-0.000172283
0.000433
0.000293563
-0.000250236
0.000575539
0.000293068
-0.000232178
0.000636402
0.000275088
-0.000110305
0.000604126
0.000230355
0.000104485
0.000477217
0.000134298
0.000370816
0.000268752
-1.69249e-05
0.000623849
1.23338e-05
-0.000178134
0.000809597
-0.000243461
-0.000289502
0.000909986
-0.000454615
-0.000324485
0.000930031
-0.000593443
-0.000292
0.000881309
-0.000212887
0.00076916
-0.000594148
-0.00021039
0.000540226
-0.000463672
-9.60387e-05
0.000305766
-0.000267388
1.2402e-05
0.00010301
-2.91482e-05
0.000101754
-7.08475e-05
0.000219482
0.000164139
-0.000197892
0.000444128
0.000199985
-0.000259225
0.00061134
0.000216709
-0.000238912
0.000693304
0.000219301
-0.000127077
0.00067206
0.000195892
6.9754e-05
0.000544027
0.000119649
0.000313911
0.000326415
-1.66203e-05
0.000543119
5.9824e-05
-0.000171589
0.000706673
-0.000204575
-0.000288889
0.000788516
-0.000423886
-0.000339848
0.000794335
-0.000571712
-0.00032722
0.000737312
-0.000261839
0.000629686
-0.000563983
-0.000272113
0.000333897