/*--------------------------------*- C++ -*----------------------------------*\
| =========                 |                                                 |
| \\      /  F ield         | OpenFOAM: The Open Source CFD Toolbox           |
|  \\    /   O peration     | Version:  3.0.0                                 |
|   \\  /    A nd           | Web:      www.OpenFOAM.org                      |
|    \\/     M anipulation  |                                                 |
\*---------------------------------------------------------------------------*/
FoamFile
{
    version     2.0;
    format      ascii;
    class       volVectorField;
    location    "5.75";
    object      U;
}
// * * * * * * * * * * * * * * * * * * * * * * * * * * * * * * * * * * * * * //

dimensions      [0 1 -1 0 0 0 0];

internalField   nonuniform List<vector> 
4096
(
(-0.170201 -0.028319 0.077853)
(-0.149593 -0.00783126 0.0845473)
(-0.129472 0.00792692 0.0838758)
(-0.0909792 0.0227675 0.0741503)
(-0.0406649 0.0381717 0.0564724)
(0.014797 0.0540124 0.0333088)
(0.0678781 0.0693406 0.00834187)
(0.110265 0.0819108 -0.0143298)
(0.134488 0.0861467 -0.0320991)
(0.135678 0.0728657 -0.0452303)
(0.112028 0.0385088 -0.0535086)
(0.0655246 -0.00437106 -0.0522206)
(0.00511056 -0.0356902 -0.0372037)
(-0.0566278 -0.0467801 -0.0112875)
(-0.110578 -0.0437736 0.0176439)
(-0.132629 -0.0367064 0.0395991)
(-0.200225 -0.0783125 0.0582876)
(-0.17493 -0.0591359 0.0662964)
(-0.154086 -0.0454905 0.0684838)
(-0.112466 -0.0316519 0.0630785)
(-0.057687 -0.0155314 0.0504136)
(0.00334871 0.00317078 0.0316391)
(0.0630094 0.0233487 0.00891647)
(0.112169 0.041839 -0.0147505)
(0.141276 0.0512568 -0.0364993)
(0.142835 0.0411726 -0.05459)
(0.114401 0.00935784 -0.0660657)
(0.0608277 -0.0301653 -0.0656077)
(-0.00563901 -0.0594348 -0.050971)
(-0.0720201 -0.0721019 -0.0263836)
(-0.130443 -0.0731046 0.000891405)
(-0.152213 -0.0681015 0.0219862)
(-0.215848 -0.119339 0.0394933)
(-0.189268 -0.102836 0.0506847)
(-0.168398 -0.0928965 0.0566892)
(-0.125007 -0.0821126 0.0557034)
(-0.0674621 -0.0678788 0.0473503)
(-0.00284342 -0.0493241 0.0318173)
(0.0613555 -0.0270584 0.0101699)
(0.116039 -0.00380783 -0.015402)
(0.150747 0.0130916 -0.0418073)
(0.155485 0.0119906 -0.0652972)
(0.125851 -0.011771 -0.0807043)
(0.0679137 -0.0464641 -0.0823439)
(-0.00371175 -0.0750855 -0.0689274)
(-0.0749895 -0.0903397 -0.0451926)
(-0.137988 -0.0951909 -0.0181532)
(-0.160993 -0.0916905 0.00418838)
(-0.21945 -0.145166 0.0230671)
(-0.194744 -0.132699 0.0387198)
(-0.174261 -0.12688 0.0493076)
(-0.130005 -0.119556 0.0528862)
(-0.0707752 -0.107925 0.0483962)
(-0.00387731 -0.0907342 0.0352489)
(0.063168 -0.0680448 0.0137834)
(0.121535 -0.0416917 -0.0143656)
(0.160896 -0.0180025 -0.0460836)
(0.169908 -0.00908437 -0.075833)
(0.141849 -0.0230679 -0.0962413)
(0.0823096 -0.0519524 -0.100879)
(0.00718085 -0.0797367 -0.0889225)
(-0.068303 -0.0975916 -0.0654985)
(-0.135363 -0.106261 -0.0376031)
(-0.161173 -0.105002 -0.0126727)
(-0.215037 -0.152864 0.0100557)
(-0.19405 -0.145253 0.0307535)
(-0.174149 -0.143345 0.0462076)
(-0.129684 -0.139331 0.0542049)
(-0.0695921 -0.130499 0.0530504)
(-0.00142786 -0.115431 0.0415595)
(0.0670996 -0.0937875 0.0195751)
(0.12727 -0.0664914 -0.0115858)
(0.169432 -0.0382563 -0.0487389)
(0.18232 -0.0205679 -0.0851102)
(0.157449 -0.0245669 -0.111166)
(0.0987792 -0.0468737 -0.119276)
(0.0221793 -0.0731862 -0.108727)
(-0.0561938 -0.0931724 -0.0850828)
(-0.126363 -0.105246 -0.0555958)
(-0.155871 -0.106899 -0.027469)
(-0.205701 -0.142436 0.00157561)
(-0.189184 -0.139948 0.0271704)
(-0.170013 -0.14142 0.0471051)
(-0.125894 -0.140285 0.058822)
(-0.0656842 -0.134138 0.0601362)
(0.00281123 -0.121563 0.0494582)
(0.0715905 -0.101965 0.0263638)
(0.132035 -0.0754995 -0.00790106)
(0.175124 -0.0451648 -0.0499686)
(0.190485 -0.0211394 -0.0923624)
(0.16911 -0.0163486 -0.123765)
(0.113096 -0.0319622 -0.13518)
(0.0371699 -0.056109 -0.125714)
(-0.042261 -0.0774178 -0.101377)
(-0.114156 -0.0921486 -0.0698998)
(-0.147424 -0.0969398 -0.0385964)
(-0.192952 -0.116284 -0.00106764)
(-0.181085 -0.118627 0.0284528)
(-0.162836 -0.122686 0.0517216)
(-0.119605 -0.123771 0.0658549)
(-0.0600353 -0.119932 0.0683494)
(0.007853 -0.109849 0.0574349)
(0.0757845 -0.0927482 0.03276)
(0.135182 -0.0681636 -0.00432558)
(0.177594 -0.0377827 -0.0501715)
(0.193842 -0.010181 -0.0969366)
(0.175471 0.00117061 -0.132228)
(0.123206 -0.00854801 -0.145963)
(0.0499642 -0.0301945 -0.136932)
(-0.0284397 -0.0520096 -0.111506)
(-0.10039 -0.0684858 -0.0779816)
(-0.136889 -0.0761337 -0.0440398)
(-0.176962 -0.0786396 0.00315163)
(-0.169854 -0.0849001 0.0349311)
(-0.152812 -0.090526 0.0596933)
(-0.111066 -0.0930002 0.0743555)
(-0.0529325 -0.0908932 0.0763486)
(0.0134083 -0.0830091 0.0640306)
(0.0794714 -0.0684295 0.0373997)
(0.13674 -0.0462285 -0.00182604)
(0.177282 -0.0171804 -0.0496982)
(0.193149 0.0115387 -0.0981962)
(0.17714 0.026733 -0.134818)
(0.129295 0.0212172 -0.149063)
(0.0604802 0.00172361 -0.139522)
(-0.0148802 -0.020031 -0.112752)
(-0.0852087 -0.0373205 -0.0774888)
(-0.124137 -0.0470726 -0.0419342)
(-0.157236 -0.0349022 0.01471)
(-0.155084 -0.0435031 0.0465277)
(-0.139712 -0.0494856 0.0704526)
(-0.100127 -0.0523933 0.0833688)
(-0.0442493 -0.0512934 0.082947)
(0.019635 -0.0451158 0.0680353)
(0.0829126 -0.0327871 0.0392895)
(0.137205 -0.0130767 -0.000988519)
(0.175084 0.013763 -0.0485252)
(0.189828 0.0415578 -0.0954835)
(0.175784 0.0577549 -0.130123)
(0.132931 0.0540738 -0.142547)
(0.0700859 0.0356743 -0.131503)
(-0.000440244 0.0142197 -0.103435)
(-0.0677375 -0.00291687 -0.0670815)
(-0.108391 -0.0135507 -0.0311393)
(-0.133424 0.00903509 0.0327676)
(-0.136477 0.000313251 0.0624924)
(-0.123367 -0.00467504 0.0832416)
(-0.086658 -0.00699553 0.0921252)
(-0.0338306 -0.00611194 0.0874145)
(0.0268009 -0.00105323 0.06885)
(0.0865617 0.00942283 0.0380582)
(0.137255 0.0267077 -0.00190168)
(0.171994 0.0507061 -0.0464961)
(0.185252 0.0757788 -0.0884663)
(0.173071 0.0901259 -0.117714)
(0.135822 0.0854814 -0.126073)
(0.0803085 0.0666342 -0.112886)
(0.0161052 0.0455341 -0.0839816)
(-0.0470971 0.029686 -0.0474355)
(-0.088905 0.0199202 -0.0120976)
(-0.106576 0.0473323 0.0549407)
(-0.114702 0.0412365 0.0812563)
(-0.104338 0.0386884 0.0971332)
(-0.0710817 0.037975 0.100189)
(-0.0219245 0.0394106 0.0897048)
(0.0348793 0.0439343 0.0667261)
(0.0906597 0.0529145 0.0341485)
(0.137391 0.0677884 -0.00414688)
(0.168693 0.0882932 -0.043484)
(0.1802 0.108871 -0.0776269)
(0.169758 0.118427 -0.0989589)
(0.138455 0.109754 -0.102008)
(0.0910613 0.0887551 -0.0868307)
(0.0340493 0.0682355 -0.0578983)
(-0.0243355 0.0551701 -0.0218918)
(-0.066393 0.048561 0.0125753)
(-0.0810001 0.0746932 0.0772533)
(-0.0927529 0.0740674 0.100158)
(-0.0848648 0.0754675 0.110718)
(-0.0550583 0.0773769 0.107246)
(-0.00971484 0.0800942 0.0903501)
(0.0431141 0.0846003 0.062749)
(0.0948218 0.0923424 0.0287841)
(0.13749 0.104677 -0.00682657)
(0.165144 0.120868 -0.0394847)
(0.174521 0.13501 -0.0645546)
(0.165264 0.136656 -0.0775199)
(0.139162 0.120875 -0.0758159)
(0.0990175 0.0963618 -0.0596041)
(0.0486581 0.0770758 -0.0313575)
(-0.00467223 0.0685125 0.00384527)
(-0.0452654 0.0673384 0.0378027)
(-0.0649993 0.0866659 0.0951978)
(-0.0770608 0.0935184 0.115411)
(-0.0699344 0.10028 0.121544)
(-0.0423307 0.105939 0.112424)
(7.21046e-05 0.110853 0.0899137)
(0.0496021 0.116032 0.0584056)
(0.0977709 0.122923 0.0236755)
(0.136676 0.132625 -0.00877262)
(0.16066 0.143571 -0.0347621)
(0.167502 0.149068 -0.0518829)
(0.158202 0.13979 -0.0586274)
(0.134691 0.114739 -0.0542614)
(0.0983624 0.0866173 -0.0379739)
(0.0520292 0.0695394 -0.0104786)
(0.00291734 0.0664199 0.0239948)
(-0.0342092 0.0713439 0.0574581)
(-0.0676447 0.0804383 0.105165)
(-0.0757978 0.0946275 0.1227)
(-0.0668355 0.107254 0.125908)
(-0.0388895 0.117655 0.113561)
(0.00290665 0.126066 0.087996)
(0.0512982 0.1332 0.0545265)
(0.0978876 0.140173 0.0199359)
(0.134587 0.147453 -0.00969672)
(0.155665 0.152354 -0.0308741)
(0.159669 0.147498 -0.0430495)
(0.148221 0.125921 -0.0469774)
(0.122924 0.0919658 -0.0419017)
(0.0851356 0.0618012 -0.0256649)
(0.0387927 0.0478027 0.00160204)
(-0.00820975 0.0493697 0.0351778)
(-0.041177 0.0582038 0.0668485)
(-0.0916593 0.0565638 0.105001)
(-0.0929069 0.075505 0.119194)
(-0.0808179 0.0921703 0.12073)
(-0.0502258 0.106609 0.10798)
(-0.00597167 0.119035 0.0828161)
(0.0451074 0.129524 0.0500545)
(0.0945737 0.13834 0.0163777)
(0.133486 0.144835 -0.01184)
(0.154662 0.145068 -0.0310466)
(0.155506 0.131206 -0.0415479)
(0.137957 0.0993635 -0.0447679)
(0.105212 0.0592338 -0.0392528)
(0.0611041 0.0288127 -0.0224398)
(0.0114527 0.0176765 0.00475765)
(-0.0360123 0.0218368 0.0367814)
(-0.06546 0.0312748 0.0649655)
(-0.129559 0.0196711 0.0949819)
(-0.123218 0.039161 0.105866)
(-0.108952 0.0557744 0.106583)
(-0.0749467 0.071301 0.0951761)
(-0.0262084 0.0865863 0.0728231)
(0.0308214 0.101388 0.0429761)
(0.0877548 0.115075 0.011045)
(0.13441 0.125732 -0.0170116)
(0.160345 0.127239 -0.0368588)
(0.158474 0.10938 -0.0478599)
(0.130379 0.070611 -0.0507526)
(0.0851866 0.0267598 -0.0440818)
(0.0324497 -0.00301817 -0.0264614)
(-0.0212858 -0.0124671 0.000108916)
(-0.0706337 -0.00807618 0.0299437)
(-0.0971678 -0.000360793 0.0543043)
(-0.19081 -0.0159817 0.137504)
(-0.161069 0.0108543 0.122229)
(-0.132174 0.0333897 0.103032)
(-0.08301 0.0525777 0.077115)
(-0.0226708 0.0683483 0.0475692)
(0.0398365 0.0802853 0.0194598)
(0.0956192 0.0886065 -0.00169592)
(0.13614 0.093237 -0.0114152)
(0.154918 0.0903205 -0.00885361)
(0.148446 0.0712984 0.00182889)
(0.115913 0.0328883 0.0156815)
(0.0608509 -0.0119897 0.0322331)
(-0.00626872 -0.0435568 0.0527835)
(-0.0726299 -0.053602 0.0753495)
(-0.129644 -0.0476001 0.0953041)
(-0.150595 -0.0354597 0.103741)
(-0.215001 -0.0680794 0.112203)
(-0.181443 -0.0414708 0.0991689)
(-0.152535 -0.0190671 0.0846822)
(-0.100989 0.00192461 0.0652475)
(-0.0364702 0.0215789 0.0425013)
(0.031973 0.0391755 0.0196406)
(0.0950475 0.0539949 0.000631101)
(0.142663 0.0645296 -0.0104882)
(0.165645 0.0653944 -0.0118984)
(0.158207 0.0476281 -0.00582945)
(0.120116 0.0103021 0.0044461)
(0.0585192 -0.032198 0.0185713)
(-0.013468 -0.0628578 0.0367145)
(-0.083411 -0.0758843 0.0564637)
(-0.144155 -0.0754709 0.0739827)
(-0.165272 -0.0666356 0.081811)
(-0.224787 -0.110567 0.0819354)
(-0.190956 -0.0868417 0.0719705)
(-0.1627 -0.0680546 0.0614434)
(-0.110412 -0.0495039 0.0471167)
(-0.0439565 -0.0304554 0.0297646)
(0.027791 -0.0111586 0.0113002)
(0.0955924 0.00773884 -0.00568059)
(0.148933 0.024471 -0.0179857)
(0.177041 0.0331651 -0.0231081)
(0.171619 0.0238219 -0.0211574)
(0.131587 -0.00618577 -0.0137287)
(0.0660036 -0.0444797 -0.00136917)
(-0.0100318 -0.0752181 0.0150863)
(-0.0836397 -0.0917077 0.0329515)
(-0.147833 -0.0961857 0.0489724)
(-0.170235 -0.0898616 0.0575365)
(-0.223772 -0.137899 0.0505371)
(-0.192447 -0.118745 0.0444836)
(-0.164968 -0.104684 0.0376956)
(-0.11265 -0.0899081 0.0275961)
(-0.0454071 -0.0732087 0.0144391)
(0.0279235 -0.0543241 -0.000691817)
(0.0981549 -0.0334678 -0.0161748)
(0.15484 -0.0119357 -0.0296432)
(0.18688 0.00468877 -0.0383473)
(0.184548 0.00550143 -0.0405112)
(0.145317 -0.0151288 -0.0359292)
(0.0784449 -0.0479843 -0.0251724)
(6.31933e-05 -0.0781739 -0.00994459)
(-0.0762845 -0.0976656 0.00677634)
(-0.143105 -0.106594 0.02214)
(-0.167914 -0.103333 0.0323271)
(-0.216686 -0.147903 0.0213932)
(-0.189075 -0.134114 0.0195909)
(-0.162283 -0.124925 0.0163421)
(-0.110327 -0.114334 0.00975439)
(-0.0430252 -0.100856 -0.000227641)
(0.030676 -0.0837932 -0.0130509)
(0.101471 -0.0629135 -0.0277387)
(0.159071 -0.0388391 -0.0425731)
(0.192852 -0.0162437 -0.0547225)
(0.193093 -0.00610416 -0.0610643)
(0.156217 -0.0169501 -0.0595467)
(0.0904601 -0.0434774 -0.0503774)
(0.011786 -0.0721824 -0.035942)
(-0.0658301 -0.0937405 -0.0196272)
(-0.134124 -0.106239 -0.00415837)
(-0.161711 -0.10634 0.00806568)
(-0.207081 -0.141033 -0.00223771)
(-0.183254 -0.132738 -7.03195e-05)
(-0.157074 -0.128017 -0.000365538)
(-0.105792 -0.121435 -0.00434581)
(-0.0390522 -0.111407 -0.0122503)
(0.033998 -0.0969426 -0.0238343)
(0.103854 -0.0773951 -0.0384931)
(0.160414 -0.0527972 -0.0548909)
(0.193809 -0.0267654 -0.0702579)
(0.195286 -0.00963154 -0.0804894)
(0.161107 -0.01185 -0.0819467)
(0.0981258 -0.0319216 -0.0741723)
(0.0211756 -0.0582468 -0.0599693)
(-0.0559034 -0.0806516 -0.0432712)
(-0.124254 -0.0954787 -0.0269763)
(-0.154207 -0.0986651 -0.0126452)
(-0.196825 -0.11975 -0.0173083)
(-0.176353 -0.116443 -0.0121499)
(-0.150688 -0.115364 -0.0105649)
(-0.10035 -0.112175 -0.0132655)
(-0.0347876 -0.105352 -0.0204844)
(0.0366953 -0.0936939 -0.0320658)
(0.104437 -0.0762203 -0.0475044)
(0.158546 -0.0525248 -0.0656009)
(0.189979 -0.025379 -0.0835961)
(0.191344 -0.0041414 -0.0967891)
(0.159513 -3.12415e-05 -0.100433)
(0.100208 -0.0144743 -0.0933674)
(0.026615 -0.0379488 -0.0785937)
(-0.0481777 -0.0600305 -0.06066)
(-0.115125 -0.0758409 -0.0429124)
(-0.14663 -0.081379 -0.0267627)
(-0.186184 -0.0876528 -0.0212721)
(-0.168647 -0.0883429 -0.0148069)
(-0.143509 -0.0898001 -0.0130588)
(-0.0943782 -0.0891402 -0.0163238)
(-0.0305163 -0.0849781 -0.0246004)
(0.0386595 -0.0759511 -0.0375568)
(0.103433 -0.0608325 -0.0545023)
(0.154233 -0.038929 -0.0741287)
(0.182848 -0.0124645 -0.09364)
(0.183265 0.01016 -0.108102)
(0.153353 0.0178347 -0.112303)
(0.0981161 0.00736687 -0.104622)
(0.0289738 -0.0134686 -0.0881809)
(-0.0422454 -0.0344045 -0.0681067)
(-0.106718 -0.0499281 -0.0484889)
(-0.139017 -0.056768 -0.0311541)
(-0.17447 -0.0488382 -0.0125561)
(-0.159772 -0.0522275 -0.00706142)
(-0.135277 -0.0549952 -0.00742032)
(-0.0875818 -0.0558763 -0.0135179)
(-0.0257968 -0.0536716 -0.0248292)
(0.0405829 -0.0469045 -0.0405254)
(0.101903 -0.0341481 -0.0594313)
(0.149037 -0.0145635 -0.0799441)
(0.174618 0.00990116 -0.0992579)
(0.17389 0.031633 -0.112635)
(0.145758 0.0401219 -0.115066)
(0.0948232 0.0314843 -0.104974)
(0.0307854 0.012448 -0.085681)
(-0.036128 -0.00692782 -0.0628115)
(-0.0976186 -0.021012 -0.0411863)
(-0.130418 -0.0278486 -0.0236079)
(-0.160593 -0.00762896 0.00883949)
(-0.149088 -0.0121107 0.0109899)
(-0.125499 -0.0149483 0.00608281)
(-0.0794369 -0.0163906 -0.00523012)
(-0.0199365 -0.0154332 -0.0215377)
(0.043434 -0.0105176 -0.0411312)
(0.101166 -5.56094e-05 -0.0620958)
(0.14467 0.0168362 -0.0824138)
(0.167433 0.038287 -0.0993999)
(0.165822 0.0572579 -0.108988)
(0.139708 0.064028 -0.107085)
(0.093435 0.0548871 -0.092796)
(0.0349689 0.0364462 -0.0697976)
(-0.0273645 0.0188232 -0.0439234)
(-0.0859399 0.00730862 -0.0204942)
(-0.119493 0.00202564 -0.00361827)
(-0.144023 0.0315332 0.0408166)
(-0.136304 0.0279629 0.0379841)
(-0.113999 0.0262806 0.0265819)
(-0.0697265 0.0251641 0.00804986)
(-0.0125468 0.0254812 -0.0148732)
(0.0478615 0.0288644 -0.0391894)
(0.10216 0.0370294 -0.0620168)
(0.142316 0.0508553 -0.0808904)
(0.162641 0.0684238 -0.0934401)
(0.160537 0.0830274 -0.0967679)
(0.13682 0.0857108 -0.0884569)
(0.0956339 0.0736551 -0.0689682)
(0.0430435 0.0544785 -0.0423058)
(-0.0147532 0.0388315 -0.0138845)
(-0.0707613 0.0311646 0.0110094)
(-0.105515 0.029259 0.0268319)
(-0.126211 0.0639112 0.0788007)
(-0.122387 0.0637995 0.0709866)
(-0.101577 0.0645968 0.0524654)
(-0.0590777 0.0646528 0.0257334)
(-0.00402649 0.064845 -0.00470207)
(0.0537285 0.0669041 -0.0341281)
(0.104973 0.0726761 -0.0584825)
(0.142157 0.0830316 -0.0748772)
(0.160336 0.0958971 -0.0814866)
(0.157903 0.104573 -0.0771182)
(0.136616 0.100738 -0.0617596)
(0.100305 0.0832738 -0.0376783)
(0.0530413 0.0621031 -0.00871624)
(-0.000824535 0.0487909 0.0211257)
(-0.0545962 0.0463371 0.0472132)
(-0.0902056 0.0497393 0.06264)
(-0.112474 0.0841156 0.115876)
(-0.110874 0.0903687 0.104994)
(-0.0909429 0.0954008 0.0807961)
(-0.0495862 0.0978194 0.0466782)
(0.00401647 0.0986428 0.00911109)
(0.0598419 0.0997566 -0.025171)
(0.108718 0.103176 -0.0507247)
(0.143411 0.109766 -0.0642427)
(0.159593 0.117093 -0.0646646)
(0.156569 0.11805 -0.0530396)
(0.136767 0.105076 -0.0321881)
(0.103352 0.0799805 -0.00591377)
(0.0589109 0.0560239 0.0231191)
(0.00728149 0.0454005 0.0529493)
(-0.0445551 0.0487976 0.0798314)
(-0.0793953 0.0584868 0.0958557)
(-0.111399 0.0863511 0.144433)
(-0.108179 0.101014 0.132925)
(-0.0873827 0.112383 0.106564)
(-0.0454772 0.119152 0.0683465)
(0.00839747 0.12223 0.0259412)
(0.0640646 0.123508 -0.0120715)
(0.112237 0.125143 -0.0387409)
(0.14567 0.127957 -0.0501437)
(0.160251 0.128929 -0.0459353)
(0.155853 0.120433 -0.0295205)
(0.135023 0.0965052 -0.00641689)
(0.100239 0.0631802 0.0191644)
(0.0543374 0.0368582 0.0463879)
(0.00221105 0.0287555 0.0750827)
(-0.0486818 0.0367436 0.101835)
(-0.0809231 0.0510371 0.118161)
(-0.128858 0.0678996 0.158617)
(-0.120215 0.0899513 0.147532)
(-0.0973314 0.108038 0.122994)
(-0.0528138 0.120697 0.0857402)
(0.00434283 0.128162 0.0427198)
(0.0637539 0.131665 0.00308423)
(0.115532 0.13317 -0.0249224)
(0.151446 0.13343 -0.0361475)
(0.166171 0.128858 -0.0301666)
(0.158746 0.111453 -0.0121621)
(0.132037 0.077545 0.0102923)
(0.0902166 0.0376946 0.0334694)
(0.0385273 0.00994828 0.0581835)
(-0.0166763 0.00322317 0.0849102)
(-0.0682767 0.0130447 0.110171)
(-0.0973275 0.028408 0.125087)
(-0.16075 0.0325405 0.156339)
(-0.145645 0.0575053 0.145283)
(-0.121671 0.0794026 0.124438)
(-0.073787 0.0974098 0.0920017)
(-0.0108282 0.111056 0.0529442)
(0.056611 0.120146 0.0152017)
(0.117483 0.125581 -0.0128958)
(0.161426 0.127797 -0.0250465)
(0.179896 0.122201 -0.019869)
(0.168251 0.0991049 -0.00307757)
(0.130043 0.057251 0.0168219)
(0.0759999 0.0127834 0.0368408)
(0.0165974 -0.015632 0.0586264)
(-0.0418947 -0.0223447 0.0825661)
(-0.0951539 -0.0136366 0.105364)
(-0.121559 -0.000367774 0.117808)
(-0.192197 2.47552e-05 0.18293)
(-0.153027 0.0290279 0.141264)
(-0.115573 0.0535495 0.100378)
(-0.0599462 0.0721591 0.0574493)
(0.00327889 0.0841786 0.0178673)
(0.0643264 0.0898075 -0.011384)
(0.114885 0.0906686 -0.0242723)
(0.148103 0.0881853 -0.0172396)
(0.159404 0.079748 0.00860983)
(0.146374 0.0575805 0.0455689)
(0.108083 0.0184574 0.0834265)
(0.048204 -0.0253194 0.116178)
(-0.0217414 -0.0545668 0.142516)
(-0.0880915 -0.0610812 0.161074)
(-0.14243 -0.0499456 0.170001)
(-0.159449 -0.0314 0.162897)
(-0.209374 -0.0457576 0.156037)
(-0.168641 -0.0145735 0.119056)
(-0.131993 0.0134395 0.0854901)
(-0.0745271 0.0373984 0.0509724)
(-0.00688594 0.0558478 0.0187915)
(0.0609661 0.0680068 -0.00590947)
(0.119678 0.0744875 -0.0179154)
(0.160275 0.0758117 -0.0131634)
(0.17548 0.0685056 0.00859543)
(0.161005 0.0450623 0.040732)
(0.117039 0.00481921 0.0734443)
(0.0510802 -0.038427 0.101208)
(-0.0230099 -0.0683196 0.122983)
(-0.0923979 -0.0790487 0.137897)
(-0.150175 -0.0742588 0.144736)
(-0.168447 -0.0593569 0.13835)
(-0.212255 -0.0841621 0.116772)
(-0.173515 -0.0551373 0.0843567)
(-0.13866 -0.0291282 0.056254)
(-0.0816963 -0.00566965 0.0285295)
(-0.0128456 0.0141971 0.00320809)
(0.0583317 0.0297898 -0.0162262)
(0.122274 0.0413473 -0.0259848)
(0.168914 0.0487757 -0.0224838)
(0.188966 0.0479581 -0.00456158)
(0.175996 0.0306794 0.0230971)
(0.130053 -0.00458179 0.0521836)
(0.0607863 -0.0454701 0.0772737)
(-0.0163429 -0.0766742 0.0965969)
(-0.0884141 -0.0916706 0.109011)
(-0.148703 -0.0922752 0.113828)
(-0.168569 -0.0804066 0.108167)
(-0.205257 -0.109765 0.0723291)
(-0.170635 -0.085161 0.0446168)
(-0.137588 -0.0634288 0.0206699)
(-0.0820806 -0.0431077 -0.00203609)
(-0.0138418 -0.0246318 -0.0220149)
(0.0579398 -0.00817398 -0.0368286)
(0.123816 0.00667094 -0.0439356)
(0.173529 0.0197187 -0.0407621)
(0.197082 0.0265873 -0.0259868)
(0.186746 0.0180987 -0.00232601)
(0.141799 -0.0094446 0.0238523)
(0.0722958 -0.0461472 0.0472414)
(-0.00572989 -0.0775627 0.0651002)
(-0.0790701 -0.0960032 0.075847)
(-0.140555 -0.101393 0.0791542)
(-0.162392 -0.0931098 0.07456)
(-0.193721 -0.120908 0.0288814)
(-0.163624 -0.101722 0.00572148)
(-0.132121 -0.0852651 -0.0149351)
(-0.0784631 -0.0694044 -0.0340055)
(-0.011909 -0.0540127 -0.0501343)
(0.058522 -0.0386413 -0.0614615)
(0.123499 -0.0225153 -0.0663185)
(0.173052 -0.00564226 -0.0631734)
(0.197567 0.00778701 -0.0510055)
(0.18937 0.00816979 -0.0311249)
(0.147171 -0.0105436 -0.00777146)
(0.0801323 -0.0416516 0.0142135)
(0.00367992 -0.0719052 0.031249)
(-0.068977 -0.092499 0.0411631)
(-0.130078 -0.101566 0.043714)
(-0.153527 -0.0969872 0.0404521)
(-0.181705 -0.118415 -0.00832771)
(-0.155496 -0.104758 -0.0275631)
(-0.125269 -0.0936052 -0.0457193)
(-0.0736434 -0.0825499 -0.0623235)
(-0.00956876 -0.070942 -0.075951)
(0.0580396 -0.0577547 -0.0850419)
(0.119986 -0.0418403 -0.0885128)
(0.166814 -0.0230241 -0.0856645)
(0.189858 -0.00513252 -0.075901)
(0.182483 0.00242385 -0.0595665)
(0.143476 -0.00806585 -0.0390078)
(0.0806896 -0.0330256 -0.0182256)
(0.00804764 -0.0608499 -0.00136522)
(-0.0618107 -0.0820685 0.00867701)
(-0.120819 -0.0933736 0.0113871)
(-0.14487 -0.0920533 0.00963503)
(-0.171384 -0.104518 -0.0349339)
(-0.147923 -0.0958196 -0.051325)
(-0.118725 -0.08931 -0.0680796)
(-0.069274 -0.0826808 -0.0835846)
(-0.00827195 -0.0748116 -0.0961925)
(0.0554696 -0.0641889 -0.104453)
(0.112993 -0.0493744 -0.107647)
(0.155488 -0.030112 -0.105599)
(0.175426 -0.00993668 -0.0980039)
(0.167605 0.0022713 -0.0845653)
(0.131438 -0.0018817 -0.0661909)
(0.0736486 -0.0211854 -0.045969)
(0.00628923 -0.0458127 -0.0283369)
(-0.0590769 -0.0662162 -0.0170393)
(-0.114574 -0.0782801 -0.013261)
(-0.138032 -0.0793003 -0.0135617)
(-0.163295 -0.0820495 -0.0474607)
(-0.141459 -0.0773101 -0.062845)
(-0.112992 -0.0743993 -0.0798919)
(-0.0656727 -0.0713601 -0.0960947)
(-0.00800457 -0.0667289 -0.109442)
(0.0513622 -0.0586066 -0.118405)
(0.10384 -0.0453517 -0.122372)
(0.141368 -0.0267242 -0.121381)
(0.157549 -0.00611353 -0.11525)
(0.14857 0.0082157 -0.103309)
(0.114671 0.00795477 -0.0855838)
(0.0618089 -0.00705871 -0.0645242)
(0.000251356 -0.028479 -0.0448306)
(-0.0598813 -0.0470973 -0.0311707)
(-0.111194 -0.058557 -0.0255719)
(-0.13325 -0.0607016 -0.024838)
(-0.156723 -0.0539759 -0.0438029)
(-0.135743 -0.0519745 -0.0607395)
(-0.107656 -0.0514001 -0.0803904)
(-0.0621591 -0.050898 -0.0995212)
(-0.00764036 -0.0487961 -0.115566)
(0.0474499 -0.0429123 -0.126681)
(0.0949926 -0.0314651 -0.132097)
(0.127739 -0.0142867 -0.131831)
(0.140333 0.00527233 -0.125752)
(0.130117 0.0195239 -0.113118)
(0.098051 0.0206897 -0.0936894)
(0.0495882 0.00812817 -0.069774)
(-0.00653739 -0.0107167 -0.0465125)
(-0.0616514 -0.0270799 -0.0295212)
(-0.10898 -0.0367754 -0.0218407)
(-0.129585 -0.0387654 -0.0211012)
(-0.150374 -0.0230525 -0.0235503)
(-0.129985 -0.0224942 -0.044937)
(-0.10192 -0.0229836 -0.0698221)
(-0.0576946 -0.0239566 -0.0942889)
(-0.00571926 -0.0236714 -0.114952)
(0.0457221 -0.0197639 -0.129378)
(0.089014 -0.0103517 -0.136418)
(0.117717 0.004665 -0.135928)
(0.127401 0.0219434 -0.127895)
(0.116304 0.0342987 -0.111898)
(0.0859321 0.0346586 -0.0880863)
(0.0413241 0.0226056 -0.0592447)
(-0.0101642 0.0054304 -0.0311775)
(-0.0612365 -0.00841288 -0.0103708)
(-0.105622 -0.0153372 -0.00078904)
(-0.125518 -0.0158962 -0.00138309)
(-0.143119 0.00818272 0.0116009)
(-0.123533 0.00862617 -0.0166379)
(-0.095235 0.00820832 -0.0491005)
(-0.0516021 0.00668526 -0.081071)
(-0.00127892 0.00573149 -0.107981)
(0.0474897 0.00780764 -0.126513)
(0.087546 0.0148815 -0.134952)
(0.113197 0.0270377 -0.132971)
(0.12082 0.0409744 -0.120847)
(0.109382 0.0499034 -0.0989393)
(0.0808202 0.0474662 -0.0685029)
(0.0397333 0.0340177 -0.0334105)
(-0.00798045 0.0175502 -0.000213666)
(-0.0563662 0.00652338 0.0242353)
(-0.0993292 0.00346604 0.0353729)
(-0.119751 0.00571695 0.0324743)
(-0.135072 0.0369285 0.0576101)
(-0.116635 0.0388552 0.0216507)
(-0.0878947 0.0395463 -0.019643)
(-0.0441222 0.0382465 -0.0605151)
(0.00559048 0.0365058 -0.0948031)
(0.0528551 0.0367979 -0.117913)
(0.0908194 0.041181 -0.127416)
(0.114416 0.0498104 -0.122826)
(0.120727 0.0594547 -0.104946)
(0.109394 0.0635411 -0.0754522)
(0.0827243 0.0563496 -0.0374624)
(0.0447086 0.0395793 0.00355624)
(-0.00031274 0.0228812 0.0407605)
(-0.0474773 0.0150653 0.0679345)
(-0.0904895 0.0170792 0.0805024)
(-0.112415 0.0236319 0.0756193)
(-0.128944 0.0593085 0.107881)
(-0.111179 0.0649796 0.0656614)
(-0.0815855 0.06813 0.0162539)
(-0.0367439 0.0679749 -0.0335115)
(0.0136023 0.0660145 -0.075446)
(0.0607036 0.0646877 -0.103305)
(0.0978169 0.0661671 -0.113732)
(0.120307 0.0707554 -0.106077)
(0.125833 0.0752165 -0.0818914)
(0.114658 0.0729234 -0.0447366)
(0.0892618 0.0588248 -0.000295021)
(0.0527841 0.0367872 0.0442535)
(0.00840626 0.0189474 0.082793)
(-0.039257 0.0144808 0.111052)
(-0.0833261 0.0223105 0.125059)
(-0.106636 0.0343259 0.119861)
(-0.130558 0.0697136 0.153728)
(-0.111304 0.0818574 0.108884)
(-0.0798799 0.0896143 0.0548102)
(-0.0325178 0.0922597 -0.00158484)
(0.0202827 0.0912295 -0.0501736)
(0.0691662 0.0889089 -0.0827011)
(0.107218 0.0876611 -0.0945195)
(0.129886 0.0879801 -0.0845708)
(0.135064 0.0864864 -0.0551457)
(0.123354 0.0763465 -0.0121033)
(0.0970904 0.0535421 0.0357885)
(0.0586854 0.0249836 0.080171)
(0.0115538 0.00533548 0.116841)
(-0.0386288 0.00347325 0.144115)
(-0.0844602 0.0162517 0.159095)
(-0.107997 0.0333 0.155179)
(-0.14553 0.062942 0.18621)
(-0.122105 0.0828161 0.142592)
(-0.0881674 0.097176 0.0894844)
(-0.0363916 0.104839 0.0313416)
(0.0219064 0.106697 -0.0211158)
(0.0762882 0.104813 -0.057738)
(0.118954 0.101786 -0.0720425)
(0.144568 0.0985173 -0.0617961)
(0.150283 0.0915443 -0.0294687)
(0.136135 0.0737158 0.0165486)
(0.104528 0.0422314 0.0641736)
(0.0591578 0.00726439 0.104835)
(0.005751 -0.0146046 0.137145)
(-0.0485864 -0.0156785 0.161688)
(-0.0969248 -0.000627566 0.176446)
(-0.119726 0.0190118 0.173822)
(-0.172458 0.0394038 0.198585)
(-0.144483 0.0649144 0.158047)
(-0.1093 0.0863607 0.110611)
(-0.0522582 0.10155 0.0565897)
(0.0146873 0.109802 0.00529088)
(0.0793883 0.111771 -0.0325922)
(0.131897 0.109832 -0.0489621)
(0.164849 0.105683 -0.0398522)
(0.17316 0.0958398 -0.00720703)
(0.15431 0.0717379 0.0381964)
(0.111514 0.032097 0.0815)
(0.0545339 -0.00844733 0.115371)
(-0.00624753 -0.0324331 0.141559)
(-0.0641753 -0.0345962 0.162217)
(-0.115202 -0.020792 0.175799)
(-0.137488 -0.0019918 0.17384)
(-0.167541 0.0132342 0.205613)
(-0.121621 0.0417272 0.137994)
(-0.0776719 0.0652371 0.0749647)
(-0.0218971 0.0809678 0.0167528)
(0.0352541 0.0879594 -0.029003)
(0.0851269 0.0871937 -0.0548507)
(0.121864 0.0814883 -0.0558531)
(0.141616 0.0730864 -0.0302617)
(0.142548 0.0601563 0.0187989)
(0.123977 0.0364353 0.0814579)
(0.0849133 -0.000871497 0.143375)
(0.027537 -0.0410479 0.192486)
(-0.0378286 -0.0661905 0.223784)
(-0.097444 -0.0680123 0.236798)
(-0.142504 -0.0512175 0.232729)
(-0.153327 -0.0266491 0.209301)
(-0.178675 -0.0164765 0.181437)
(-0.133722 0.0161189 0.121505)
(-0.0909615 0.0457684 0.0680988)
(-0.0330285 0.0684722 0.0189149)
(0.029655 0.0818958 -0.0205334)
(0.0876164 0.0861269 -0.0438203)
(0.133223 0.083588 -0.0456779)
(0.160319 0.076419 -0.0230741)
(0.164919 0.0625218 0.0221778)
(0.145111 0.0358891 0.0801323)
(0.10096 -0.00418115 0.135394)
(0.0379038 -0.0455745 0.176604)
(-0.031547 -0.0727619 0.201015)
(-0.0944239 -0.0793848 0.209755)
(-0.143358 -0.0685348 0.204526)
(-0.157107 -0.0468809 0.183706)
(-0.176302 -0.0440795 0.137777)
(-0.135926 -0.0126605 0.0852564)
(-0.0961954 0.0168761 0.0401516)
(-0.0393785 0.0408797 -3.02862e-05)
(0.0249059 0.0570375 -0.0316171)
(0.0872996 0.0652529 -0.0498486)
(0.139184 0.0674631 -0.0503384)
(0.172669 0.0652275 -0.0298239)
(0.18178 0.055868 0.0110582)
(0.163105 0.0328886 0.0636947)
(0.117027 -0.00481512 0.113726)
(0.0511522 -0.0459157 0.15045)
(-0.0205905 -0.0755337 0.171045)
(-0.0854537 -0.086763 0.176458)
(-0.136441 -0.0811034 0.168798)
(-0.152417 -0.0624667 0.148713)
(-0.164807 -0.0641939 0.0848522)
(-0.130552 -0.0367201 0.0389896)
(-0.0941909 -0.0106996 4.56289e-05)
(-0.040152 0.0110276 -0.0331531)
(0.0228269 0.0267761 -0.057858)
(0.0858261 0.0368771 -0.0705742)
(0.140007 0.0431726 -0.0681343)
(0.176774 0.0466717 -0.0480876)
(0.189162 0.0440211 -0.0108031)
(0.172708 0.0278428 0.0367866)
(0.127666 -0.0042375 0.0824714)
(0.0624625 -0.0425348 0.116227)
(-0.0087209 -0.0729646 0.134421)
(-0.0733939 -0.0877768 0.137353)
(-0.124435 -0.0868727 0.127378)
(-0.141978 -0.0720975 0.107604)
(-0.149891 -0.0751287 0.0315593)
(-0.121463 -0.0529958 -0.00865853)
(-0.0881953 -0.0323884 -0.0432101)
(-0.0376245 -0.0151867 -0.071518)
(0.022153 -0.00212923 -0.0910612)
(0.0826209 0.0078828 -0.0990527)
(0.135149 0.0167923 -0.0933998)
(0.171377 0.0251558 -0.0729182)
(0.184453 0.029146 -0.0384929)
(0.169915 0.0207793 0.00439907)
(0.127985 -0.00380634 0.0459695)
(0.0665986 -0.0372587 0.0772584)
(-0.000982541 -0.066671 0.0938687)
(-0.0628963 -0.0835333 0.0952636)
(-0.111859 -0.0862988 0.0837755)
(-0.129738 -0.0755405 0.0644684)
(-0.136046 -0.0773083 -0.015185)
(-0.112096 -0.0607617 -0.0508843)
(-0.0814962 -0.0461364 -0.082324)
(-0.0347534 -0.0343255 -0.107388)
(0.0205052 -0.0250003 -0.123391)
(0.0761296 -0.0162872 -0.127943)
(0.123976 -0.0061588 -0.119834)
(0.156482 0.00552143 -0.0990927)
(0.167714 0.0146579 -0.0673033)
(0.15406 0.0132298 -0.0289179)
(0.116019 -0.00376929 0.00860965)
(0.0605095 -0.0313434 0.0376797)
(-0.000933642 -0.0581312 0.0534504)
(-0.0576255 -0.0753145 0.054473)
(-0.102463 -0.0803039 0.0426703)
(-0.119063 -0.0730285 0.0242822)
(-0.125574 -0.0722671 -0.0500924)
(-0.104408 -0.0606547 -0.0826153)
(-0.0760697 -0.05153 -0.112268)
(-0.0333 -0.0448484 -0.135634)
(0.0166087 -0.0392953 -0.149735)
(0.0659628 -0.0323787 -0.152431)
(0.10735 -0.0220792 -0.143197)
(0.134272 -0.00865657 -0.122958)
(0.142024 0.00365306 -0.0937873)
(0.128202 0.00714248 -0.0593467)
(0.0938629 -0.00362272 -0.0251767)
(0.0449562 -0.0254851 0.00244906)
(-0.00896702 -0.0487377 0.0184937)
(-0.0588137 -0.0648091 0.0205302)
(-0.0980626 -0.0705053 0.00967935)
(-0.111906 -0.0656433 -0.00734582)
(-0.118942 -0.0618928 -0.0694029)
(-0.0989242 -0.0540154 -0.100688)
(-0.072267 -0.049175 -0.130337)
(-0.0332505 -0.0466449 -0.153861)
(0.0111527 -0.0443217 -0.167917)
(0.0538373 -0.03928 -0.170474)
(0.0882797 -0.0295635 -0.161441)
(0.109115 -0.0157683 -0.142253)
(0.112848 -0.00219922 -0.115179)
(0.0982274 0.00391969 -0.0832659)
(0.0668878 -0.00269071 -0.0507164)
(0.0240662 -0.0199674 -0.0228339)
(-0.0224304 -0.0396187 -0.00493131)
(-0.0650682 -0.0536503 -0.000521032)