/*--------------------------------*- C++ -*----------------------------------*\
| =========                 |                                                 |
| \\      /  F ield         | OpenFOAM: The Open Source CFD Toolbox           |
|  \\    /   O peration     | Version:  3.0.0                                 |
|   \\  /    A nd           | Web:      www.OpenFOAM.org                      |
|    \\/     M anipulation  |                                                 |
\*---------------------------------------------------------------------------*/
FoamFile
{
    version     2.0;
    format      ascii;
    class       volScalarField;
    location    "398";
    object      nuTilda;
}
// * * * * * * * * * * * * * * * * * * * * * * * * * * * * * * * * * * * * * //

dimensions      [0 2 -1 0 0 0 0];

internalField   nonuniform List<scalar> 
10720
(
0.0970354
0.10172
0.10706
0.112923
0.119613
0.127142
0.135644
0.144922
0.154931
0.165224
0.175311
0.184247
0.19147
0.196807
0.200258
0.202029
0.202336
0.201466
0.199536
0.196738
0.193046
0.188541
0.18326
0.177446
0.171528
0.165786
0.160191
0.154591
0.148882
0.143057
0.13711
0.131008
0.124713
0.118172
0.111193
0.103653
0.0944037
0.0841096
0.060707
0.0925803
0.0878638
0.0827935
0.0767363
0.0697572
0.061316
0.0506464
0.0381741
0.0346933
0.032488
0.0392038
0.0457592
0.0510342
0.055572
0.0598374
0.0640448
0.0682468
0.072415
0.0764961
0.0804577
0.08429
0.0879993
0.0916001
0.0950833
0.0982656
0.10093
0.103049
0.104668
0.105842
0.106602
0.106995
0.107107
0.107
0.106644
0.105944
0.10488
0.103005
0.100821
0.09168
0.100382
0.1
0.0993454
0.0984469
0.0974908
0.0964189
0.0953195
0.0943278
0.0944071
0.0955138
0.0973173
0.100234
0.104236
0.109159
0.115014
0.121513
0.128536
0.135819
0.14321
0.150348
0.157102
0.16306
0.167887
0.171161
0.172447
0.171829
0.169704
0.166409
0.162293
0.157642
0.152672
0.147538
0.142353
0.137213
0.132227
0.127492
0.123229
0.119419
0.114071
0.100772
0.100851
0.101063
0.100806
0.100295
0.0994764
0.0981877
0.0962535
0.0933324
0.0899511
0.0858502
0.0815768
0.077384
0.0733137
0.0694734
0.0659154
0.0627147
0.0598974
0.0574849
0.0554673
0.0538388
0.0525799
0.0516673
0.0510584
0.0507266
0.0506399
0.0507375
0.0509545
0.0512349
0.0515831
0.0526412
0.0550167
0.0582442
0.0616346
0.0647457
0.0675409
0.0699124
0.0740236
0.0776995
0.121955
0.121784
0.121404
0.120816
0.120135
0.119253
0.118171
0.116951
0.115524
0.114155
0.112992
0.112111
0.111479
0.111073
0.11076
0.11059
0.11065
0.110996
0.11134
0.110935
0.111066
0.111939
0.113371
0.118316
0.125453
0.132888
0.139701
0.145471
0.150022
0.153298
0.155368
0.15639
0.156573
0.156122
0.155235
0.153959
0.152686
0.150006
0.15009
0.122125
0.122072
0.122079
0.121818
0.121369
0.120694
0.119714
0.118392
0.116751
0.114742
0.112366
0.109689
0.106764
0.103605
0.100299
0.09689
0.0934419
0.0900017
0.086623
0.0833205
0.0801226
0.0770272
0.0740367
0.0710622
0.0680547
0.0650771
0.0621699
0.0593753
0.0567242
0.0542511
0.0519562
0.0503191
0.050179
0.0511666
0.0528391
0.0549934
0.0575575
0.0604662
0.0654885
0.129093
0.128986
0.128777
0.128464
0.128086
0.1276
0.127001
0.12631
0.125493
0.124562
0.123517
0.122361
0.12116
0.120017
0.118831
0.117279
0.115474
0.113521
0.111441
0.109218
0.106967
0.10484
0.102885
0.101612
0.101429
0.10242
0.104535
0.110394
0.117874
0.125834
0.133725
0.141156
0.147885
0.153816
0.159011
0.163502
0.167712
0.170122
0.173443
0.129174
0.129171
0.129157
0.129023
0.128789
0.12843
0.127907
0.127197
0.12629
0.125163
0.12381
0.122245
0.120477
0.118496
0.116333
0.114001
0.111527
0.108939
0.106271
0.103541
0.100775
0.0979825
0.0951604
0.092226
0.0891146
0.0858725
0.0825294
0.0791216
0.0756816
0.0722416
0.0688301
0.0654815
0.0623024
0.0594468
0.0568873
0.0555605
0.0558747
0.0566283
0.0593103
0.1327
0.132627
0.132486
0.132284
0.132042
0.13173
0.131348
0.130905
0.130384
0.129787
0.12911
0.128343
0.127481
0.126519
0.12545
0.124257
0.122896
0.121338
0.119545
0.117511
0.115211
0.112688
0.109933
0.10731
0.105261
0.10367
0.102332
0.100987
0.100878
0.102221
0.107705
0.11543
0.124535
0.134453
0.144762
0.155193
0.165851
0.176142
0.185671
0.132756
0.13275
0.132743
0.132652
0.132503
0.132268
0.131933
0.131487
0.13092
0.130225
0.129397
0.128438
0.127346
0.12611
0.124742
0.123235
0.121598
0.119838
0.11797
0.115997
0.113934
0.111781
0.109531
0.107116
0.104481
0.101647
0.098629
0.0954487
0.0921268
0.0886864
0.0851515
0.0815492
0.0779013
0.0742457
0.0705999
0.0670282
0.0638353
0.0605529
0.059078
0.134759
0.134706
0.134611
0.134474
0.134306
0.134092
0.133831
0.133527
0.133171
0.132761
0.132297
0.131769
0.131173
0.130502
0.129745
0.128893
0.127924
0.12682
0.125546
0.124078
0.12237
0.1204
0.118126
0.115609
0.113013
0.11045
0.10788
0.1057
0.103893
0.102193
0.100856
0.100923
0.104952
0.112281
0.122439
0.135195
0.15031
0.168399
0.187006
0.134795
0.134792
0.134786
0.134724
0.134623
0.134461
0.134228
0.133921
0.133538
0.133074
0.132524
0.131891
0.131173
0.130361
0.129459
0.128461
0.127367
0.126176
0.124893
0.123515
0.122046
0.12048
0.118807
0.116973
0.114927
0.112674
0.110214
0.10755
0.104691
0.101644
0.0984233
0.0950452
0.0915252
0.0878791
0.0841204
0.0802079
0.0761544
0.0716453
0.064781
0.136073
0.136035
0.135965
0.135865
0.135744
0.135589
0.135401
0.135183
0.134927
0.134634
0.134301
0.133922
0.133495
0.133014
0.132468
0.131852
0.131151
0.130352
0.129432
0.128373
0.127142
0.125715
0.124057
0.122151
0.120028
0.117726
0.115236
0.112655
0.110071
0.107449
0.105242
0.103272
0.101526
0.101307
0.105558
0.114476
0.128482
0.150233
0.17803
0.136099
0.136096
0.136089
0.136044
0.135972
0.135853
0.135681
0.135457
0.135181
0.134851
0.134464
0.134022
0.133522
0.132961
0.132338
0.131649
0.13089
0.13006
0.129161
0.128187
0.127139
0.126008
0.124782
0.123423
0.121885
0.120165
0.118254
0.116144
0.113831
0.11131
0.108582
0.105649
0.102516
0.0991885
0.0956675
0.091917
0.0878314
0.0834102
0.074587
0.136975
0.136946
0.136894
0.136819
0.136728
0.136611
0.13647
0.136306
0.136114
0.135894
0.135645
0.135361
0.135041
0.134679
0.134269
0.133805
0.133276
0.132674
0.131983
0.131189
0.130273
0.129218
0.128
0.1266
0.125021
0.123256
0.121276
0.119065
0.116643
0.114016
0.111317
0.108553
0.106033
0.103778
0.102026
0.102798
0.110126
0.128256
0.161054
0.136993
0.136989
0.136983
0.136948
0.136894
0.136804
0.136672
0.136501
0.136294
0.136047
0.135761
0.135437
0.135075
0.13467
0.134222
0.133727
0.133183
0.132587
0.131938
0.131232
0.130467
0.129636
0.12873
0.127717
0.126564
0.125263
0.123802
0.122169
0.120353
0.118341
0.116125
0.113695
0.111047
0.108173
0.10506
0.101678
0.0978623
0.0938157
0.084946
0.137628
0.137606
0.137566
0.137508
0.137437
0.137347
0.137238
0.137112
0.136964
0.136795
0.136604
0.136387
0.136142
0.135866
0.135554
0.1352
0.134797
0.134339
0.133811
0.133205
0.132503
0.131693
0.130761
0.129695
0.128498
0.127159
0.125644
0.123922
0.12197
0.119763
0.1173
0.114586
0.111739
0.108756
0.106046
0.103576
0.10254
0.110771
0.14083
0.137641
0.137637
0.13763
0.137601
0.13756
0.13749
0.137385
0.13725
0.137088
0.136898
0.136679
0.136433
0.136161
0.135858
0.135525
0.135159
0.134756
0.134315
0.133835
0.13331
0.13274
0.132117
0.131434
0.130667
0.129792
0.1288
0.127679
0.126418
0.125003
0.12342
0.121655
0.119694
0.117522
0.115125
0.11248
0.109554
0.106158
0.102568
0.0943898
0.13812
0.138103
0.138071
0.138025
0.13797
0.137897
0.13781
0.13771
0.137592
0.137458
0.137307
0.137135
0.136942
0.136724
0.136478
0.136199
0.135882
0.135521
0.135108
0.134635
0.13409
0.133462
0.132739
0.131912
0.130984
0.129946
0.128773
0.127439
0.125916
0.124168
0.122161
0.119862
0.117265
0.114348
0.111228
0.107971
0.104893
0.10273
0.123163
0.13813
0.138124
0.138117
0.138092
0.13806
0.138004
0.137919
0.13781
0.137681
0.13753
0.137357
0.137165
0.136954
0.136721
0.136467
0.136188
0.135883
0.135548
0.135184
0.134786
0.134351
0.133875
0.133351
0.13276
0.132085
0.131317
0.130448
0.129467
0.12836
0.127114
0.125715
0.124147
0.122393
0.120433
0.118238
0.115776
0.112853
0.109755
0.102534
0.138503
0.13849
0.138464
0.138427
0.138381
0.138322
0.138251
0.138169
0.138073
0.137965
0.137842
0.137704
0.137549
0.137375
0.137178
0.136956
0.136704
0.136417
0.136089
0.135713
0.135279
0.13478
0.134206
0.133553
0.132819
0.131998
0.131071
0.130019
0.128819
0.12744
0.125848
0.123999
0.121846
0.119333
0.116432
0.113044
0.109579
0.103875
0.11256
0.13851
0.138504
0.138496
0.138474
0.138448
0.138403
0.138333
0.138243
0.138137
0.138014
0.137875
0.137722
0.137554
0.137371
0.137172
0.136955
0.136718
0.13646
0.136177
0.135869
0.135532
0.135161
0.134752
0.134289
0.13376
0.133158
0.132475
0.131702
0.130829
0.129842
0.128729
0.127474
0.126061
0.124471
0.122672
0.120634
0.118172
0.115556
0.109363
0.138809
0.138798
0.138777
0.138746
0.138708
0.138658
0.138598
0.13853
0.13845
0.13836
0.138259
0.138146
0.138018
0.137876
0.137715
0.137534
0.137329
0.137096
0.13683
0.136527
0.136177
0.135776
0.135317
0.134793
0.134206
0.133548
0.132805
0.131961
0.130999
0.129896
0.128624
0.127145
0.125412
0.123355
0.120906
0.117855
0.114468
0.108736
0.108571
0.138814
0.138807
0.138798
0.138778
0.138757
0.138719
0.138661
0.138586
0.138497
0.138396
0.138281
0.138156
0.138021
0.137874
0.137715
0.137543
0.137356
0.137152
0.13693
0.136687
0.136421
0.136129
0.135804
0.135437
0.135016
0.134537
0.133994
0.133378
0.132681
0.131891
0.130999
0.12999
0.128849
0.127559
0.126089
0.124414
0.122364
0.120184
0.114987
0.139058
0.139049
0.139031
0.139004
0.138971
0.138928
0.138877
0.138819
0.138751
0.138676
0.138591
0.138496
0.13839
0.138272
0.138139
0.13799
0.137821
0.13763
0.137411
0.137162
0.136877
0.13655
0.136175
0.135751
0.135274
0.134741
0.134138
0.133454
0.132673
0.131778
0.130747
0.129551
0.128151
0.126486
0.124488
0.121938
0.118895
0.113991
0.109253
0.139062
0.139054
0.139043
0.139025
0.139008
0.138976
0.138927
0.138863
0.138788
0.138703
0.138607
0.138504
0.138393
0.138273
0.138144
0.138005
0.137855
0.137692
0.137514
0.13732
0.137108
0.136873
0.136613
0.136317
0.135979
0.135593
0.135156
0.134659
0.134097
0.13346
0.132738
0.13192
0.130993
0.129942
0.128739
0.127363
0.125665
0.12386
0.119562
0.139264
0.139257
0.13924
0.139216
0.139187
0.13915
0.139105
0.139054
0.138996
0.138932
0.13886
0.13878
0.13869
0.138591
0.13848
0.138355
0.138214
0.138054
0.137873
0.137666
0.13743
0.13716
0.136852
0.136503
0.136113
0.135677
0.135183
0.134622
0.133981
0.133248
0.132402
0.131422
0.130278
0.128921
0.127292
0.12522
0.122622
0.118637
0.112456
0.139266
0.139258
0.139247
0.139229
0.139215
0.139188
0.139146
0.139091
0.139027
0.138955
0.138874
0.138787
0.138694
0.138595
0.138489
0.138376
0.138254
0.138121
0.137977
0.13782
0.137648
0.137458
0.137247
0.137006
0.136731
0.136417
0.136061
0.135657
0.135199
0.13468
0.134091
0.133423
0.132665
0.131803
0.130814
0.12968
0.128274
0.126779
0.123258
0.139436
0.13943
0.139414
0.139393
0.139367
0.139333
0.139293
0.139249
0.139199
0.139143
0.139081
0.139012
0.138937
0.138852
0.138758
0.138652
0.138534
0.138399
0.138247
0.138074
0.137876
0.137651
0.137395
0.137105
0.136782
0.136421
0.136013
0.135549
0.13502
0.134413
0.133715
0.132904
0.131958
0.130839
0.129498
0.127813
0.12564
0.122528
0.116311
0.139438
0.13943
0.139418
0.139401
0.139388
0.139366
0.139329
0.139282
0.139227
0.139164
0.139095
0.139021
0.138943
0.13886
0.138772
0.138678
0.138577
0.138468
0.13835
0.138222
0.138081
0.137926
0.137752
0.137555
0.137328
0.137071
0.136778
0.136447
0.13607
0.135643
0.135159
0.13461
0.133985
0.133274
0.132456
0.131518
0.130351
0.129108
0.126235
0.139583
0.139576
0.139562
0.139542
0.139517
0.139487
0.139451
0.139412
0.139368
0.139319
0.139266
0.139207
0.139142
0.13907
0.138989
0.138899
0.138798
0.138684
0.138555
0.138409
0.138242
0.138052
0.137837
0.137595
0.137325
0.137023
0.136682
0.136296
0.135855
0.13535
0.134768
0.134093
0.133306
0.132374
0.131257
0.129871
0.128056
0.125653
0.12007
0.139584
0.139576
0.139564
0.139546
0.139536
0.139516
0.139485
0.139443
0.139395
0.139341
0.139281
0.139218
0.139151
0.13908
0.139006
0.138927
0.138843
0.138753
0.138656
0.13855
0.138433
0.138305
0.138161
0.137998
0.13781
0.137597
0.137355
0.13708
0.136769
0.136415
0.136014
0.135559
0.13504
0.13445
0.133771
0.132989
0.132018
0.130979
0.128637
0.139708
0.139701
0.139687
0.139668
0.139645
0.139617
0.139585
0.13955
0.139511
0.139469
0.139423
0.139372
0.139315
0.139253
0.139184
0.139107
0.139021
0.138923
0.138813
0.138688
0.138546
0.138385
0.138203
0.137998
0.13777
0.137517
0.13723
0.136905
0.136535
0.136111
0.135623
0.135058
0.134398
0.133618
0.132682
0.131529
0.130001
0.12812
0.123397
0.139709
0.139702
0.139688
0.139671
0.139662
0.139645
0.139617
0.139581
0.139539
0.139491
0.139439
0.139384
0.139326
0.139266
0.139203
0.139136
0.139066
0.13899
0.138909
0.13882
0.138723
0.138616
0.138497
0.13836
0.138204
0.138026
0.137824
0.137595
0.137336
0.137041
0.136706
0.136327
0.135894
0.135401
0.134833
0.13418
0.133367
0.132495
0.130582
0.139816
0.139809
0.139794
0.139775
0.139754
0.139728
0.1397
0.139669
0.139635
0.139598
0.139557
0.139513
0.139464
0.139411
0.139351
0.139285
0.13921
0.139126
0.139032
0.138924
0.138803
0.138665
0.138509
0.138335
0.138142
0.137927
0.137684
0.137409
0.137096
0.136738
0.136326
0.135849
0.135293
0.134636
0.133847
0.132881
0.131589
0.130073
0.126197
0.139817
0.13981
0.139797
0.139779
0.139771
0.139756
0.139732
0.1397
0.139663
0.13962
0.139574
0.139526
0.139476
0.139424
0.13937
0.139313
0.139253
0.139189
0.139121
0.139046
0.138965
0.138876
0.138775
0.138661
0.138529
0.13838
0.138211
0.138019
0.137801
0.137554
0.137274
0.136955
0.136592
0.136178
0.135701
0.135151
0.134469
0.133732
0.132166
0.139909
0.139901
0.139886
0.139868
0.139848
0.139825
0.139799
0.139772
0.139742
0.139709
0.139674
0.139636
0.139594
0.139548
0.139496
0.139439
0.139374
0.139302
0.13922
0.139127
0.139022
0.138903
0.13877
0.13862
0.138455
0.138272
0.138065
0.13783
0.137564
0.137259
0.136909
0.136505
0.136033
0.135477
0.134809
0.133995
0.132901
0.131645
0.128499
0.139911
0.139905
0.139891
0.139873
0.139866
0.139853
0.139832
0.139803
0.13977
0.139732
0.139692
0.139649
0.139605
0.13956
0.139513
0.139464
0.139413
0.139358
0.1393
0.139238
0.139169
0.139094
0.139009
0.138912
0.138801
0.138675
0.138533
0.138371
0.138187
0.137979
0.137742
0.137474
0.137168
0.136818
0.136416
0.135951
0.135377
0.134752
0.133465
0.139991
0.139981
0.139966
0.139949
0.13993
0.139909
0.139886
0.139862
0.139836
0.139808
0.139778
0.139745
0.139708
0.139668
0.139624
0.139574
0.139518
0.139455
0.139384
0.139303
0.139212
0.139109
0.138994
0.138865
0.138723
0.138565
0.138387
0.138186
0.137958
0.137698
0.137399
0.137054
0.136652
0.136178
0.13561
0.13492
0.133994
0.13293
0.13041
0.139994
0.139988
0.139974
0.139956
0.139949
0.139939
0.13992
0.139894
0.139864
0.13983
0.139793
0.139755
0.139717
0.139677
0.139636
0.139594
0.13955
0.139504
0.139454
0.139401
0.139343
0.139279
0.139207
0.139125
0.139031
0.138924
0.138803
0.138666
0.138511
0.138334
0.138134
0.137906
0.137647
0.137351
0.13701
0.136616
0.13613
0.135597
0.134536
0.140062
0.140052
0.140036
0.14002
0.140002
0.139983
0.139963
0.139942
0.13992
0.139896
0.13987
0.139842
0.139811
0.139776
0.139737
0.139694
0.139645
0.13959
0.139528
0.139458
0.139378
0.139289
0.139188
0.139077
0.138954
0.138817
0.138664
0.138491
0.138294
0.13807
0.137813
0.137517
0.137173
0.136768
0.136282
0.135694
0.134911
0.133994
0.132001
0.140066
0.140061
0.140047
0.140029
0.140023
0.140014
0.139997
0.139974
0.139946
0.139916
0.139883
0.139849
0.139814
0.139779
0.139743
0.139707
0.139669
0.139629
0.139587
0.139541
0.139492
0.139437
0.139376
0.139306
0.139226
0.139135
0.139032
0.138916
0.138784
0.138634
0.138463
0.13827
0.138049
0.137797
0.137507
0.137172
0.136759
0.136304
0.135426
0.140124
0.140113
0.140098
0.140082
0.140066
0.140049
0.140032
0.140014
0.139996
0.139976
0.139954
0.139929
0.139902
0.139872
0.139838
0.1398
0.139757
0.139709
0.139655
0.139593
0.139524
0.139445
0.139358
0.139261
0.139154
0.139036
0.138903
0.138753
0.138583
0.138389
0.138168
0.137912
0.137616
0.137267
0.136851
0.136347
0.135684
0.134887
0.133309
0.14013
0.140126
0.140112
0.140094
0.140088
0.14008
0.140065
0.140044
0.140019
0.139991
0.139961
0.13993
0.1399
0.139869
0.139838
0.139806
0.139773
0.139739
0.139702
0.139663
0.139621
0.139574
0.139522
0.139463
0.139394
0.139316
0.139228
0.139129
0.139016
0.138888
0.138743
0.138578
0.138389
0.138174
0.137927
0.13764
0.137289
0.136899
0.13617
0.140179
0.140167
0.140152
0.140138
0.140123
0.140109
0.140094
0.14008
0.140065
0.140048
0.14003
0.140008
0.139985
0.139958
0.139929
0.139895
0.139858
0.139815
0.139767
0.139713
0.139652
0.139583
0.139507
0.139422
0.139329
0.139226
0.139111
0.13898
0.138833
0.138665
0.138473
0.138252
0.137995
0.137694
0.137336
0.136901
0.136339
0.135644
0.134383
0.140186
0.140184
0.14017
0.140151
0.140146
0.14014
0.140126
0.140107
0.140083
0.140057
0.14003
0.140003
0.139975
0.139948
0.139921
0.139893
0.139865
0.139835
0.139804
0.13977
0.139734
0.139694
0.139649
0.139598
0.139539
0.139473
0.139397
0.139312
0.139215
0.139106
0.138982
0.13884
0.138679
0.138495
0.138283
0.138037
0.137737
0.137403
0.136796
0.140227
0.140215
0.140201
0.140187
0.140175
0.140163
0.140152
0.140141
0.140128
0.140114
0.140098
0.14008
0.140059
0.140036
0.14001
0.13998
0.139947
0.13991
0.139867
0.13982
0.139766
0.139705
0.139638
0.139564
0.139483
0.139393
0.139292
0.139179
0.13905
0.138904
0.138737
0.138545
0.138322
0.138062
0.137752
0.137375
0.136905
0.136297
0.135273
0.140236
0.140235
0.140222
0.140203
0.140198
0.140193
0.140181
0.140162
0.14014
0.140117
0.140092
0.140067
0.140043
0.140019
0.139995
0.13997
0.139946
0.13992
0.139893
0.139864
0.139833
0.139799
0.13976
0.139716
0.139666
0.139609
0.139544
0.139471
0.139388
0.139294
0.139187
0.139066
0.138927
0.138769
0.138587
0.138376
0.138119
0.137832
0.137324
0.14027
0.140258
0.140244
0.140232
0.140222
0.140213
0.140205
0.140197
0.140186
0.140174
0.140161
0.140145
0.140126
0.140106
0.140083
0.140057
0.140028
0.139995
0.139957
0.139915
0.139868
0.139814
0.139755
0.13969
0.139618
0.13954
0.139452
0.139352
0.13924
0.139112
0.138967
0.1388
0.138606
0.13838
0.138112
0.137782
0.137402
0.13687
0.136024
0.14028
0.140281
0.140269
0.140249
0.140245
0.14024
0.140229
0.140212
0.140191
0.140169
0.140147
0.140124
0.140103
0.140082
0.140061
0.14004
0.140018
0.139996
0.139973
0.139948
0.139921
0.139892
0.139858
0.139821
0.139777
0.139728
0.139672
0.139609
0.139537
0.139457
0.139365
0.139261
0.139142
0.139006
0.138849
0.138668
0.138447
0.138199
0.137773
0.140308
0.140296
0.140283
0.140273
0.140265
0.14026
0.140254
0.140248
0.140239
0.140229
0.140217
0.140203
0.140188
0.14017
0.14015
0.140127
0.140102
0.140072
0.140039
0.140002
0.13996
0.139913
0.13986
0.139803
0.13974
0.139671
0.139593
0.139506
0.139407
0.139295
0.139168
0.139022
0.138854
0.138656
0.138428
0.138141
0.137834
0.137374
0.136668
0.140319
0.140322
0.140311
0.14029
0.140287
0.140283
0.140273
0.140256
0.140237
0.140216
0.140196
0.140176
0.140157
0.140138
0.14012
0.140102
0.140083
0.140064
0.140044
0.140023
0.139999
0.139974
0.139945
0.139913
0.139875
0.139833
0.139785
0.139731
0.13967
0.1396
0.139522
0.139432
0.13933
0.139213
0.139078
0.138922
0.138732
0.138518
0.138158
0.140342
0.14033
0.140318
0.14031
0.140306
0.140303
0.1403
0.140295
0.140288
0.140279
0.140269
0.140258
0.140244
0.140229
0.140212
0.140192
0.140169
0.140144
0.140114
0.140081
0.140044
0.140002
0.139955
0.139904
0.139849
0.139788
0.139719
0.139643
0.139556
0.139458
0.139346
0.139218
0.139072
0.138903
0.138713
0.138473
0.138218
0.137823
0.137227
0.140354
0.140359
0.140348
0.140328
0.140325
0.140322
0.140312
0.140296
0.140277
0.140259
0.14024
0.140223
0.140206
0.14019
0.140174
0.140158
0.140142
0.140125
0.140108
0.14009
0.14007
0.140048
0.140024
0.139996
0.139964
0.139928
0.139887
0.139841
0.139789
0.139731
0.139664
0.139587
0.1395
0.139399
0.139283
0.139147
0.138983
0.138797
0.138491
0.140373
0.140362
0.14035
0.140345
0.140344
0.140344
0.140341
0.140338
0.140332
0.140326
0.140318
0.140308
0.140297
0.140284
0.140269
0.140252
0.140232
0.140209
0.140183
0.140154
0.140121
0.140083
0.140042
0.139997
0.139948
0.139894
0.139833
0.139765
0.139689
0.139602
0.139504
0.139394
0.139271
0.139131
0.138975
0.138777
0.138561
0.138227
0.137721
0.140385
0.140393
0.140382
0.140361
0.14036
0.140357
0.140347
0.140331
0.140314
0.140297
0.140281
0.140266
0.140251
0.140237
0.140223
0.140209
0.140195
0.140181
0.140166
0.140151
0.140134
0.140116
0.140095
0.140072
0.140046
0.140016
0.139983
0.139945
0.139902
0.139854
0.139797
0.139732
0.139658
0.139571
0.13947
0.139353
0.13921
0.139048
0.138785
0.1404
0.14039
0.14038
0.140378
0.140381
0.140381
0.140379
0.140377
0.140374
0.140369
0.140363
0.140355
0.140346
0.140335
0.140322
0.140307
0.14029
0.14027
0.140247
0.140221
0.140192
0.140158
0.140122
0.140081
0.140038
0.13999
0.139936
0.139876
0.139808
0.139733
0.139649
0.139557
0.139457
0.139342
0.139212
0.13905
0.138866
0.138589
0.13816
0.140412
0.140422
0.140413
0.140392
0.140391
0.140389
0.140378
0.140363
0.140347
0.140332
0.140318
0.140305
0.140292
0.14028
0.140268
0.140256
0.140244
0.140233
0.14022
0.140207
0.140194
0.140179
0.140163
0.140146
0.140126
0.140104
0.140078
0.140049
0.140015
0.139975
0.139928
0.139874
0.13981
0.139736
0.139648
0.139546
0.139422
0.139279
0.13905
0.140426
0.140415
0.140407
0.140411
0.140414
0.140414
0.140414
0.140414
0.140412
0.14041
0.140405
0.1404
0.140392
0.140383
0.140372
0.140359
0.140344
0.140327
0.140307
0.140284
0.140258
0.140228
0.140196
0.14016
0.140121
0.140078
0.14003
0.139977
0.139919
0.139855
0.139787
0.139712
0.139629
0.139534
0.139426
0.139291
0.139135
0.138907
0.138547
0.140436
0.140448
0.14044
0.140419
0.140419
0.140418
0.140407
0.140391
0.140377
0.140364
0.140352
0.140341
0.14033
0.14032
0.14031
0.1403
0.140291
0.140281
0.140271
0.140262
0.140252
0.140242
0.140232
0.140222
0.14021
0.140195
0.140178
0.140156
0.140129
0.140097
0.140059
0.140013
0.139959
0.139895
0.139819
0.13973
0.139621
0.139496
0.139295
0.140448
0.140438
0.140433
0.140441
0.140444
0.140444
0.140447
0.140448
0.140448
0.140447
0.140444
0.14044
0.140434
0.140427
0.140419
0.140409
0.140396
0.140382
0.140365
0.140346
0.140323
0.140297
0.140268
0.140236
0.140201
0.140163
0.140121
0.140076
0.140028
0.139975
0.139919
0.139857
0.139787
0.139707
0.139616
0.139503
0.139371
0.139182
0.138885
0.140457
0.140469
0.140463
0.140444
0.140445
0.140443
0.140431
0.140417
0.140404
0.140394
0.140384
0.140374
0.140365
0.140357
0.140349
0.140342
0.140335
0.140328
0.140322
0.140316
0.140311
0.140307
0.140305
0.140302
0.140297
0.140288
0.140276
0.14026
0.140241
0.140216
0.140186
0.140149
0.140104
0.14005
0.139985
0.139907
0.139812
0.139701
0.13953
0.140469
0.140459
0.140456
0.140467
0.140469
0.14047
0.140474
0.140476
0.140476
0.140477
0.140476
0.140474
0.140471
0.140466
0.140461
0.140454
0.140446
0.140436
0.140424
0.14041
0.140393
0.140373
0.140351
0.140325
0.140297
0.140265
0.14023
0.140191
0.140148
0.140102
0.140051
0.139996
0.139935
0.139865
0.139786
0.13969
0.139577
0.139421
0.139177
0.140475
0.140483
0.140479
0.140465
0.140465
0.140463
0.140453
0.14044
0.140429
0.140421
0.140413
0.140405
0.140398
0.140392
0.140387
0.140383
0.140378
0.140375
0.140372
0.140371
0.14037
0.140371
0.140372
0.140373
0.140371
0.140365
0.140357
0.140348
0.140336
0.14032
0.140301
0.140275
0.140243
0.1402
0.140146
0.140079
0.139997
0.139895
0.139762
0.140484
0.140477
0.140477
0.140485
0.140487
0.140488
0.140491
0.140493
0.140494
0.140495
0.140496
0.140495
0.140494
0.140493
0.14049
0.140487
0.140483
0.140478
0.140472
0.140464
0.140455
0.140443
0.14043
0.140413
0.140394
0.140371
0.140344
0.140313
0.140277
0.140236
0.140189
0.140138
0.140081
0.140016
0.139944
0.139859
0.139761
0.139627
0.139428
0.140487
0.140491
0.140488
0.140479
0.140478
0.140476
0.140469
0.140459
0.140451
0.140445
0.140438
0.140433
0.140429
0.140425
0.140422
0.14042
0.140419
0.140418
0.140417
0.140417
0.140417
0.140418
0.140418
0.140418
0.140417
0.140413
0.140409
0.140403
0.140396
0.140387
0.140376
0.140362
0.140343
0.140319
0.140285
0.140237
0.140172
0.140081
0.139979
0.140493
0.14049
0.14049
0.140495
0.140497
0.140499
0.140501
0.140504
0.140505
0.140507
0.140508
0.140509
0.140509
0.140509
0.140508
0.140507
0.140505
0.140503
0.1405
0.140496
0.140491
0.140485
0.140478
0.140469
0.140458
0.140445
0.140429
0.140409
0.140384
0.140354
0.140318
0.140274
0.140224
0.140165
0.140098
0.140019
0.139929
0.139811
0.139646
0.140494
0.140496
0.140494
0.140487
0.140485
0.140483
0.140478
0.140471
0.140466
0.140462
0.140458
0.140455
0.140452
0.14045
0.140449
0.140448
0.140447
0.140446
0.140445
0.140445
0.140445
0.140445
0.140445
0.140445
0.140444
0.140442
0.140439
0.140436
0.140432
0.140427
0.140421
0.140414
0.140403
0.14039
0.140372
0.140345
0.140311
0.14024
0.140166
0.140498
0.140496
0.140497
0.140501
0.140503
0.140505
0.140508
0.140511
0.140513
0.140515
0.140517
0.140518
0.140519
0.14052
0.140521
0.140521
0.14052
0.14052
0.140518
0.140516
0.140514
0.140511
0.140506
0.140502
0.140496
0.140489
0.14048
0.140469
0.140455
0.140438
0.140415
0.140385
0.140347
0.1403
0.140242
0.140171
0.140089
0.139982
0.139839
0.140498
0.140499
0.140497
0.140492
0.14049
0.140487
0.140483
0.140478
0.140474
0.140471
0.140469
0.140467
0.140465
0.140464
0.140463
0.140462
0.140462
0.140461
0.140461
0.140461
0.140461
0.140461
0.140461
0.140462
0.140461
0.140461
0.140459
0.140458
0.140456
0.140454
0.14045
0.140446
0.140441
0.140433
0.140424
0.140409
0.140392
0.140353
0.140308
0.140501
0.1405
0.140501
0.140505
0.140507
0.14051
0.140513
0.140516
0.140518
0.140521
0.140523
0.140525
0.140527
0.140528
0.140529
0.14053
0.140531
0.140531
0.140531
0.140531
0.14053
0.140528
0.140526
0.140523
0.14052
0.140516
0.140511
0.140505
0.140498
0.140488
0.140476
0.140459
0.140436
0.140405
0.140364
0.140308
0.140238
0.140142
0.140017
0.1405
0.140501
0.140499
0.140494
0.140492
0.140489
0.140485
0.140482
0.140479
0.140476
0.140475
0.140473
0.140472
0.140472
0.140471
0.140471
0.140471
0.140471
0.140471
0.140471
0.140471
0.140472
0.140472
0.140473
0.140473
0.140473
0.140473
0.140473
0.140472
0.140471
0.14047
0.140468
0.140465
0.140462
0.140457
0.140449
0.140439
0.140419
0.140397
0.140502
0.140502
0.140504
0.140507
0.14051
0.140513
0.140516
0.140519
0.140522
0.140525
0.140528
0.14053
0.140532
0.140534
0.140536
0.140538
0.140539
0.14054
0.140541
0.140541
0.140542
0.140541
0.140541
0.140539
0.140538
0.140536
0.140533
0.140529
0.140525
0.14052
0.140513
0.140504
0.140492
0.140475
0.140451
0.140414
0.140364
0.140286
0.14018
0.140501
0.140501
0.140499
0.140495
0.140493
0.14049
0.140486
0.140483
0.140481
0.140479
0.140478
0.140477
0.140477
0.140476
0.140476
0.140477
0.140477
0.140477
0.140477
0.140478
0.140478
0.140479
0.14048
0.140481
0.140481
0.140482
0.140483
0.140483
0.140483
0.140484
0.140484
0.140483
0.140483
0.140481
0.140479
0.140475
0.140471
0.140459
0.140449
0.140502
0.140503
0.140505
0.140508
0.140511
0.140514
0.140518
0.140521
0.140525
0.140528
0.140531
0.140534
0.140536
0.140539
0.140541
0.140543
0.140545
0.140547
0.140549
0.14055
0.140551
0.140552
0.140552
0.140552
0.140551
0.140551
0.140549
0.140547
0.140545
0.140542
0.140538
0.140533
0.140527
0.140519
0.140506
0.140487
0.140457
0.140403
0.140323
0.140501
0.140501
0.140499
0.140495
0.140492
0.140489
0.140486
0.140483
0.140481
0.14048
0.140479
0.140479
0.140479
0.140479
0.140479
0.14048
0.14048
0.140481
0.140481
0.140482
0.140483
0.140483
0.140484
0.140486
0.140487
0.140488
0.140489
0.14049
0.140491
0.140492
0.140493
0.140494
0.140495
0.140495
0.140495
0.140493
0.140492
0.140486
0.140482
0.140502
0.140503
0.140505
0.140509
0.140512
0.140515
0.140519
0.140523
0.140526
0.14053
0.140533
0.140537
0.14054
0.140542
0.140545
0.140548
0.14055
0.140553
0.140555
0.140557
0.140558
0.14056
0.140561
0.140562
0.140562
0.140562
0.140562
0.140562
0.140561
0.140559
0.140557
0.140554
0.140551
0.140547
0.140541
0.140531
0.140518
0.140486
0.140437
0.140501
0.1405
0.140498
0.140494
0.140491
0.140488
0.140485
0.140482
0.140481
0.14048
0.140479
0.140479
0.14048
0.14048
0.140481
0.140481
0.140482
0.140483
0.140483
0.140484
0.140485
0.140486
0.140487
0.140489
0.14049
0.140492
0.140493
0.140495
0.140496
0.140498
0.1405
0.140501
0.140503
0.140504
0.140506
0.140506
0.140507
0.140504
0.140505
0.140501
0.140502
0.140504
0.140508
0.140512
0.140515
0.140519
0.140523
0.140527
0.140531
0.140535
0.140538
0.140542
0.140545
0.140548
0.140551
0.140554
0.140557
0.14056
0.140562
0.140564
0.140566
0.140568
0.14057
0.140571
0.140572
0.140573
0.140573
0.140573
0.140573
0.140573
0.140572
0.14057
0.140568
0.140565
0.14056
0.140556
0.140539
0.140518
0.140499
0.140499
0.140497
0.140493
0.14049
0.140486
0.140483
0.140481
0.140479
0.140479
0.140479
0.140479
0.140479
0.14048
0.140481
0.140482
0.140482
0.140483
0.140484
0.140485
0.140486
0.140487
0.140489
0.14049
0.140492
0.140494
0.140495
0.140497
0.140499
0.140501
0.140504
0.140506
0.140508
0.140511
0.140513
0.140515
0.140517
0.140517
0.14052
0.140499
0.140501
0.140503
0.140507
0.140511
0.140515
0.140519
0.140524
0.140528
0.140532
0.140536
0.14054
0.140543
0.140547
0.14055
0.140554
0.140557
0.14056
0.140563
0.140566
0.140569
0.140572
0.140574
0.140576
0.140578
0.14058
0.140581
0.140583
0.140584
0.140585
0.140585
0.140585
0.140585
0.140585
0.140584
0.140582
0.140581
0.140571
0.140569
0.140498
0.140496
0.140494
0.140491
0.140487
0.140484
0.140481
0.140478
0.140477
0.140477
0.140477
0.140477
0.140478
0.140479
0.14048
0.140481
0.140482
0.140483
0.140484
0.140485
0.140486
0.140487
0.140489
0.14049
0.140492
0.140494
0.140496
0.140498
0.140501
0.140503
0.140506
0.140509
0.140511
0.140514
0.140518
0.140521
0.140524
0.140526
0.140531
0.140497
0.140499
0.140502
0.140506
0.14051
0.140514
0.140519
0.140523
0.140528
0.140532
0.140536
0.14054
0.140544
0.140548
0.140552
0.140556
0.140559
0.140563
0.140566
0.14057
0.140573
0.140576
0.140579
0.140582
0.140584
0.140586
0.140589
0.140591
0.140592
0.140594
0.140596
0.140597
0.140598
0.140599
0.1406
0.140599
0.1406
0.140594
0.140601
0.140495
0.140494
0.140492
0.140488
0.140484
0.140481
0.140478
0.140475
0.140474
0.140474
0.140475
0.140475
0.140476
0.140477
0.140478
0.140479
0.14048
0.140481
0.140482
0.140483
0.140485
0.140486
0.140488
0.140489
0.140491
0.140494
0.140496