/*--------------------------------*- C++ -*----------------------------------*\
| =========                 |                                                 |
| \\      /  F ield         | OpenFOAM: The Open Source CFD Toolbox           |
|  \\    /   O peration     | Version:  3.0.0                                 |
|   \\  /    A nd           | Web:      www.OpenFOAM.org                      |
|    \\/     M anipulation  |                                                 |
\*---------------------------------------------------------------------------*/
FoamFile
{
    version     2.0;
    format      ascii;
    class       volScalarField;
    location    "398";
    object      p;
}
// * * * * * * * * * * * * * * * * * * * * * * * * * * * * * * * * * * * * * //

dimensions      [0 2 -2 0 0 0 0];

internalField   nonuniform List<scalar> 
10720
(
-0.000143757
-80.804
-175.5
-266.043
-346.684
-427.898
-497.525
-553.488
-600.544
-635.059
-659.173
-675.156
-684.257
-687.035
-683.912
-674.421
-659.773
-638.659
-612.322
-579.382
-540.942
-496.197
-447.461
-395.68
-344.401
-298.746
-257.624
-217.331
-177.554
-138.497
-99.9529
-61.758
-23.7885
14.209
52.4985
92.2246
133.566
182.491
229.096
83.7389
160.389
245.823
328.355
402.072
462.671
506.215
530.203
537.706
534.602
521.959
502.84
481.588
460.18
439.371
419.221
400.022
381.551
363.62
345.797
328.043
310.064
291.94
274.033
258.119
245.242
234.461
225.434
218.172
212.739
209.06
207.023
206.542
207.617
210.25
214.826
221.842
234.865
257.619
148.783
86.5841
18.0577
-53.3636
-125.534
-198.344
-267.78
-331.715
-389.685
-439.933
-482.558
-517.639
-545.004
-564.835
-577.058
-581.831
-579.813
-570.528
-554.586
-531.395
-501.605
-464.986
-423.338
-377.876
-331.781
-289.458
-250.392
-211.678
-173.116
-135.005
-97.2269
-59.6525
-22.1841
15.4147
53.3958
92.8863
134.048
182.901
228.767
205.433
260.182
315.922
371.459
422.523
466.38
499.807
520.329
528.588
526.67
516.277
500.397
481.87
462.304
442.55
422.995
403.971
385.472
367.397
349.482
331.658
313.743
295.814
278.251
262.441
249.284
238.143
228.735
221.093
215.28
211.234
208.866
208.093
208.908
211.322
215.724
222.605
235.548
257.308
172.32
116.541
54.8124
-12.4744
-81.1254
-150.323
-218.48
-282.704
-341.384
-393.65
-438.348
-475.044
-503.825
-525.156
-539.185
-546.201
-546.379
-539.607
-526.156
-505.846
-479.051
-445.872
-407.646
-365.71
-322.683
-282.182
-244.282
-206.723
-169.167
-131.881
-94.785
-57.7632
-20.7355
16.5144
54.2246
93.501
134.49
183.167
228.614
223.382
274.099
325.675
375.916
421.083
459.486
488.857
507.526
516.141
515.951
508.217
495.145
478.803
460.741
441.978
423.092
404.456
386.199
368.289
350.558
332.919
315.256
297.636
280.407
264.677
251.32
239.989
230.416
222.615
216.639
212.436
209.922
209.014
209.707
212.02
216.342
223.163
235.994
256.819
209.783
162.845
109.978
52.5659
-6.93964
-68.3555
-129.892
-189.625
-246.146
-298.334
-345.085
-385.752
-420.026
-447.793
-468.92
-483.23
-490.483
-490.567
-483.53
-469.332
-448.229
-420.504
-387.259
-349.895
-310.684
-272.713
-236.55
-200.533
-164.263
-128.016
-91.778
-55.4564
-18.9918
17.8098
55.17
94.1628
134.913
183.291
228.35
252.288
293.81
336.234
378.318
416.59
449.783
475.861
493.214
502.171
503.479
498.047
487.563
473.621
457.561
440.369
422.656
404.836
387.132
369.595
352.151
334.748
317.335
299.991
283.048
267.422
253.937
242.436
232.674
224.663
218.46
214.03
211.293
210.18
210.688
212.847
217.047
223.765
236.412
256.314
224.69
182.869
135.531
83.7021
29.7929
-26.5468
-83.8159
-140.233
-194.697
-246.031
-293.072
-335.039
-371.323
-401.49
-425.227
-442.211
-452.285
-455.365
-451.433
-440.542
-422.862
-398.744
-369.094
-335.242
-299.147
-263.386
-228.766
-194.12
-159.041
-123.796
-88.4173
-52.8277
-16.9759
19.3184
56.2648
94.9074
135.347
183.318
227.843
262.689
299.612
337.388
374.758
408.67
438.327
462.017
478.405
487.62
490.13
486.686
478.541
466.905
452.882
437.363
420.956
404.107
387.106
370.08
353.041
335.98
318.9
301.894
285.279
269.822
256.278
244.641
234.721
226.532
220.136
215.509
212.583
211.296
211.648
213.674
217.762
224.376
236.812
255.779
236.199
199.134
156.901
110.67
62.5036
11.7176
-40.2676
-92.0378
-142.771
-191.369
-236.823
-278.363
-315.277
-346.985
-373.046
-393.075
-406.795
-413.943
-414.293
-407.793
-394.514
-374.769
-349.317
-319.384
-286.689
-253.414
-220.541
-187.366
-153.546
-119.344
-84.848
-50.0098
-14.7928
20.9664
57.4635
95.7065
135.771
183.22
227.096
269.846
302.374
335.848
369.169
399.51
426.326
448.103
463.684
473.042
476.483
474.664
468.525
458.994
446.958
433.184
418.236
402.551
386.448
370.111
353.618
337.013
320.339
303.714
287.445
272.189
258.635
246.893
236.838
228.486
221.904
217.08
213.959
212.486
212.668
214.545
218.506
224.995
237.178
255.195
242.07
208.602
170.345
128.414
84.7869
38.5058
-9.15576
-56.9542
-104.326
-150.275
-193.915
-234.533
-271.374
-303.781
-331.212
-353.174
-369.184
-378.936
-382.117
-378.663
-368.623
-352.284
-330.289
-303.729
-274.09
-243.19
-212.065
-180.369
-147.832
-114.701
-81.109
-47.0406
-12.4773
22.724
58.7425
96.5457
136.173
182.983
226.118
272.473
301.752
332.002
362.194
389.742
414.284
434.513
449.38
458.767
462.919
462.402
457.945
450.274
440.089
428.03
414.584
400.158
385.075
369.552
353.718
337.662
321.47
305.278
289.388
274.376
260.874
249.075
238.916
230.424
223.67
218.659
215.35
213.695
213.707
215.434
219.261
225.612
237.501
254.57
245.33
214.944
180.11
141.951
102.332
60.1376
16.5479
-27.3528
-71.1887
-114.104
-155.319
-194.232
-230.129
-262.345
-290.287
-313.402
-331.156
-343.189
-349.12
-348.751
-342.033
-329.169
-310.675
-287.494
-260.913
-232.464
-203.191
-173.042
-141.846
-109.837
-77.1917
-43.9271
-10.0452
24.5758
60.0901
97.4184
136.551
182.611
224.914
272.965
299.501
327.043
354.635
379.877
402.522
421.451
435.665
444.988
449.667
450.174
447.104
441.034
432.521
422.084
410.128
397.01
383.038
368.436
353.366
337.953
322.317
306.614
291.139
276.414
263.02
251.207
240.976
232.366
225.456
220.269
216.775
214.939
214.778
216.35
220.032
226.228
237.781
253.906
246.524
218.7
186.748
151.765
115.539
76.8765
36.8451
-3.57443
-44.1631
-84.1675
-122.929
-159.952
-194.579
-226.173
-254.142
-277.896
-296.86
-310.578
-318.617
-320.683
-316.684
-306.764
-291.338
-271.21
-247.474
-221.406
-194
-165.42
-135.594
-104.748
-73.0866
-40.6634
-7.49677
26.5131
61.4966
98.3189
136.911
182.124
223.504
271.859
296.133
321.43
346.852
370.155
391.197
409.007
422.615
431.809
436.86
438.165
436.222
431.511
424.474
415.53
405.003
393.195
380.379
366.771
352.547
337.856
322.844
307.684
292.666
278.273
265.042
253.262
242.993
234.292
227.247
221.895
218.224
216.21
215.876
217.288
220.815
226.838
238.017
253.206
246.431
220.809
191.352
159.132
125.861
90.3088
53.4706
16.2292
-21.3095
-58.4785
-94.7351
-129.676
-162.71
-193.274
-220.793
-244.668
-264.317
-279.241
-288.993
-293.189
-291.663
-284.479
-271.936
-254.703
-233.701
-209.983
-184.476
-157.498
-129.073
-99.426
-68.7871
-37.2411
-4.8255
28.5388
62.9584
99.2405
137.254
181.535
221.92
269.794
292.138
315.518
339.086
360.731
380.39
397.216
410.25
419.271
424.572
426.491
425.457
421.881
416.126
408.529
399.34
388.806
377.156
364.586
351.27
337.369
323.043
308.477
293.959
279.941
266.927
255.23
244.96
236.196
229.036
223.534
219.694
217.507
216.999
218.247
221.609
227.442
238.208
252.469
245.443
221.726
194.436
164.62
133.93
101.113
67.1046
32.7074
-2.03771
-36.5516
-70.3896
-103.235
-134.564
-163.879
-190.651
-214.309
-234.27
-250.01
-261.058
-266.981
-267.534
-262.72
-252.749
-238.157
-219.707
-198.261
-174.651
-149.29
-122.289
-93.8742
-64.2917
-33.6571
-2.02731
30.6564
64.4765
100.18
137.579
180.856
220.195
267.102
287.786
309.511
331.474
351.675
370.129
386.069
398.556
407.382
412.836
415.218
414.913
412.282
407.627
401.223
393.264
383.94
373.437
361.92
349.551
336.49
322.904
308.981
295.004
281.404
268.659
257.095
246.862
238.065
230.814
225.179
221.181
218.825
218.145
219.224
222.411
228.035
238.355
251.701
243.868
221.822
196.439
168.743
140.325
109.933
78.4542
46.6262
14.4334
-17.6086
-49.1345
-79.9036
-109.461
-137.382
-163.185
-186.335
-206.277
-222.484
-234.472
-241.793
-244.118
-241.393
-233.743
-221.581
-205.524
-186.268
-164.54
-140.808
-115.248
-88.093
-59.5999
-29.9104
0.899586
32.8674
66.0521
101.135
137.883
180.09
218.35
264.036
283.271
303.547
324.097
343.029
360.417
375.551
387.517
396.127
401.659
404.389
404.664
402.811
399.091
393.734
386.886
378.691
369.291
358.819
347.415
335.23
322.427
309.188
295.791
282.652
270.225
258.841
248.686
239.89
232.573
226.824
222.68
220.161
219.31
220.217
223.218
228.617
238.459
250.903
241.91
221.339
197.649
171.835
145.432
117.2
87.9844
58.4732
28.6042
-1.16344
-30.5177
-59.2875
-87.0791
-113.533
-138.229
-160.678
-180.356
-196.752
-209.369
-217.774
-221.565
-220.633
-215.033
-205.067
-191.224
-174.053
-154.175
-132.067
-107.958
-82.0859
-54.7114
-25.9991
3.95658
35.173
67.6849
102.106
138.162
179.242
216.397
260.754
278.717
297.707
317.004
334.806
351.241
365.636
377.104
385.483
391.036
394.021
394.753
393.539
390.61
386.16
380.303
373.145
364.789
355.336
344.897
333.606
321.613
309.094
296.314
283.675
271.611
260.457
250.421
241.658
234.303
228.459
224.184
221.51
220.491
221.222
224.029
229.185
238.52
250.078
239.712
220.456
198.283
174.152
149.549
123.254
96.0705
68.6525
40.8964
13.2213
-14.1078
-40.9727
-67.0391
-92.0041
-115.51
-137.117
-156.336
-172.686
-185.67
-194.878
-199.861
-200.455
-196.652
-188.663
-176.86
-161.662
-143.583
-123.086
-100.431
-75.8577
-49.6279
-21.9231
7.14516
37.5744
69.375
103.091
138.413
178.317
214.345
257.375
274.203
292.048
310.219
327.006
342.577
356.289
367.287
375.424
380.956
384.12
385.211
384.518
382.253
378.584
373.603
367.386
360.004
351.525
342.032
331.637
320.473
308.7
296.569
284.466
272.808
261.928
252.053
243.359
235.994
230.079
225.686
222.867
221.685
222.238
224.84
229.735
238.541
249.231
237.376
219.304
198.495
175.881
152.895
128.342
102.997
77.4705
51.6405
25.8901
0.440242
-24.631
-49.0395
-72.5368
-94.8128
-115.483
-134.102
-150.221
-163.359
-173.125
-179.05
-180.917
-178.67
-172.438
-162.494
-149.145
-132.801
-113.888
-92.6799
-69.4157
-44.3522
-17.683
10.4659
40.0719
71.1229
104.091
138.634
177.319
212.204
253.978
269.786
286.597
303.751
319.621
334.401
347.479
358.03
365.919
371.395
374.68
376.05
375.781
374.071
371.073
366.86
361.487
355
347.44
338.862
329.352
319.022
308.013
296.555
285.018
273.807
263.244
253.57
244.98
237.636
231.672
227.181
224.228
222.886
223.26
225.648
230.267
238.523
248.364
234.975
217.976
198.404
177.165
155.639
132.666
108.986
85.1773
61.1041
37.1194
13.4065
-9.98638
-32.816
-54.8815
-75.923
-95.6012
-113.519
-129.263
-142.379
-152.488
-159.133
-162.046
-161.127
-156.442
-148.179
-136.548
-121.863
-104.497
-84.7221
-62.7698
-38.8895
-13.2806
13.918
42.6661
72.9289
105.105
138.825
176.255
209.984
250.616
265.503
281.375
297.601
312.635
326.687
339.174
349.3
356.94
362.335
365.694
367.277
367.351
366.104
363.677
360.133
355.513
349.84
343.136
335.43
326.782
317.279
307.041
296.275
285.332
274.6
264.393
254.961
246.51
239.217
233.231
228.659
225.584
224.089
224.283
226.45
230.778
238.468
247.482
232.563
216.54
198.095
178.109
157.91
136.374
114.209
91.9658
69.4982
47.1303
25.0224
3.19775
-18.141
-38.8292
-58.6523
-77.3152
-94.4644
-109.727
-122.677
-132.949
-140.119
-143.868
-144.068
-140.73
-133.973
-123.925
-110.81
-94.943
-76.5769
-55.9327
-33.2468
-8.71975
17.5006
45.3566
74.7926
106.135
138.987
175.13
207.693
247.326
261.376
276.39
291.765
306.035
319.411
331.342
341.065
348.455
353.75
357.146
358.889
359.24
358.378
356.436
353.473
349.517
344.581
338.666
331.78
323.96
315.269
305.8
295.736
285.406
275.182
265.369
256.215
247.938
240.728
234.745
230.114
226.93
225.29
225.304
227.243
231.266
238.379
246.588
230.176
215.046
197.637
178.797
159.81
139.584
118.804
97.9911
76.994
56.1126
35.4872
15.1178
-4.8196
-24.1972
-42.8343
-60.4774
-76.8187
-91.5187
-104.19
-114.476
-121.997
-126.399
-127.525
-125.347
-119.926
-111.323
-99.6831
-85.2559
-68.2666
-48.919
-27.4331
-4.00526
21.2108
48.1424
76.7137
107.18
139.123
173.955
205.345
244.135
257.418
271.643
286.235
299.8
312.547
323.956
333.294
340.437
345.618
349.023
350.884
351.456
350.913
349.382
346.919
343.549
339.272
334.077
327.956
320.923
313.017
304.307
294.948
285.245
275.553
266.163
257.322
249.254
242.158
236.206
231.535
228.259
226.481
226.318
228.022
231.729
238.259
245.688
227.84
213.533
197.076
179.292
161.415
142.394
122.883
103.381
83.7316
64.2175
44.96
25.9428
7.31589
-10.8177
-28.3127
-44.9499
-60.4627
-74.5475
-86.8519
-97.0356
-104.757
-109.647
-111.526
-110.334
-106.085
-98.7911
-88.5232
-75.4685
-59.8159
-41.7459
-21.4594
0.856215
25.0453
51.0218
78.692
108.243
139.234
172.738
202.95
241.059
253.636
267.134
281.001
293.91
306.071
316.988
325.957
332.857
337.915
341.305
343.25
343.998
343.72
342.537
340.505
337.646
333.956
329.414
323.998
317.705
310.551
302.581
293.922
284.855
275.713
266.773
258.275
250.448
243.496
237.602
232.916
229.562
227.658
227.319
228.785
232.165
238.11
244.786
225.576
212.029
196.452
179.642
162.788
144.874
126.532
108.235
89.8254
71.5706
53.5779
35.8153
18.4147
1.45421
-14.9491
-30.6072
-45.2883
-58.725
-70.5971
-80.584
-88.38
-93.6163
-96.0924
-95.7243
-92.4952
-86.374
-77.3724
-65.6154
-51.2512
-34.4331
-15.339
5.85633
28.9991
53.9925
80.7267
109.323
139.325
171.488
200.523
238.109
250.034
262.858
276.05
288.349
299.96
310.412
319.029
325.691
330.618
333.977
335.978
336.866
336.805
335.916
334.255
331.842
328.671
324.716
319.946
314.342
307.901
300.645
292.676
284.244
275.664
267.194
259.068
251.511
244.734
238.924
234.245
230.832
228.811
228.302
229.527
232.573
237.937
243.886
223.396
210.553
195.793
179.886
163.977
147.087
129.822
112.636
95.3699
78.2772
61.4516
44.8535
28.5947
12.737
-2.62704
-17.3394
-31.1975
-43.9662
-55.3581
-65.0771
-72.8413
-78.3015
-81.2371
-81.5478
-79.1951
-74.1156
-66.2722
-55.7326
-42.6013
-27.002
-9.0873
10.985
33.0661
57.0515
82.8168
110.423
139.399
170.217
198.075
235.293
246.612
258.807
271.371
283.099
294.194
304.206
312.487
318.916
323.707
327.02
329.057
330.053
330.172
329.53
328.186
326.161
323.448
320.019
315.836
310.868
305.097
298.525
291.226
283.425
275.411
267.428
259.696
252.437
245.862
240.164
235.514
232.06
229.936
229.261
230.244
232.951
237.74
242.993
221.307
209.121
195.122
180.055
165.022
149.079
132.813
116.653
100.445
84.4257
68.6804
53.1608
37.9667
23.1424
8.7601
-5.04295
-18.0962
-30.1913
-41.0718
-50.4671
-58.1139
-63.6935
-66.9688
-67.8268
-66.2178
-62.0554
-55.2621
-45.8554
-33.8958
-19.4765
-2.72146
16.2306
37.2392
60.1945
84.9614
111.544
139.462
168.935
195.622
232.611
243.367
254.974
266.95
278.143
288.751
298.347
306.305
312.507
317.161
320.42
322.473
323.553
323.819
323.386
322.314
320.625
318.315
315.354
311.7
307.315
302.169
296.244
289.592
282.409
274.963
267.476
260.157
253.219
246.871
241.311
236.715
233.238
231.023
230.19
230.932
233.298
237.525
242.112
219.317
207.743
194.454
180.171
165.951
150.89
135.549
120.341
105.112
90.0883
75.3435
60.8264
46.6231
32.7659
19.3102
6.37304
-5.89922
-17.3253
-27.6761
-36.7066
-44.1687
-49.7784
-53.2894
-54.5807
-53.5934
-50.2292
-44.38
-36.0191
-25.1662
-11.8812
3.73953
21.5792
41.5093
63.4173
87.159
112.689
139.52
167.654
193.178
230.066
240.296
251.352
262.776
273.465
283.614
292.815
300.464
306.445
310.961
314.157
316.214
317.357
317.744
317.487
316.646
315.249
313.291
310.745
307.566
303.713
299.144
293.828
287.794
281.214
274.328
267.343
260.449
253.852
247.756
242.357
237.837
234.357
232.065
231.083
231.588
233.613
237.293
241.246
217.427
206.426
193.801
180.252
166.791
152.551
138.071
123.746
109.427
95.3247
81.5084
67.922
54.6423
41.6901
29.107
16.9921
5.47069
-5.29693
-15.1094
-23.7455
-30.9721
-36.5391
-40.1963
-41.8193
-41.3442
-38.6686
-33.6618
-26.2592
-16.4444
-4.24314
10.2749
27.017
45.8665
66.7137
89.4081
113.86
139.58
166.385
190.757
227.655
237.392
247.932
258.837
269.052
278.764
287.59
294.942
300.71
305.09
308.217
310.266
311.456
311.941
311.831
311.19
310.045
308.395
306.214
303.461
300.089
296.05
291.302
285.855
279.855
273.519
267.034
260.575
254.334
248.509
243.295
238.872
235.408
233.055
231.934
232.207
233.895
237.047
240.4
215.638
205.175
193.175
180.312
167.561
154.088
140.411
126.909
113.434
100.189
87.2352
74.5146
62.0942
49.9864
38.2234
26.8871
16.0854
5.95828
-3.31624
-11.538
-18.4919
-23.9564
-27.6842
-29.5502
-29.4908
-27.4024
-23.1401
-16.609
-7.76049
3.41055
16.8636
32.5259
50.2998
70.0782
91.7064
115.06
139.648
165.14
188.375
225.377
234.652
244.704
255.121
264.886
274.185
282.654
289.724
295.285
299.528
302.583
304.616
305.84
306.404
306.418
305.947
305.02
303.639
301.781
299.406
296.467
292.912
288.69
283.795
278.35
272.549
266.558
260.537
254.664
249.127
244.117
239.813
236.384
233.984
232.736
232.785
234.143
236.788
239.577
213.95
203.993
192.579
180.363
168.276
155.52
142.595
129.859
117.172
104.724
92.5723
80.6575
69.0386
57.7196
46.7255
36.1249
26.0095
16.5011
7.75859
-0.0394116
-6.69236
-12.0079
-15.744
-17.7783
-18.0487
-16.4547
-12.8444
-7.09968
0.85526
11.0536
23.4811
38.0897
54.7971
73.5022
94.053
116.292
139.734
163.932
186.046
223.229
232.068
241.661
251.614
260.956
269.863
277.991
284.79
290.152
294.261
297.241
299.251
300.498
301.127
301.245
300.918
300.179
299.032
297.457
295.418
292.868
289.752
286.014
281.635
276.717
271.43
265.924
260.339
254.841
249.607
244.818
240.652
237.276
234.846
233.483
233.318
234.355
236.52
238.78
212.361
202.882
192.021
180.411
168.948
156.866
144.643
132.625
120.672
108.969
97.5631
86.3984
75.5255
64.9443
54.6703
44.7632
35.3001
26.387
18.1656
10.7941
4.45989
-0.668929
-4.36283
-6.5007
-7.0257
-5.84446
-2.80169
2.23809
9.37248
18.6582
30.1053
43.6886
59.3449
76.9799
96.4432
117.557
139.845
162.77
183.786
221.206
229.634
238.793
248.309
257.248
265.783
273.586
280.126
285.295
289.273
292.177
294.159
295.419
296.099
296.305
296.102
295.525
294.582
293.256
291.513
289.31
286.591
283.295
279.396
274.974
270.179
265.142
259.989
254.869
249.946
245.393
241.382
238.078
235.633
234.168
233.802
234.531
236.244
238.011
210.87
201.841
191.502
180.465
169.588
158.138
146.575
135.227
123.962
112.952
102.243
91.7769
81.6007
71.7076
62.1091
52.8548
44.0096
35.6664
27.9509
21.0046
14.9984
10.0849
6.47299
4.28465
3.56967
4.41198
6.96636
11.3779
17.7627
26.1965
36.7121
49.3049
63.9286
80.5013
98.876
118.86
139.988
161.667
181.605
219.304
227.344
236.093
245.193
253.75
261.931
269.424
275.715
280.7
284.55
287.377
289.327
290.593
291.315
291.593
291.496
291.059
290.292
289.184
287.703
285.808
283.446
280.554
277.097
273.139
268.81
264.226
259.495
254.751
250.145
245.84
241.999
238.782
236.339
234.788
234.233
234.671
235.96
237.273
209.474
200.87
191.024
180.528
170.204
159.348
148.404
137.685
127.063
116.702
106.644
96.8299
87.303
78.0537
69.0873
60.4455
52.1845
44.3849
37.1579
30.6309
24.9576
20.2784
16.7813
14.5846
13.7345
14.3033
16.4394
20.2961
25.9997
33.6427
43.2774
54.9175
68.5349
84.0571
101.347
120.202
140.174
160.633
179.518
217.519
225.192
233.551
242.257
250.45
258.295
265.492
271.545
276.35
280.076
282.828
284.742
286.01
286.763
287.103
287.096
286.779
286.166
285.248
283.997
282.377
280.334
277.807
274.755
271.228
267.339
263.186
258.864
254.492
250.206
246.156
242.498
239.383
236.958
235.335
234.609
234.772
235.669
236.566
208.168
199.967
190.589
180.604
170.8
160.506
150.144
140.016
129.997
120.243
110.793
101.588
92.6677
84.0195
75.6447
67.5785
59.8683
52.5855
45.8274
39.7089
34.3682
29.9362
26.5778
24.4094
23.4698
23.8206
25.6024
28.9709
34.0596
40.9728
49.7786
60.5074
73.1473
87.6387
103.853
121.585
140.408
159.678
177.537
215.846
223.17
231.16
239.491
247.339
254.862
261.777
267.601
272.235
275.84
278.516
280.394
281.657
282.436
282.826
282.896
282.684
282.204
281.451
280.403
279.024
277.266
275.069
272.387
269.259
265.781
262.036
258.108
254.099
250.131
246.342
242.875
239.877
237.484
235.805
234.925
234.834
235.371
235.889
206.951
199.132
190.196
180.695
171.383
161.617
151.805
142.232
132.778
123.593
114.712
106.077
97.7235
89.6374
81.8164
74.2901
67.0987
60.3052
53.996
48.2733
43.2619
39.0834
35.8817
33.769
32.7782
32.9595
34.4436
37.3846
41.9204
48.1633
56.1931
66.055
77.7512
91.2349
106.389
123.012
140.698
158.812
175.67
214.279
221.273
228.911
236.886
244.406
251.622
258.266
263.872
268.341
271.829
274.43
276.27
277.526
278.323
278.756
278.891
278.769
278.404
277.796
276.925
275.76
274.256
272.354
270.008
267.246
264.149
260.79
257.236
253.578
249.924
246.397
243.131
240.26
237.913
236.194
235.178
234.856
235.066
235.244
205.818
198.361
189.845
180.802
171.956
162.689
153.394
144.343
135.421
126.77
118.422
110.32
102.497
94.9363
87.6333
80.6132
73.9102
67.5792
61.6972
56.3555
51.6672
47.7435
44.7115
42.6764
41.665
41.7174
42.9535
45.5226
49.5637
55.1932
62.5
71.5406
82.331
94.8359
108.951
124.483
141.052
158.041
173.929
212.814
219.495
226.799
234.434
241.64
248.565
254.949
260.346
264.656
268.031
270.559
272.361
273.606
274.417
274.884
275.075
275.029
274.765
274.282
273.567
272.59
271.31
269.673
267.631
265.203
262.46
259.459
256.26
252.939
249.591
246.326
243.263
240.529
238.241
236.499
235.367
234.836
234.754
234.627
204.765
197.652
189.535
180.927
172.521
163.727
154.92
146.361
137.939
129.789
121.94
114.338
107.01
99.9406
93.123
86.5773
80.3333
74.4386
68.9621
63.9858
59.6111
55.9409
53.0858
51.144
50.137
50.0946
51.1258
53.3732
56.9729
62.0437
68.6797
76.947
86.8717
98.4312
111.534
125.999
141.474
157.375
172.32
211.445
217.828
224.815
232.126
239.033
245.679
251.816
257.012
261.17
264.435
266.892
268.654
269.886
270.707
271.203
271.441
271.462
271.283
270.91
270.33
269.518
268.437
267.036
265.268
263.144
260.724
258.057
255.191
252.191
249.139
246.13
243.275
240.684
238.468
236.717
235.488
234.774
234.432
234.038
203.789
197.003
189.265
181.07
173.08
164.733
156.388
148.293
140.342
132.663
125.282
118.147
111.284
104.674
98.3101
92.2087
86.3954
80.9114
75.8192
71.1912
67.1195
63.6984
61.0239
59.1871
58.2033
58.0939
58.9572
60.9268
64.1346
68.6981
74.7149
82.2564
91.359
102.01
114.133
127.559
141.97
156.817
170.851
210.169
216.269
222.952
229.955
236.576
242.956
248.856
253.859
257.871
261.03
263.417
265.141
266.358
267.184
267.704
267.982
268.059
267.956
267.677
267.215
266.548
265.642
264.45
262.927
261.08
258.955
256.596
254.041
251.343
248.574
245.817
243.167
240.725
238.59
236.845
235.54
234.668
234.099
233.473
202.886
196.411
189.033
181.23
173.635
165.711
157.802
150.145
142.637
135.401
128.46
121.764
115.335
109.156
103.216
97.5311
92.1216
87.0242
82.2944
77.9975
74.2164
71.0375
68.5436
66.819
65.8738
65.7206
66.4467
68.1773
71.038
75.1429
80.5895
87.4536
95.7787
105.562
116.74
129.163
142.541
156.374
169.526
208.98
214.809
221.204
227.912
234.262
240.386
246.06
250.879
254.75
257.807
260.126
261.81
263.011
263.84
264.379
264.691
264.817
264.778
264.581
264.222
263.681
262.929
261.923
260.619
259.02
257.164
255.087
252.819
250.406
247.905
245.39
242.943
240.653
238.609
236.884
235.522
234.518
233.754
232.93
202.052
195.873
188.837
181.407
174.187
166.663
159.167
151.924
144.834
138.014
131.487
125.202
119.18
113.403
107.861
102.565
97.5343
92.8
88.4116
84.4283
80.9244
77.9793
75.6638
74.0557
73.1594
72.9804
73.5958
75.1214
77.675
81.3661
86.2899
92.5244
100.118
109.077
119.351
130.807
143.19
156.047
168.349
207.873
213.446
219.565
225.992
232.081
237.962
243.419
248.06
251.796
254.755
257.009
258.654
259.837
260.666
261.22
261.56
261.728
261.744
261.619
261.348
260.918
260.301
259.458
258.35
256.973
255.361
253.54
251.537
249.388
247.141
244.858
242.609
240.473
238.525
236.833
235.434
234.321
233.395
232.404
201.283
195.385
188.676
181.6
174.736
167.592
160.487
153.633
146.938
140.511
134.371
128.472
122.832
117.432
112.262
107.33
102.654
98.2598
94.1926
90.5049
87.2644
84.5435
82.4023
80.9117
80.0715
79.8812
80.4081
81.7579
84.0404
87.3586
91.8047
97.4563
104.365
112.545
121.958
132.491
143.918
155.839
167.322
206.845
212.172
218.029
224.187
230.027
235.675
240.924
245.396
249.002
251.866
254.055
255.662
256.827
257.655
258.22
258.584
258.786
258.85
258.786
258.592
258.258
257.759
257.06
256.125
254.947
253.554
251.967
250.206
248.301
246.291
244.227
242.17
240.186
238.342
236.694
235.274
234.079
233.019
231.892
200.575
194.946
188.547
181.808
175.281
168.497
161.762
155.278
148.955
142.897
137.123
131.586
126.303
121.257
116.434
111.843
107.498
103.423
99.657
96.2481
93.2563
90.7487
88.7761
87.4022
86.6232
86.4321
86.8884
88.0876
90.1309
93.1139
97.1247
102.239
108.51
115.958
124.556
134.208
144.724
155.75
166.445
205.889
210.983
216.59
222.491
228.093
233.519
238.568
242.877
246.358
249.13
251.258
252.826
253.973
254.796
255.37
255.753
255.986
256.09
256.079
255.951
255.7
255.304
254.732
253.95
252.949
251.752
250.375
248.835
247.153
245.363
243.507
241.634
239.8
238.062
236.468
235.045
233.789
232.624
231.389
199.925
194.552
188.449
182.03
175.824
169.382
162.997
156.862
150.89
145.18
139.749
134.552
129.605
124.889
120.391
116.119
112.084
108.307
104.823
101.676
98.9189
96.613
94.8023
93.5424
92.8264
92.6429
93.0433
94.1133
95.9454
98.6277
102.243
106.863
112.542
119.305
127.136
135.956
145.605
155.778
165.718
205.003
209.874
215.242
220.898
226.272
231.484
236.343
240.495
243.857
246.541
248.608
250.139
251.266
252.084
252.663
253.062
253.32
253.459
253.492
253.422
253.242
252.936
252.475
251.827
250.984
249.961
248.773
247.432
245.955
244.368
242.705
241.006
239.319
237.689
236.158
234.748
233.453
232.209
230.893
199.329
194.2
188.378
182.265
176.363
170.245
164.192
158.387
152.747
147.365
142.257
137.38
132.747
128.34
124.146
120.172
116.426
112.927
109.708
106.805
104.269
102.153
100.497
99.3467
98.6942
98.5244
98.8804
99.8395
101.485
103.898
107.154
111.322
116.455
122.581
129.693
137.729
146.558
155.921
165.138
204.182
208.841
213.98
219.401
224.559
229.566
234.241
238.244
241.491
244.089
246.097
247.592
248.698
249.51
250.092
250.504
250.782
250.95
251.022
251.001
250.883
250.654
250.289
249.76
249.055
248.188
247.169
246.008
244.716
243.315
241.831
240.297
238.75
237.23
235.768
234.384
233.069
231.772
230.398
198.784
193.887
188.334
182.511
176.898
171.088
165.35
159.856
154.529
149.457
144.653
140.075
135.737
131.62
127.711
124.014
120.538
117.3
114.326
111.653
109.323
107.386
105.874
104.83
104.24
104.087
104.408
105.272
106.753
108.924
111.855
115.61
120.241
125.777
132.219
139.522
147.579
156.175
164.701
203.423
207.878
212.799
217.996
222.946
227.758
232.257
236.116
239.252
241.768
243.719
245.177
246.263
247.066
247.651
248.072
248.367
248.56
248.664
248.685
248.62
248.457
248.176
247.751
247.168
246.438
245.57
244.568
243.444
242.212
240.893
239.513
238.102
236.69
235.303
233.956
232.64
231.31
229.9
198.287
193.611
188.314
182.767
177.428
171.911
166.471
161.272
156.241
151.46
146.942
142.646
138.584
134.737
131.094
127.657
124.434
121.437
118.694
116.234
114.097
112.326
110.951
110.006
109.477
109.344
109.637
110.418
111.753
113.708
116.346
119.725
123.895
128.887
134.708
141.327
148.661
156.534
164.402
202.72
206.983
211.695
216.678
221.428
226.053
230.384
234.104
237.134
239.57
241.466
242.888
243.953
244.747
245.331
245.76
246.069
246.282
246.413
246.469
246.449
246.344
246.135
245.8
245.324
244.716
243.98
243.121
242.147
241.068
239.9
238.664
237.381
236.075
234.768
233.467
232.165
230.823
229.398
197.834
193.369
188.315
183.031
177.954
172.713
167.555
162.636
157.884
153.378
149.129
145.097
141.294
137.701
134.307
131.112
128.123
125.352
122.822
120.561
118.603
116.988
115.741
114.889
114.417
114.305
114.576
115.286
116.492
118.253
120.625
123.664
127.413
131.906
137.155
143.139
149.798
156.992
164.235
202.072
206.15
210.662
215.441
220
224.446
228.615
232.203
235.129
237.489
239.331
240.718
241.762
242.546
243.128
243.561
243.881
244.111
244.265
244.351
244.369
244.313
244.166
243.909
243.527
243.024
242.406
241.674
240.834
239.892
238.862
237.757
236.596
235.394
234.168
232.922
231.647
230.311
228.887
197.422
193.158
188.337
183.302
178.473
173.496
168.605
163.951
159.462
155.215
151.218
147.435
143.874
140.519
137.356
134.388
131.617
129.056
126.725
124.648
122.857
121.385
120.257
119.492
119.075
118.984
119.237
119.884
120.975
122.563
124.697
127.426
130.793
134.83
139.552
144.951
150.983
157.541
164.193
201.474
205.375
209.698
214.28
218.658
222.931
226.945
230.405
233.233
235.519
237.308
238.66
239.683
240.456
241.035
241.471
241.799
242.041
242.214
242.325
242.376
242.361
242.268
242.078
241.777
241.367
240.852
240.232
239.51
238.692
237.787
236.803
235.755
234.653
233.509
232.324
231.088
229.772
228.365
197.049
192.976
188.376
183.579
178.985
174.258
169.621
165.216
160.976
156.973
153.214
149.664
146.331
143.197
140.251
137.493
134.925
132.559
130.412
128.506
126.87
125.532
124.513
123.829
123.463
123.391
123.631
124.222
125.211
126.643
128.563
131.013
134.033
137.655
141.896
146.756
152.209
158.173
164.268
200.922
204.656
208.797
213.192
217.395
221.504
225.369
228.707
231.44
233.653
235.391
236.709
237.711
238.471
239.045
239.483
239.817
240.069
240.257
240.389
240.466
240.487
240.439
240.307
240.076
239.747
239.321
238.8
238.183
237.476
236.682
235.81
234.866
233.861
232.798
231.678
230.49
229.207
227.83
196.711
192.821
188.431
183.86
179.49
174.999
170.603
166.434
162.429
158.656
155.121
151.789
148.669
145.743
142.998
140.436
138.057
135.872
133.896
132.148
130.654
129.44
128.521
127.912
127.593
127.54
127.768
128.31
129.208
130.501
132.228
134.426
137.133
140.378
144.181
148.548
153.467
158.88
164.451
200.415
203.988
207.956
212.171
216.208
220.159
223.882
227.101
229.742
231.887
233.575
234.859
235.839
236.587
237.155
237.592
237.93
238.19
238.39
238.538
238.638
238.688
238.679
238.596
238.426
238.167
237.819
237.383
236.859
236.249
235.556
234.784
233.939
233.024
232.042
230.99
229.857
228.617
227.28
196.405
192.689
188.5
184.144
179.987
175.72
171.551
167.605
163.822
160.265
156.94
153.814
150.893
148.16
145.604
143.224
141.022
139.004
137.186
135.585
134.222
133.12
132.295
131.753
131.477
131.443
131.659
132.159
132.976
134.144
135.697
137.669
140.093
142.997
146.402