/*--------------------------------*- C++ -*----------------------------------*\
| =========                 |                                                 |
| \\      /  F ield         | OpenFOAM: The Open Source CFD Toolbox           |
|  \\    /   O peration     | Version:  3.0.0                                 |
|   \\  /    A nd           | Web:      www.OpenFOAM.org                      |
|    \\/     M anipulation  |                                                 |
\*---------------------------------------------------------------------------*/
FoamFile
{
    version     2.0;
    format      ascii;
    class       surfaceScalarField;
    location    "398";
    object      phi;
}
// * * * * * * * * * * * * * * * * * * * * * * * * * * * * * * * * * * * * * //

dimensions      [0 3 -1 0 0 0 0];

internalField   nonuniform List<scalar> 
21254
(
-0.270147
0.28905
-0.0189021
0.310504
-0.0214545
0.328302
-0.0177978
0.343853
-0.0155506
0.358395
-0.0145427
0.369467
-0.0110713
0.377734
-0.00826757
0.384088
-0.0063538
0.38757
-0.00348174
0.389346
-0.00177672
0.389527
-0.000180785
0.387744
0.00178341
0.384631
0.00311273
0.380421
0.00420983
0.375081
0.00533993
0.368961
0.00612043
0.361856
0.00710532
0.353855
0.00800057
0.344768
0.00908692
0.334784
0.00998372
0.323521
0.0112632
0.311525
0.0119961
0.299036
0.012489
0.287366
0.01167
0.27773
0.00963609
0.269418
0.00831173
0.261275
0.00814332
0.252981
0.00829346
0.244205
0.00877685
0.234857
0.00934748
0.22491
0.00994655
0.214347
0.0105634
0.203083
0.0112637
0.190853
0.0122299
0.177083
0.0137703
0.16065
0.0164328
0.139155
0.0214955
0.107669
0.0314863
0.0904285
0.0172403
-0.247229
-0.0229182
-0.22367
-0.0235592
-0.194169
-0.0295008
-0.161452
-0.032717
-0.126703
-0.0347492
-0.0904091
-0.0362941
-0.0540978
-0.0363113
-0.0197368
-0.034361
0.0114114
-0.0311483
0.0391018
-0.0276904
0.0630363
-0.0239345
0.0835113
-0.0204749
0.100962
-0.0174507
0.115687
-0.014725
0.128331
-0.0126442
0.139251
-0.0109194
0.148937
-0.00968625
0.157648
-0.00871129
0.165705
-0.00805697
0.17325
-0.00754536
0.180467
-0.00721679
0.187364
-0.0068971
0.193888
-0.00652414
0.199443
-0.00555504
0.203846
-0.00440262
0.207364
-0.00351792
0.209996
-0.00263177
0.211853
-0.00185722
0.212969
-0.00111578
0.21337
-0.00040159
0.212936
0.00043467
0.211675
0.0012609
0.209705
0.0019701
0.207121
0.00258384
0.203826
0.00329432
0.199446
0.00438029
0.192896
0.0065501
0.17908
0.013816
0.158487
0.0205933
-0.247246
0.268868
-0.0405238
0.29089
-0.0434761
0.313728
-0.0406364
0.334902
-0.0367238
0.355457
-0.0350985
0.374326
-0.0299396
0.39115
-0.0250923
0.406211
-0.0214149
0.419099
-0.0163688
0.429878
-0.0125566
0.438807
-0.00910986
0.44616
-0.00556949
0.451919
-0.00264608
0.455944
0.00018518
0.458106
0.0031779
0.458112
0.00611438
0.455958
0.00925968
0.451833
0.0121256
0.445288
0.0156318
0.4367
0.0185716
0.425724
0.022239
0.412729
0.0249907
0.397766
0.0274527
0.381538
0.0278978
0.365357
0.0258167
0.349655
0.0240139
0.334483
0.0233152
0.320016
0.0227607
0.306028
0.0227651
0.292337
0.0230382
0.27871
0.0235733
0.264968
0.0243057
0.250841
0.0253903
0.236087
0.0269839
0.220263
0.0295944
0.202273
0.0344235
0.180714
0.043054
0.146569
0.065632
0.10431
0.0594987
-0.225057
-0.0451077
-0.201293
-0.0473234
-0.173417
-0.0573766
-0.143798
-0.0623362
-0.112181
-0.066366
-0.0790141
-0.0694608
-0.0458458
-0.0694796
-0.0140924
-0.0661143
0.0155709
-0.0608115
0.0423996
-0.0545191
0.0659146
-0.0474495
0.0864053
-0.0409656
0.104314
-0.0353598
0.119922
-0.0303328
0.133653
-0.0263745
0.145804
-0.0230705
0.156669
-0.0205518
0.166557
-0.0185994
0.175726
-0.017226
0.1843
-0.0161193
0.192444
-0.015361
0.200238
-0.0146903
0.207619
-0.013905
0.21415
-0.0120866
0.219565
-0.009817
0.224057
-0.00801083
0.227626
-0.0062
0.230323
-0.00455409
0.232177
-0.00297018
0.233264
-0.00148835
0.233722
-2.3979e-05
0.233618
0.00136517
0.23283
0.00275808
0.231289
0.00412482
0.22892
0.00566297
0.22548
0.00782049
0.221004
0.0110265
0.211039
0.0237812
0.191883
0.0397491
-0.239671
0.26126
-0.0621129
0.282892
-0.0651077
0.306159
-0.0639033
0.32732
-0.0578846
0.347282
-0.0550609
0.366274
-0.0489316
0.382998
-0.0418161
0.397884
-0.036301
0.410483
-0.0289682
0.421136
-0.023209
0.429816
-0.0177898
0.436758
-0.012512
0.441857
-0.00774502
0.445649
-0.00360611
0.447988
0.00083835
0.449541
0.00456105
0.449907
0.00889452
0.449381
0.0126515
0.447573
0.0174394
0.444376
0.021769
0.439635
0.0269798
0.433151
0.0314748
0.424891
0.0357128
0.414975
0.0378134
0.403981
0.0368111
0.392024
0.0359709
0.379045
0.0362942
0.365238
0.0365679
0.350807
0.0371957
0.335863
0.0379823
0.320546
0.0388905
0.304865
0.0399868
0.288729
0.0415256
0.271923
0.0437902
0.254002
0.0475157
0.233874
0.0545514
0.210267
0.0666603
0.175263
0.100636
0.126155
0.108607
-0.217874
-0.0669053
-0.193804
-0.0713929
-0.164894
-0.086287
-0.134675
-0.0925546
-0.102961
-0.0980803
-0.0698723
-0.10255
-0.0370414
-0.102311
-0.00625141
-0.0969043
0.0223027
-0.0893656
0.0483362
-0.0805527
0.0715152
-0.0706285
0.0920049
-0.0614553
0.110091
-0.0534458
0.126041
-0.046283
0.140171
-0.0405048
0.152799
-0.0356985
0.164186
-0.031939
0.174597
-0.0290103
0.184245
-0.0268733
0.193297
-0.0251715
0.201942
-0.0240059
0.210204
-0.0229528
0.218006
-0.0217072
0.225061
-0.0191411
0.23109
-0.0158459
0.23619
-0.0131106
0.240418
-0.0104288
0.243809
-0.00794459
0.246426
-0.00558753
0.248261
-0.00332337
0.249378
-0.0011411
0.249782
0.000961127
0.249509
0.00303163
0.2485
0.00513391
0.246668
0.00749473
0.243652
0.0108367
0.239067
0.0156118
0.229357
0.0334903
0.210908
0.0581985
-0.231
0.253727
-0.0848402
0.276416
-0.0877966
0.301281
-0.0887681
0.323902
-0.0805063
0.34571
-0.0768686
0.36649
-0.0697116
0.385475
-0.0608006
0.402434
-0.0532604
0.417617
-0.044151
0.430809
-0.0364014
0.442121
-0.0291011
0.451577
-0.0219681
0.45923
-0.015398
0.465119
-0.00949573
0.469505
-0.00354729
0.471989
0.00207674
0.472773
0.00811066
0.471647
0.0137777
0.468991
0.0200952
0.464699
0.0260615
0.458928
0.0327501
0.451919
0.0384839
0.443766
0.0438657
0.434933
0.0466464
0.425798
0.0459466
0.416376
0.0453925
0.406268
0.0464026
0.395313
0.0475226
0.383341
0.0491675
0.370205
0.0511191
0.355941
0.0531546
0.340577
0.0553504
0.324137
0.0579658
0.306489
0.0614374
0.287342
0.0666635
0.265656
0.0762369
0.240102
0.092215
0.203607
0.137131
0.152791
0.159423
-0.208551
-0.0893541
-0.184382
-0.0955617
-0.154998
-0.115671
-0.124719
-0.122833
-0.0930272
-0.129772
-0.0599379
-0.135639
-0.0273506
-0.134898
0.00298899
-0.127244
0.0308792
-0.117256
0.0563282
-0.106002
0.0790281
-0.0933283
0.0991937
-0.0816208
0.117183
-0.0714352
0.133217
-0.0623168
0.14761
-0.0548982
0.160593
-0.0486811
0.17243
-0.0437765
0.183305
-0.0398847
0.193443
-0.0370114
0.202988
-0.0347168
0.212055
-0.0330725
0.220714
-0.0316124
0.228917
-0.0299101
0.236359
-0.0265832
0.242803
-0.0222894
0.248304
-0.0186121
0.252908
-0.0150321
0.256662
-0.0116985
0.2596
-0.00852547
0.261778
-0.00550216
0.263228
-0.0025912
0.263977
0.000212877
0.264033
0.00297558
0.263388
0.00577901
0.261937
0.00894494
0.259331
0.013443
0.255027
0.0199158
0.245851
0.0426659
0.227643
0.0764065
-0.226334
0.249846
-0.108352
0.273394
-0.111344
0.299678
-0.115052
0.323056
-0.103884
0.345911
-0.0997232
0.367825
-0.091626
0.387741
-0.0807162
0.405726
-0.0712459
0.422117
-0.0605418
0.436235
-0.0505193
0.448485
-0.0413513
0.458812
-0.0322948
0.467523
-0.024109
0.474268
-0.0162404
0.479211
-0.00849064
0.482424
-0.00113584
0.484071
0.00646368
0.484175
0.0136736
0.482477
0.021793
0.479256
0.0292819
0.474373
0.0376332
0.467985
0.0448724
0.460344
0.0515063
0.451854
0.0551367
0.443078
0.0547221
0.434201
0.05427
0.425043
0.0555603
0.4155
0.0570656
0.40538
0.0592873
0.394468
0.0620311
0.38248
0.0651432
0.369173
0.0686574
0.354343
0.0727956
0.337724
0.0780567
0.318915
0.0854723
0.296996
0.0981559
0.270477
0.118734
0.232902
0.174705
0.181473
0.210852
-0.20283
-0.112858
-0.177949
-0.120443
-0.147303
-0.146317
-0.116209
-0.153928
-0.0838308
-0.16215
-0.0501759
-0.169294
-0.0171979
-0.167876
0.0131265
-0.157568
0.0407068
-0.144836
0.0657916
-0.131086
0.0880829
-0.11562
0.107889
-0.101427
0.125688
-0.0892346
0.141677
-0.0783055
0.156159
-0.0693805
0.169393
-0.0619151
0.181548
-0.055931
0.192799
-0.0511353
0.203332
-0.0475452
0.213286
-0.0446709
0.222757
-0.0425432
0.231787
-0.0406423
0.240349
-0.0384715
0.248178
-0.0344124
0.255019
-0.0291304
0.260899
-0.0244922
0.26585
-0.0199836
0.269926
-0.0157737
0.273153
-0.0117531
0.275567
-0.00791576
0.27721
-0.00423429
0.278135
-0.000712278
0.278347
0.0027633
0.277815
0.00631156
0.276498
0.010262
0.274032
0.0159088
0.269857
0.0240911
0.261211
0.0513114
0.243604
0.0940137
-0.222499
0.247037
-0.13289
0.271967
-0.136274
0.299655
-0.142741
0.324297
-0.128526
0.348213
-0.123639
0.371579
-0.114992
0.392526
-0.101664
0.411891
-0.0906108
0.429348
-0.0779985
0.4448
-0.0659717
0.458472
-0.0550226
0.470168
-0.0439916
0.480137
-0.0340774
0.488352
-0.0244554
0.494665
-0.0148036
0.499407
-0.00587836
0.502176
0.00369503
0.503066
0.0127837
0.502214
0.0226448
0.499454
0.0320419
0.494855
0.0422323
0.488659
0.0510681
0.481033
0.0591331
0.472411
0.0637585
0.463315
0.0638177
0.454008
0.0635768
0.444441
0.0651279
0.434616
0.0668903
0.424515
0.0693883
0.414028
0.0725183
0.403027
0.0761438
0.391209
0.0804758
0.378224
0.0857802
0.363573
0.0927078
0.346584
0.102462
0.326014
0.118726
0.30018
0.144567
0.262752
0.212134
0.211371
0.262233
-0.198028
-0.13733
-0.172344
-0.146126
-0.140407
-0.178254
-0.108184
-0.186151
-0.0748343
-0.195499
-0.0403016
-0.203827
-0.00664662
-0.201531
0.0239634
-0.188178
0.0515486
-0.172421
0.0764751
-0.156013
0.0984877
-0.137632
0.117973
-0.120913
0.135524
-0.106785
0.15138
-0.0941615
0.165847
-0.0838475
0.179179
-0.0752472
0.19153
-0.0682822
0.203077
-0.0626826
0.213946
-0.058414
0.224258
-0.054983
0.234103
-0.0523883
0.243506
-0.0500453
0.252419
-0.0473841
0.26066
-0.0426538
0.267909
-0.0363785
0.27415
-0.0307335
0.279466
-0.0253002
0.283855
-0.0201623
0.287363
-0.0152612
0.290021
-0.0105738
0.29187
-0.00608339
0.292937
-0.00177939
0.293237
0.00246332
0.292793
0.00675632
0.291467
0.0115878
0.288991
0.0183842
0.284716
0.0283663
0.276339
0.0596886
0.259382
0.110971
-0.220171
0.246053
-0.158772
0.272005
-0.162226
0.301277
-0.172013
0.327219
-0.154468
0.352422
-0.148841
0.37688
-0.13945
0.399046
-0.12383
0.419291
-0.110855
0.437852
-0.0965594
0.454295
-0.0824151
0.468844
-0.0695715
0.481653
-0.0568003
0.492582
-0.045007
0.501697
-0.0335702
0.509066
-0.0221728
0.514491
-0.0113034
0.518161
2.49928e-05
0.519985
0.01096
0.519986
0.0226442
0.518103
0.033925
0.514384
0.0459503
0.5089
0.0565527
0.501987
0.0660463
0.493834
0.0719111
0.484962
0.07269
0.47561
0.0729281
0.465793
0.0749456
0.45555
0.077133
0.444972
0.0799668
0.43402
0.0834694
0.422689
0.0874756
0.410898
0.0922668
0.398452
0.0982258
0.384913
0.106247
0.369626
0.117748
0.351198
0.137154
0.327552
0.168214
0.292131
0.247555
0.241907
0.312458
-0.194482
-0.163019
-0.167685
-0.172923
-0.134309
-0.21163
-0.100787
-0.219674
-0.0662577
-0.230028
-0.0305009
-0.239583
0.00408833
-0.23612
0.0353083
-0.219398
0.0631956
-0.200308
0.088222
-0.181039
0.110082
-0.159492
0.129332
-0.140163
0.146648
-0.124101
0.162316
-0.10983
0.176676
-0.0982074
0.190017
-0.0885882
0.20249
-0.0807556
0.214235
-0.0744272
0.225376
-0.0695551
0.236002
-0.0656087
0.246177
-0.0625634
0.255917
-0.0597855
0.2652
-0.0566667
0.273786
-0.0512406
0.281445
-0.0440367
0.288096
-0.0373847
0.293759
-0.0309635
0.298483
-0.0248865
0.302271
-0.0190492
0.305184
-0.0134871
0.307226
-0.00812498
0.308455
-0.00300843
0.308885
0.00203379
0.308472
0.00716894
0.307174
0.0128855
0.304635
0.0209232
0.300206
0.0327953
0.291913
0.0679817
0.275545
0.127339
-0.218657
0.24588
-0.185995
0.273286
-0.189632
0.304256
-0.202983
0.331404
-0.181617
0.357918
-0.175355
0.383653
-0.165184
0.406863
-0.14704
0.428374
-0.132366
0.447779
-0.115965
0.465209
-0.0998448
0.480873
-0.0852355
0.494597
-0.0705247
0.506464
-0.0568739
0.516593
-0.0436995
0.524914
-0.0304936
0.531382
-0.0177716
0.536025
-0.00461835
0.538796
0.00818952
0.539583
0.0218568
0.538413
0.0350955
0.535386
0.0489768
0.530512
0.0614267
0.524044
0.0725147
0.516343
0.0796122
0.507733
0.0812995
0.498472
0.0821899
0.488617
0.0848004
0.478177
0.0875729
0.467204
0.0909401
0.455768
0.0949056
0.443824
0.0994187
0.431424
0.104667
0.41846
0.11119
0.404794
0.119913
0.389935
0.132607
0.372842
0.154247
0.351603
0.189453
0.319661
0.279496
0.272105
0.360014
-0.191741
-0.189935
-0.163794
-0.20087
-0.128698
-0.246726
-0.0936569
-0.254715
-0.0577109
-0.265974
-0.0205991
-0.276695
0.0151771
-0.271896
0.047228
-0.251449
0.0756245
-0.228705
0.100892
-0.206307
0.122778
-0.181378
0.14188
-0.159265
0.158996
-0.141216
0.174465
-0.125299
0.188681
-0.112423
0.201978
-0.101886
0.214476
-0.0932536
0.226345
-0.0862959
0.237678
-0.0808877
0.248558
-0.0764895
0.259014
-0.0730191
0.269083
-0.0698547
0.278706
-0.066289
0.287674
-0.0602093
0.29572
-0.0520823
0.302757
-0.0444213
0.308794
-0.0370012
0.313861
-0.0299533
0.317951
-0.0231393
0.321108
-0.0166434
0.323377
-0.0103947
0.324768
-0.00439866
0.325312
0.00148965
0.324977
0.00750402
0.323661
0.0142008
0.321062
0.0235221
0.316497
0.0373609
0.308221
0.076258
0.292442
0.143118
-0.218108
0.246693
-0.21458
0.275553
-0.218491
0.308223
-0.235653
0.336772
-0.210165
0.364778
-0.203362
0.391887
-0.192294
0.416344
-0.171496
0.438749
-0.154772
0.45931
-0.136526
0.477605
-0.11814
0.494007
-0.101637
0.508589
-0.0851072
0.521367
-0.0696515
0.532339
-0.0546714
0.541509
-0.0396638
0.548903
-0.0251654
0.554375
-0.0100905
0.557908
0.00465649
0.559479
0.0202857
0.559056
0.0355188
0.55673
0.051303
0.552549
0.0656071
0.546693
0.0783713
0.539484
0.086821
0.531252
0.0895318
0.522199
0.0912423
0.51238
0.0946196
0.50187
0.0980829
0.490732
0.102078
0.47896
0.106678
0.466568
0.11181
0.453568
0.117668
0.439912
0.124845
0.42549
0.134335
0.410068
0.148029
0.392941
0.171374
0.372975
0.209419
0.344686
0.307785
0.300761
0.403939
-0.189688
-0.218355
-0.160383
-0.230176
-0.123515
-0.283593
-0.0869314
-0.291299
-0.0493366
-0.303569
-0.0106493
-0.315382
0.0265924
-0.309138
0.0596549
-0.284512
0.0887523
-0.257802
0.114461
-0.232016
0.136499
-0.203416
0.155577
-0.178343
0.172561
-0.1582
0.187854
-0.140592
0.201904
-0.126473
0.215078
-0.115061
0.227553
-0.105728
0.239472
-0.098215
0.250929
-0.0923448
0.262008
-0.0875681
0.272735
-0.0837466
0.283077
-0.0801969
0.293013
-0.076225
0.302348
-0.0695435
0.310798
-0.0605329
0.318206
-0.0518291
0.32462
-0.0434153
0.330011
-0.0353443
0.334425
-0.027553
0.337859
-0.0200777
0.340344
-0.0128799
0.341921
-0.00597548
0.342579
0.000831741
0.342318
0.00776549
0.341032
0.0154861
0.338391
0.0261633
0.333673
0.0420794
0.325438
0.0844923
0.310251
0.158305
-0.218064
0.248275
-0.244791
0.278688
-0.248905
0.313262
-0.270227
0.343268
-0.240172
0.372556
-0.23265
0.401156
-0.220893
0.426797
-0.197137
0.450365
-0.17834
0.471933
-0.158094
0.491135
-0.137341
0.508425
-0.118927
0.523926
-0.100608
0.537444
-0.0831687
0.549169
-0.0663967
0.559247
-0.0497421
0.56738
-0.0332981
0.573673
-0.0163836
0.57798
0.000349602
0.580381
0.0178844
0.580766
0.0351335
0.579061
0.0530079
0.575539
0.0691293
0.570266
0.083645
0.563561
0.0935261
0.555678
0.0974145
0.546786
0.100134
0.537064
0.104342
0.526557
0.10859
0.515259
0.113375
0.50328
0.118658
0.490568
0.124522
0.477099
0.131136
0.462842
0.139102
0.447685
0.149492
0.431425
0.164289
0.413463
0.189336
0.393328
0.229554
0.367523
0.333591
0.327218
0.444243
-0.188287
-0.248133
-0.157514
-0.260949
-0.118681
-0.322426
-0.0802301
-0.32975
-0.0409719
-0.342827
-0.000439666
-0.355915
0.0383195
-0.347897
0.0726103
-0.318803
0.102582
-0.287774
0.128912
-0.258346
0.151241
-0.225745
0.170372
-0.197474
0.187302
-0.17513
0.202458
-0.155748
0.216344
-0.140359
0.229383
-0.1281
0.241779
-0.118124
0.25368
-0.110116
0.265227
-0.103892
0.276447
-0.0987887
0.287347
-0.0946469
0.29796
-0.0908093
0.308205
-0.0864706
0.317881
-0.0792189
0.326693
-0.0693452
0.3345
-0.0596361
0.341266
-0.0501808
0.347021
-0.0410996
0.351742
-0.0322739
0.355453
-0.0237894
0.358191
-0.0156172
0.35994
-0.00772446
0.360746
2.53905e-05
0.360572
0.00793955
0.3593
0.0167583
0.356604
0.0288588
0.351799
0.0468842
0.343631
0.0926602
0.329013
0.172924
-0.218729
0.250504
-0.276566
0.282491
-0.280892
0.318994
-0.30673
0.350697
-0.271875
0.381612
-0.263564
0.411687
-0.250969
0.438469
-0.223919
0.463285
-0.203156
0.485906
-0.180715
0.506071
-0.157506
0.524173
-0.137029
0.540326
-0.116762
0.554676
-0.0975185
0.567285
-0.0790053
0.577976
-0.0604335
0.586919
-0.0422407
0.593962
-0.0234263
0.599083
-0.00477232
0.602168
0.0147997
0.603244
0.034058
0.602277
0.0539747
0.599343
0.0720633
0.594656
0.0883315
0.588464
0.0997179
0.58098
0.104899
0.572386
0.108728
0.562771
0.113958
0.552218
0.119142
0.540856
0.124737
0.528641
0.130873
0.515634
0.137529
0.501806
0.144964
0.487071
0.153837
0.471295
0.165268
0.454238
0.181346
0.435351
0.208223
0.414196
0.250709
0.389399
0.358388
0.35178
0.481862
-0.187264
-0.279598
-0.154989
-0.293223
-0.114078
-0.363337
-0.0736962
-0.370132
-0.0324609
-0.384063
0.00992244
-0.398298
0.0504373
-0.388412
0.0861178
-0.354483
0.117153
-0.318809
0.144173
-0.285366
0.166947
-0.248519
0.186264
-0.216791
0.203227
-0.192094
0.218278
-0.170798
0.232018
-0.1541
0.244914
-0.140996
0.257196
-0.130405
0.26906
-0.12198
0.2806
-0.115431
0.291905
-0.110094
0.302989
-0.10573
0.313816
-0.101636
0.324322
-0.0969762
0.334332
-0.0892295
0.343507
-0.0785205
0.351681
-0.0678097
0.358831
-0.0573305
0.364929
-0.0471974
0.369987
-0.0373321
0.373985
-0.0277874
0.376949
-0.0185813
0.37892
-0.00969565
0.379864
-0.00091838
0.379786
0.00801759
0.378537
0.0180069
0.375826
0.0315698
0.370921
0.0517898
0.362836
0.100745
0.348848
0.186912
-0.219759
0.253344
-0.31015
0.287094
-0.314641
0.325635
-0.345271
0.35893
-0.30517
0.391458
-0.296093
0.423122
-0.282633
0.451429
-0.252226
0.477381
-0.229108
0.501083
-0.204417
0.522163
-0.178587
0.541186
-0.156051
0.55823
-0.133806
0.573213
-0.112501
0.586464
-0.0922565
0.597961
-0.0719302
0.607617
-0.0518975
0.615345
-0.0311536
0.621125
-0.0105521
0.624914
0.0110099
0.6267
0.0322726
0.626426
0.0542489
0.624168
0.0743211
0.620071
0.0924277
0.61438
0.105409
0.607283
0.111997
0.598956
0.117054
0.589481
0.123434
0.578985
0.129638
0.567509
0.136213
0.555127
0.143255
0.541839
0.150817
0.527632
0.159171
0.512471
0.168998
0.496147
0.181591
0.47842
0.199074
0.458731
0.227912
0.436399
0.273041
0.411458
0.38333
0.375496
0.517824
-0.186662
-0.312695
-0.152649
-0.327235
-0.10961
-0.406376
-0.0671302
-0.412612
-0.0238513
-0.427342
0.0205755
-0.442725
0.0630347
-0.430871
0.10021
-0.391658
0.13241
-0.351008
0.160328
-0.313284
0.183666
-0.271858
0.203273
-0.236397
0.220301
-0.209122
0.235331
-0.185828
0.248957
-0.167726
0.261713
-0.153751
0.273858
-0.14255
0.285628
-0.13375
0.297159
-0.126962
0.308497
-0.121432
0.319679
-0.116913
0.330677
-0.112634
0.341452
-0.107751
0.351768
-0.0995458
0.361291
-0.0880427
0.369829
-0.0763481
0.377333
-0.0648347
0.383796
-0.0536605
0.38916
-0.042696
0.393465
-0.0320922
0.396691
-0.0218074
0.398859
-0.0118634
0.399977
-0.00203714
0.399983
0.00801204
0.398784
0.0192059
0.396047
0.0343064
0.39107
0.0567672
0.383135
0.10868
0.369799
0.200248
-0.221359
0.256638
-0.34543
0.292251
-0.350255
0.33295
-0.38597
0.368107
-0.340327
0.402388
-0.330374
0.435689
-0.315933
0.465416
-0.281953
0.492711
-0.256402
0.517474
-0.22918
0.53955
-0.200662
0.559416
-0.175917
0.577209
-0.151599
0.593037
-0.12833
0.607016
-0.106235
0.619148
-0.0840623
0.62942
-0.0621701
0.637844
-0.0395773
0.644339
-0.0170473
0.648808
0.006541
0.651181
0.0299001
0.651553
0.0538765
0.64989
0.0759844
0.646367
0.0959502
0.641232
0.110545
0.63463
0.118598
0.626596
0.125087
0.617316
0.132714
0.606858
0.140096
0.595318
0.147753
0.582775
0.155798
0.569235
0.164358
0.554673
0.173733
0.539042
0.184629
0.522183
0.198451
0.503833
0.217424
0.483449
0.248296
0.46015
0.296341
0.434551
0.408928
0.399498
0.552877
-0.186325
-0.347729
-0.150667
-0.362894
-0.105252
-0.451791
-0.0605872
-0.457277
-0.0150481
-0.472881
0.0316556
-0.489429
0.0760666
-0.475282
0.114951
-0.430543
0.148449
-0.384506
0.177369
-0.342204
0.201365
-0.295854
0.221353
-0.256385
0.238594
-0.226363
0.253647
-0.200881
0.267201
-0.18128
0.279834
-0.166385
0.291842
-0.154558
0.303492
-0.1454
0.314944
-0.138415
0.32629
-0.132777
0.337534
-0.128157
0.348685
-0.123785
0.359661
-0.118728
0.37027
-0.110155
0.380115
-0.0978878
0.389002
-0.0852349
0.396863
-0.0726953
0.403652
-0.0604501
0.409361
-0.0484041
0.413966
-0.0366977
0.417463
-0.0253046
0.419864
-0.0142644
0.421144
-0.00331713
0.421272
0.00788435
0.420112
0.0203658
0.417391
0.0370277
0.412371
0.0617868
0.40455
0.116502
0.391918
0.212879
-0.223237
0.260463
-0.382656
0.298043
-0.387835
0.341041
-0.428968
0.378086
-0.377371
0.414144
-0.366433
0.4492
-0.35099
0.480477
-0.31323
0.509079
-0.285005
0.535081
-0.255182
0.558155
-0.223737
0.579
-0.196761
0.597587
-0.170187
0.614139
-0.144881
0.628808
-0.120904
0.641496
-0.0967506
0.652474
-0.0731487
0.66154
-0.0486432
0.668652
-0.0241593
0.673786
0.00140707
0.676846
0.0268401
0.677817
0.0529058
0.67678
0.0770215
0.673844
0.0988864
0.669222
0.115167
0.663042
0.124778
0.655334
0.132796
0.646281
0.141767
0.635932
0.150445
0.624363
0.159322
0.611673
0.168488
0.597872
0.178159
0.58297
0.188634
0.566875
0.200724
0.549499
0.215827
0.530528
0.236395
0.509483
0.269341
0.485337
0.320487
0.459046
0.435219
0.424556
0.587367
-0.186438
-0.384529
-0.148713
-0.400619
-0.100926
-0.499577
-0.0538759
-0.504327
-0.00602767
-0.520729
0.0430116
-0.538468
0.0896996
-0.52197
0.130368
-0.471212
0.165347
-0.419485
0.19537
-0.372227
0.220148
-0.320632
0.240601
-0.276838
0.2581
-0.243862
0.273239
-0.21602
0.286745
-0.194786
0.299285
-0.178925
0.311171
-0.166444
0.32268
-0.15691
0.334041
-0.149776
0.345351
-0.144087
0.356627
-0.139434
0.367869
-0.135027
0.37904
-0.129899
0.389901
-0.121016
0.400045
-0.108032
0.40926
-0.0944502
0.417465
-0.0808994
0.42461
-0.0675956
0.430649
-0.0544431
0.43556
-0.0416087
0.439325
-0.0290697
0.441945
-0.0168845
0.443413
-0.00478524
0.443664
0.00763383
0.442569
0.0214608
0.439858
0.0397387
0.43483
0.0668151
0.42721
0.124122
0.415269
0.22482
-0.225474
0.264814
-0.421996
0.304412
-0.427433
0.349823
-0.474378
0.388815
-0.416364
0.426801
-0.404418
0.463815
-0.388004
0.496607
-0.346021
0.526655
-0.315053
0.55402
-0.282547
0.578198
-0.247915
0.599929
-0.218491
0.619373
-0.189632
0.636557
-0.162065
0.651916
-0.136263
0.665378
-0.110213
0.676937
-0.0847074
0.686624
-0.0583299
0.694327
-0.0318625
0.699959
-0.00422445
0.703607
0.0231917
0.70521
0.0513024
0.704708
0.0775242
0.70234
0.101254
0.698251
0.119255
0.692548
0.130481
0.685247
0.140096
0.676399
0.150616
0.666177
0.160667
0.65465
0.170849
0.641846
0.181292
0.627829
0.192176
0.612579
0.203885
0.596083
0.21722
0.578163
0.233746
0.558544
0.256014
0.536831
0.291054
0.511995
0.345323
0.485027
0.462187
0.451056
0.621338
-0.18667
-0.423332
-0.147083
-0.440206
-0.0966219
-0.550039
-0.0470867
-0.553862
0.00326053
-0.571076
0.05488
-0.590087
0.103859
-0.570949
0.146525
-0.513877
0.183023
-0.455983
0.214318
-0.403522
0.239947
-0.346261
0.260999
-0.297891
0.278846
-0.261709
0.294136
-0.23131
0.307674
-0.208324
0.320127
-0.191377
0.331885
-0.178203
0.343284
-0.168309
0.354529
-0.161021
0.36576
-0.155317
0.377025
-0.150699
0.388349
-0.14635
0.39967
-0.14122
0.410754
-0.1321
0.421191
-0.118469
0.430713
-0.103972
0.439244
-0.089431
0.446712
-0.0750632
0.453079
-0.0608105
0.458286
-0.0468155
0.462336
-0.0331203
0.465211
-0.0197591
0.466853
-0.00642771
0.467254
0.00723359
0.466242
0.0224725
0.46356
0.042421
0.458553
0.0718222
0.451106
0.131569
0.439912
0.236014
-0.228128
0.269628
-0.463496
0.311351
-0.469156
0.359268
-0.522296
0.400321
-0.457417
0.440428
-0.444525
0.479388
-0.426965
0.513882
-0.380515
0.545483
-0.346654
0.574135
-0.311199
0.599405
-0.273185
0.622129
-0.241215
0.642452
-0.209955
0.660523
-0.180135
0.676514
-0.152254
0.690573
-0.124272
0.702727
-0.096861
0.712977
-0.0685801
0.721251
-0.0401364
0.727554
-0.0105274
0.731735
0.0190102
0.733846
0.0491914
0.733946
0.0774249
0.732088
0.103111
0.728509
0.122835
0.72325
0.135739
0.716324
0.147022
0.70778
0.15916
0.697718
0.170729
0.686216
0.18235
0.673334
0.194174
0.659134
0.206376
0.643595
0.219423
0.626658
0.234158
0.608213
0.25219
0.587989
0.276239
0.565621
0.313422
0.540093
0.37085
0.512546
0.489734
0.479107
0.654777
-0.187153
-0.464307
-0.145414
-0.481945
-0.0922529
-0.603199
-0.0400802
-0.606035
0.0129156
-0.624072
0.06723
-0.644402
0.118721
-0.62244
0.163466
-0.558623
0.201678
-0.494195
0.234305
-0.436148
0.260932
-0.372888
0.282627
-0.319586
0.300873
-0.279955
0.316397
-0.246833
0.329987
-0.221915
0.342421
-0.203811
0.35407
-0.189851
0.365338
-0.179577
0.37646
-0.172143
0.387605
-0.166463
0.398832
-0.161926
0.410179
-0.157697
0.421624
-0.152665
0.432925
-0.143401
0.443608
-0.129152
0.45341
-0.113774
0.46225
-0.0982711
0.470039
-0.0828524
0.476728
-0.0674992
0.482254
-0.0523411
0.486584
-0.0374509
0.489684
-0.0228587
0.491551
-0.0082944
0.492089
0.00669488
0.491176
0.0233853
0.488547
0.0450501
0.483579
0.0767902
0.476368
0.13878
0.465952
0.24643
-0.231026
0.274739
-0.507209
0.318794
-0.513211
0.369394
-0.572896
0.412675
-0.500698
0.454939
-0.486789
0.49592
-0.467946
0.532266
-0.416861
0.565473
-0.379861
0.595494
-0.34122
0.621993
-0.299684
0.645854
-0.265076
0.667028
-0.231129
0.685861
-0.198969
0.702588
-0.168981
0.717249
-0.138933
0.730012
-0.109624
0.74081
-0.0793781
0.749661
-0.0489872
0.756443
-0.0173092
0.7612
0.0142534
0.763827
0.0465636
0.764408
0.0768439
0.763097
0.104423
0.760005
0.125927
0.755238
0.140506
0.748685
0.153576
0.740429
0.167417
0.730556
0.180602
0.719115
0.193792
0.706207
0.207082
0.691841
0.220741
0.676029
0.235235
0.658709
0.251478
0.639762
0.271137
0.618954
0.297047
0.595885
0.336492
0.569731
0.397004
0.541667
0.517797
0.508744
0.6877
-0.187829
-0.507504
-0.143881
-0.525893
-0.0878482
-0.659232
-0.0328307
-0.661052
0.0229421
-0.679845
0.0800714
-0.701531
0.134289
-0.676657
0.181226
-0.60556
0.221287
-0.534256
0.255359
-0.47022
0.28304
-0.400569
0.305471
-0.342018
0.324239
-0.298723
0.340031
-0.262625
0.353747
-0.235631
0.36619
-0.216254
0.377776
-0.201437
0.388925
-0.190727
0.399923
-0.18314
0.410952
-0.177492
0.422123
-0.173098
0.433475
-0.169048
0.445011
-0.164201
0.456475
-0.154866
0.467376
-0.140052
0.477454
-0.123852
0.48658
-0.107397
0.494687
-0.0909595
0.501675
-0.0744875
0.507505
-0.0581712
0.512117
-0.0420625
0.515487
-0.0262284
0.51755
-0.0103582
0.518242
0.00600294
0.51745
0.0241774
0.514886
0.0476146
0.51002
0.0816559
0.503036
0.145764
0.493378
0.256088
-0.234294
0.280408
-0.553323
0.326905
-0.559707
0.380173
-0.626164
0.425927
-0.546451
0.470338
-0.5312
0.513589
-0.511198
0.55177
-0.455042
0.586682
-0.414774
0.618239
-0.372777
0.64604
-0.327485
0.670867
-0.289903
0.693078
-0.253339
0.712668
-0.21856
0.730111
-0.186424
0.745512
-0.154334
0.758815
-0.122927
0.7702
-0.0907632
0.779561
-0.0583485
0.78691
-0.0246575
0.792127
0.00903541
0.795239
0.0434516
0.796358
0.0757253
0.795475
0.105306
0.792859
0.128543
0.788515
0.14485
0.782351
0.159739
0.774419
0.175348
0.764764
0.190257
0.753466
0.205089
0.740533
0.220015
0.726037
0.235238
0.709968
0.251304
0.692281
0.269165
0.672875
0.290543
0.651453
0.318469
0.627769
0.360175
0.600982
0.423792
0.57239
0.546389
0.540015
0.720075
-0.188756
-0.553042
-0.142423
-0.572227
-0.0832998
-0.718355
-0.025372
-0.71898
0.0334073
-0.738624
0.093557
-0.761681
0.150521
-0.733622
0.19991
-0.654949
0.241887
-0.576233
0.277564
-0.505896
0.306414
-0.42942
0.329681
-0.365284
0.349004
-0.318045
0.365142
-0.278764
0.379033
-0.249522
0.391507
-0.228728
0.403067
-0.212997
0.414104
-0.201764
0.424975
-0.194011
0.43589
-0.188407
0.446981
-0.184188
0.458311
-0.180379
0.469915
-0.175805
0.481526
-0.166476
0.492631
-0.151157
0.502934
-0.134156
0.512321
-0.116784
0.520702
-0.0993409
0.528002
-0.0817874
0.534118
-0.0642873
0.539024
-0.046968
0.542632
-0.0298363
0.544929
-0.0126558
0.545814
0.0051181
0.545122
0.0248697
0.542687
0.0500499
0.537916
0.0864262
0.531237
0.152444
0.522354
0.26497
-0.237826
0.286469
-0.601965
0.335426
-0.608665
0.391769
-0.682507
0.439811
-0.594493
0.486747
-0.578137
0.532247
-0.556698
0.572534
-0.495328
0.609157
-0.451397
0.642285
-0.405905
0.671405
-0.356605
0.697508
-0.316006
0.720633
-0.276464
0.741165
-0.239091
0.759356
-0.204615
0.775382
-0.17036
0.789308
-0.136853
0.801212
-0.102667
0.81106
-0.0681965
0.818849
-0.0324463
0.824555
0.00332938
0.828175
0.039831
0.829676
0.0742246
0.829254
0.105728
0.827106
0.130692
0.82319
0.148766
0.817455
0.165474
0.809844
0.18296
0.800408
0.199693
0.789217
0.21628
0.776329
0.232903
0.761739
0.249828
0.74545
0.267593
0.727431
0.287185
0.707569
0.310405
0.685623
0.340415
0.661315
0.384483
0.633933
0.451174
0.60486
0.575462
0.572989
0.751946
-0.189822
-0.601046
-0.140983
-0.621066
-0.0786375
-0.7807
-0.0176404
-0.779977
0.0442909
-0.800555
0.107641
-0.825031
0.16763
-0.79361
0.219505
-0.706824
0.263571
-0.620299
0.300915
-0.543241
0.331045
-0.459549
0.355231
-0.38947
0.375185
-0.338
0.391745
-0.295323
0.405867
-0.263644
0.418439
-0.2413
0.429976
-0.224534
0.440944
-0.212732
0.451697
-0.204764
0.462512
-0.199223
0.473496
-0.195172
0.484803
-0.191686
0.496439
-0.187441
0.508163
-0.178201
0.519444
-0.162438
0.529942
-0.144653
0.539587
-0.126428
0.548234
-0.107988
0.555794
-0.0893474
0.562223
-0.0707165
0.567395
-0.05214
0.57127
-0.0337111
0.573771
-0.015157
0.574839
0.00404994
0.574319
0.0253894
0.571988
0.0523808
0.567393
0.0910216
0.560992
0.158844
0.552902
0.273061
-0.241689
0.292942
-0.653219
0.344569
-0.660291
0.403953
-0.741891
0.454719
-0.645259
0.50408
-0.627498
0.552105
-0.604723
0.594385
-0.537608
0.632954
-0.489966
0.667764
-0.440715
0.698359
-0.3872
0.725621
-0.343269
0.749893
-0.300736
0.771292
-0.260491
0.790272
-0.223595
0.806933
-0.18702
0.821497
-0.151417
0.833908
-0.115078
0.844245
-0.0785333
0.852548
-0.0407496
0.858666
-0.00278856
0.86268
0.0358174
0.86462
0.0722838
0.86461
0.105738
0.862873
0.132429
0.859386
0.152253
0.854011
0.170849
0.846723
0.190248
0.837578
0.208837
0.826554
0.227304
0.813694