/*--------------------------------*- C++ -*----------------------------------*\
| =========                 |                                                 |
| \\      /  F ield         | OpenFOAM: The Open Source CFD Toolbox           |
|  \\    /   O peration     | Version:  3.0.0                                 |
|   \\  /    A nd           | Web:      www.OpenFOAM.org                      |
|    \\/     M anipulation  |                                                 |
\*---------------------------------------------------------------------------*/
FoamFile
{
    version     2.0;
    format      ascii;
    class       volVectorField;
    location    "398";
    object      U;
}
// * * * * * * * * * * * * * * * * * * * * * * * * * * * * * * * * * * * * * //

dimensions      [0 1 -1 0 0 0 0];

internalField   nonuniform List<vector> 
10720
(
(-0.200062 31.7397 4.74277e-18)
(1.83347 33.988 -4.43596e-18)
(4.31468 36.1216 0)
(7.11293 37.6889 -3.0987e-16)
(10.1564 38.8034 3.41239e-16)
(13.3717 39.4314 2.47942e-16)
(16.5935 39.4711 3.79526e-16)
(19.7273 38.9742 0)
(22.694 38.015 0)
(25.4167 36.6331 0)
(27.8727 34.9404 1.25522e-16)
(30.0191 32.959 0)
(31.8537 30.7398 2.0154e-15)
(33.3943 28.3501 0)
(34.6364 25.8257 0)
(35.5956 23.2244 0)
(36.2619 20.5727 -3.29283e-15)
(36.6411 17.9254 -4.93678e-15)
(36.7143 15.3053 4.33956e-15)
(36.4924 12.7691 0)
(35.9553 10.3474 3.40831e-15)
(35.1391 8.10721 -6.53601e-15)
(34.0901 6.09356 3.16203e-15)
(32.9188 4.36272 -9.32359e-17)
(31.8268 2.95635 0)
(30.899 1.81754 1.08697e-15)
(30.0354 0.855827 1.636e-17)
(29.1345 0.0290331 -4.13779e-16)
(28.159 -0.685208 -1.35675e-15)
(27.1054 -1.30076 -4.3032e-15)
(25.977 -1.82326 1.55204e-15)
(24.7764 -2.25518 2.0016e-15)
(23.5 -2.59674 7.86851e-16)
(22.1372 -2.8478 -1.99938e-15)
(20.636 -3.00282 3.69408e-15)
(18.958 -3.05907 4.12483e-17)
(16.7792 -2.95904 -9.55941e-17)
(14.2598 -2.70013 -6.18193e-14)
(8.6185 -2.10734 9.30281e-14)
(-1.8605 29.2977 -5.4883e-18)
(-3.26865 26.5028 -2.29736e-17)
(-4.35534 23.3189 7.78962e-17)
(-4.97215 19.5566 -2.17954e-16)
(-4.95486 15.6333 -6.34905e-16)
(-4.24159 11.6648 1.02195e-15)
(-2.84781 7.9011 4.6621e-15)
(-0.930157 4.64286 2.62819e-15)
(1.20147 2.06922 0)
(3.35088 -0.077451 0)
(5.62392 -1.84083 4.51409e-15)
(7.83837 -3.09805 1.63682e-15)
(9.83788 -3.8925 -2.67438e-15)
(11.5954 -4.34877 2.24348e-15)
(13.1403 -4.58094 3.83678e-15)
(14.507 -4.66109 2.5478e-15)
(15.7233 -4.64155 3.40992e-15)
(16.8192 -4.55575 2.38463e-15)
(17.8258 -4.42734 0)
(18.7662 -4.26258 0)
(19.6593 -4.06526 -4.07693e-15)
(20.5171 -3.82703 -2.24609e-16)
(21.343 -3.53416 3.56315e-15)
(22.1087 -3.15739 -3.03614e-15)
(22.7509 -2.69174 2.26223e-17)
(23.2513 -2.17364 0)
(23.634 -1.62896 1.20419e-15)
(23.9147 -1.07377 0)
(24.0986 -0.519314 0)
(24.1901 0.0232394 1.04559e-15)
(24.1811 0.543988 0)
(24.062 1.03595 -3.99193e-15)
(23.8475 1.4938 -7.70237e-15)
(23.5551 1.91268 -3.83554e-14)
(23.1844 2.28885 1.53927e-14)
(22.73 2.62292 -5.99346e-17)
(22.0737 2.9078 0)
(21.1606 3.1071 3.34052e-14)
(18.4847 3.27618 3.84122e-14)
(7.30113 27.6605 -1.67878e-17)
(9.44191 29.3783 1.14454e-17)
(12.0134 30.8939 0)
(14.9368 32.1018 0)
(18.0419 32.9497 -9.36108e-17)
(21.3333 33.3782 -2.37791e-16)
(24.6852 33.3473 0)
(27.9545 32.8894 0)
(31.0841 32.0214 5.00998e-16)
(33.9866 30.8053 0)
(36.5995 29.2989 1.96354e-15)
(38.9295 27.6252 0)
(40.9648 25.8177 7.02476e-16)
(42.7001 23.8926 -6.92997e-16)
(44.1078 21.8803 1.37437e-15)
(45.1767 19.8035 -2.74398e-15)
(45.912 17.6752 2.99157e-15)
(46.3077 15.5233 2.66216e-15)
(46.3687 13.3602 2.58498e-15)
(46.0841 11.2218 1.548e-16)
(45.4602 9.13764 -2.66533e-15)
(44.4954 7.16687 2.47037e-15)
(43.2218 5.35364 -1.36861e-16)
(41.6823 3.7582 0)
(39.9944 2.43161 0)
(38.309 1.31783 0)
(36.6809 0.336762 8.25758e-17)
(35.0965 -0.524018 -1.63861e-17)
(33.5521 -1.26922 9.80822e-16)
(32.0385 -1.90715 3.68496e-17)
(30.5369 -2.44183 -2.90861e-17)
(29.0273 -2.8766 -5.2822e-17)
(27.4889 -3.21414 4.98089e-16)
(25.9046 -3.45684 6.85618e-16)
(24.2291 -3.60377 2.63002e-17)
(22.4412 -3.65495 8.72958e-15)
(20.2579 -3.56464 0)
(17.9199 -3.33837 1.7362e-14)
(12.3146 -2.52734 4.87492e-14)
(5.45385 25.8068 2.29785e-17)
(3.81304 23.7215 -7.48096e-17)
(2.30446 21.2567 -7.98309e-16)
(1.08121 18.4209 9.25746e-16)
(0.325891 15.3044 0)
(0.133761 12.0331 -1.74333e-15)
(0.556448 8.78962 -1.19227e-15)
(1.55706 5.82957 -9.64144e-15)
(2.98274 3.30725 4.04976e-15)
(4.66475 1.1627 -3.62162e-15)
(6.50986 -0.537923 4.40072e-15)
(8.38941 -1.73875 -1.24487e-15)
(10.1835 -2.52737 0)
(11.8385 -3.02014 -9.04236e-16)
(13.3444 -3.31049 4.64359e-17)
(14.7105 -3.45556 -2.17072e-15)
(15.9483 -3.50307 0)
(17.0772 -3.48302 0)
(18.1199 -3.4174 -2.66005e-16)
(19.0982 -3.30759 2.5429e-16)
(20.0276 -3.15433 -3.38888e-15)
(20.9204 -2.94356 -4.09289e-16)
(21.7792 -2.65728 1.91251e-16)
(22.5821 -2.26082 2.70994e-15)
(23.2771 -1.76648 -2.53125e-15)
(23.8404 -1.23874 -2.22841e-15)
(24.2866 -0.705804 0)
(24.6279 -0.178982 0)
(24.8685 0.335148 0)
(25.0087 0.828165 8.35537e-18)
(25.0663 1.29227 0)
(25.059 1.72209 0)
(24.9801 2.11672 1.31606e-14)
(24.821 2.47546 1.28091e-14)
(24.5704 2.80007 -1.25937e-14)
(24.236 3.0961 1.25264e-14)
(23.718 3.36233 -2.49424e-14)
(23.2115 3.59592 -2.52981e-14)
(21.2351 3.65871 -2.66558e-14)
(8.198 25.4322 -4.62833e-18)
(9.75681 26.9438 -4.86118e-17)
(11.6242 28.3895 3.5707e-17)
(13.7439 29.6954 7.28677e-18)
(16.0505 30.7391 -8.54705e-17)
(18.5439 31.4952 3.47908e-16)
(21.1435 31.9275 -2.58097e-16)
(23.7682 32.0024 -3.26591e-16)
(26.3613 31.7218 1.81351e-19)
(28.8646 31.1031 -4.872e-16)
(31.2269 30.1679 4.20463e-16)
(33.4188 28.9443 -1.23005e-15)
(35.4181 27.4703 -5.66287e-16)
(37.2092 25.7843 0)
(38.804 23.9137 -1.42464e-15)
(40.2071 21.8893 2.83738e-15)
(41.4088 19.7408 0)
(42.3845 17.5134 -5.24932e-15)
(43.1223 15.2367 -2.61919e-15)
(43.592 12.962 2.96043e-16)
(43.7794 10.7262 -2.9375e-16)
(43.6617 8.59588 -1.26887e-16)
(43.2404 6.6196 -1.75978e-15)
(42.5249 4.85835 8.52573e-16)
(41.5724 3.35742 0)
(40.4675 2.06073 6.74322e-16)
(39.237 0.898711 -7.57514e-17)
(37.8806 -0.129591 0)
(36.4206 -1.022 8.29029e-16)
(34.8872 -1.78399 1.35278e-15)
(33.3012 -2.41966 -1.9211e-15)
(31.6747 -2.93397 -1.17246e-15)
(30.0075 -3.33268 -4.48753e-17)
(28.2919 -3.62064 6.8269e-16)
(26.4877 -3.79944 2.21733e-15)
(24.5732 -3.86745 -7.46535e-15)
(22.2866 -3.78733 0)
(19.8692 -3.52053 1.39792e-14)
(14.691 -2.79808 -7.24994e-14)
(6.89686 23.819 -2.89392e-17)
(5.73119 22.0318 -8.59594e-17)
(4.70997 19.9033 3.34324e-16)
(3.83898 17.4946 0)
(3.27798 14.884 5.65084e-16)
(3.08137 12.1306 0)
(3.29398 9.35148 3.63937e-15)
(3.91297 6.73231 2.41278e-15)
(4.8842 4.40065 2.75817e-15)
(6.13997 2.3731 0)
(7.5948 0.706059 -4.30629e-15)
(9.13102 -0.579471 -9.49423e-16)
(10.6553 -1.53245 4.31653e-15)
(12.1118 -2.21834 0)
(13.4765 -2.69327 -2.13966e-15)
(14.7446 -3.00292 -6.59802e-16)
(15.9183 -3.18772 2.93285e-15)
(17.0071 -3.27758 1.60613e-15)
(18.0259 -3.2943 4.82211e-16)
(18.9909 -3.24633 -2.43459e-16)
(19.914 -3.13844 3.09039e-15)
(20.8043 -2.9643 0)
(21.6623 -2.71212 0)
(22.4699 -2.36144 2.16489e-17)
(23.1851 -1.92512 0)
(23.7847 -1.44992 4.44799e-15)
(24.2785 -0.955182 -6.59368e-17)
(24.6772 -0.449156 -4.9006e-16)
(24.9845 0.0600539 0)
(25.2021 0.562168 -8.95545e-16)
(25.3339 1.04819 1.7541e-15)
(25.3859 1.51236 0)
(25.361 1.94963 -6.60595e-15)
(25.2609 2.35471 0)
(25.0751 2.7256 0)
(24.8044 3.06303 3.88111e-17)
(24.3401 3.36699 3.59963e-17)
(23.8078 3.59874 2.53221e-14)
(22.0442 3.66645 5.16907e-14)
(10.8918 23.2858 -2.55742e-17)
(12.3381 24.5765 -3.55428e-17)
(14.0464 25.8115 4.73514e-17)
(15.987 26.9159 4.33168e-17)
(18.1017 27.7988 0)
(20.396 28.4398 0)
(22.8072 28.7983 -3.57648e-16)
(25.2681 28.8433 5.19212e-16)
(27.7291 28.5707 0)
(30.1325 27.9881 -6.91828e-16)
(32.4256 27.114 -9.837e-16)
(34.569 25.9772 -8.95019e-16)
(36.5287 24.6156 1.13985e-15)
(38.2827 23.0641 1.04128e-15)
(39.8127 21.357 0)
(41.0922 19.5355 1.64821e-15)
(42.1031 17.6359 5.77643e-16)
(42.8465 15.685 4.64216e-15)
(43.325 13.7087 2.76776e-16)
(43.5466 11.7367 -2.74952e-16)
(43.5208 9.80124 2.24955e-15)
(43.2628 7.94759 -3.64788e-16)
(42.7989 6.21655 1.93772e-15)
(42.1621 4.65278 7.53881e-16)
(41.4034 3.28806 -4.25245e-17)
(40.5768 2.08412 -6.08237e-16)
(39.6825 0.9854 4.04101e-18)
(38.6857 -0.0122459 -4.05366e-18)
(37.5677 -0.904589 -7.89696e-16)
(36.3247 -1.69149 -1.63829e-17)
(34.9584 -2.36883 9.20068e-16)
(33.4764 -2.93247 -1.05311e-15)
(31.8867 -3.38031 -3.60679e-16)
(30.1956 -3.7115 5.15049e-17)
(28.3785 -3.92434 -2.00393e-15)
(26.4232 -4.0124 0)
(24.0927 -3.9432 -9.43123e-15)
(21.5892 -3.63084 -1.21349e-14)
(16.6746 -2.95871 2.99823e-14)
(9.65136 21.9207 -4.24691e-17)
(8.51547 20.4222 1.34847e-16)
(7.48092 18.639 5.13036e-16)
(6.57293 16.6023 0)
(5.92916 14.3826 -5.11896e-16)
(5.59183 12.0189 0)
(5.59877 9.60248 -3.07501e-15)
(5.95396 7.28995 -1.03398e-16)
(6.61637 5.17467 2.07145e-15)
(7.54342 3.28097 1.87059e-15)
(8.67186 1.66858 4.44809e-17)
(9.91452 0.365637 3.18699e-15)
(11.201 -0.648506 -2.17611e-15)
(12.478 -1.4132 6.87227e-16)
(13.7129 -1.96907 2.48068e-15)
(14.89 -2.35612 2.85276e-15)
(16.0023 -2.60947 -2.65468e-15)
(17.0503 -2.75818 2.34995e-18)
(18.0412 -2.82424 0)
(18.9852 -2.8194 3.29981e-15)
(19.8909 -2.74898 1.84319e-16)
(20.7642 -2.60954 -2.95647e-15)
(21.6048 -2.3919 0)
(22.3968 -2.08081 2.01945e-17)
(23.1051 -1.6836 0)
(23.7071 -1.23762 -2.02136e-15)
(24.208 -0.765428 0)
(24.6172 -0.279047 4.59179e-16)
(24.9386 0.211217 -2.03352e-17)
(25.1746 0.694652 1.33198e-17)
(25.3295 1.16237 -1.58038e-15)
(25.4085 1.60692 -5.04845e-17)
(25.4153 2.02321 0)
(25.3526 2.40833 6.09307e-15)
(25.2117 2.76243 9.52909e-17)
(24.9935 3.08584 -1.21242e-14)
(24.5958 3.38053 4.89556e-14)
(24.1131 3.58113 9.28216e-17)
(22.5284 3.6402 0)
(12.3977 21.6494 -3.76022e-17)
(13.6226 22.7954 -2.91211e-17)
(15.0791 23.9165 9.41888e-17)
(16.7261 24.9495 -2.33973e-16)
(18.5141 25.8101 3.89302e-17)
(20.4653 26.4904 -1.07215e-17)
(22.5277 26.9525 1.37816e-16)
(24.649 27.162 0)
(26.7973 27.1096 6.88917e-16)
(28.9237 26.7912 3.97254e-16)
(30.9863 26.2102 0)
(32.9506 25.3797 8.63411e-16)
(34.784 24.3193 -4.58642e-16)
(36.4607 23.0496 1.22714e-15)
(37.9596 21.5924 0)
(39.2624 19.9701 -2.19375e-15)
(40.3634 18.1971 2.00059e-15)
(41.2456 16.307 -1.74784e-16)
(41.8937 14.3364 0)
(42.2935 12.3314 2.1334e-15)
(42.438 10.3382 -2.16266e-15)
(42.3295 8.4145 -1.05562e-16)
(41.9891 6.6123 -1.56717e-15)
(41.4551 4.98182 -1.41241e-15)
(40.7884 3.55706 0)
(40.0553 2.30878 0)
(39.2793 1.1834 -1.27412e-16)
(38.4458 0.166723 -1.26384e-17)
(37.5416 -0.743313 7.27652e-16)
(36.5559 -1.55127 -1.52898e-17)
(35.4717 -2.25701 1.5247e-17)
(34.2701 -2.85722 9.83157e-16)
(32.9328 -3.34765 0)
(31.4473 -3.72322 -1.38038e-15)
(29.7824 -3.97738 1.00182e-17)
(27.9275 -4.09674 0)
(25.6683 -4.04993 -2.7733e-17)
(23.1776 -3.71222 0)
(18.4754 -3.0584 -2.60064e-14)
(11.3434 20.444 5.73563e-17)
(10.3772 19.1343 -2.95719e-16)
(9.47638 17.5758 3.1787e-16)
(8.65596 15.8004 4.3667e-16)
(8.03877 13.8734 -1.77276e-15)
(7.65644 11.8121 -2.17703e-15)
(7.54653 9.68754 2.63433e-15)
(7.72428 7.62995 -3.20329e-15)
(8.16749 5.71344 -1.60679e-15)
(8.85079 3.96613 -1.4614e-15)
(9.7253 2.44179 2.80228e-15)
(10.7274 1.1673 -2.70852e-15)
(11.8036 0.13319 -1.244e-15)
(12.9079 -0.684281 1.20493e-15)
(14.0068 -1.31056 -2.77003e-15)
(15.0802 -1.77571 5.16509e-16)
(16.116 -2.10652 0)
(17.1087 -2.32664 -2.21676e-15)
(18.0595 -2.45495 8.23974e-16)
(18.9732 -2.50356 -3.42347e-15)
(19.855 -2.47819 0)
(20.7078 -2.37771 2.56262e-15)
(21.5296 -2.19588 2.22365e-15)
(22.306 -1.92296 -2.03228e-15)
(23.0071 -1.56496 0)
(23.6105 -1.15296 -1.90954e-15)
(24.1172 -0.710302 0)
(24.5344 -0.249204 0)
(24.8655 0.220397 0)
(25.1125 0.688023 7.88743e-16)
(25.2793 1.14434 0)
(25.3709 1.58189 0)
(25.3911 1.99577 -5.88941e-15)
(25.3428 2.38161 -5.7663e-15)
(25.2189 2.7378 0)
(25.0216 3.06216 -1.14971e-14)
(24.6569 3.35591 6.33276e-17)
(24.2155 3.53988 0)
(22.8144 3.58689 -2.30106e-14)
(13.9039 20.2116 5.46405e-17)
(15.0155 21.2274 -4.03466e-17)
(16.3324 22.2277 0)
(17.8165 23.1534 6.22269e-18)
(19.4201 23.9304 1.49415e-16)
(21.1754 24.5565 1.01483e-17)
(23.0366 24.9949 4.87973e-17)
(24.9614 25.2149 -2.5693e-16)
(26.9272 25.2042 -1.06732e-16)
(28.8932 24.9544 6.46669e-16)
(30.8223 24.4636 -2.45699e-16)
(32.6839 23.7375 5.88777e-16)
(34.4443 22.7889 2.9351e-16)
(36.075 21.6341 1.52869e-16)
(37.5512 20.2931 0)
(38.8501 18.7897 -4.56289e-16)
(39.9455 17.159 -1.02746e-15)
(40.8168 15.4355 -3.67197e-15)
(41.451 13.6498 1.05635e-15)
(41.8415 11.8327 -1.37935e-15)
(41.9857 10.0196 -2.11443e-16)
(41.8896 8.25281 0)
(41.5709 6.57634 1.40889e-15)
(41.0633 5.03343 8.73888e-17)
(40.4192 3.65685 -3.57207e-17)
(39.6977 2.43265 -4.78387e-16)
(38.9279 1.32168 1.04964e-16)
(38.1092 0.312454 1.99536e-16)
(37.2414 -0.59469 -6.82409e-16)
(36.3269 -1.40332 -2.81849e-17)
(35.3612 -2.11528 7.75951e-16)
(34.3307 -2.72956 8.33003e-16)
(33.2114 -3.24349 0)
(31.9734 -3.65166 -6.88595e-17)
(30.5616 -3.94472 1.96645e-15)
(28.9415 -4.10233 0)
(26.8934 -4.09027 1.67562e-14)
(24.5647 -3.75033 0)
(20.1295 -3.12269 2.34947e-14)
(12.9378 19.1478 -5.56398e-17)
(12.0492 17.9997 1.3269e-16)
(11.2068 16.6311 0)
(10.4267 15.0685 0)
(9.8177 13.3734 7.89895e-16)
(9.40157 11.5536 3.77234e-15)
(9.21284 9.66683 0)
(9.26695 7.82293 -2.57323e-15)
(9.55293 6.08465 -2.52905e-15)
(10.0541 4.48021 2.49679e-15)
(10.7306 3.05304 -6.09633e-17)
(11.536 1.82869 1.13703e-15)
(12.4307 0.8039 2.577e-17)
(13.3775 -0.0347716 3.15146e-15)
(14.3457 -0.701753 2.95658e-15)
(15.3147 -1.21804 -2.83426e-15)
(16.27 -1.60347 4.30511e-16)
(17.2019 -1.87685 -8.19842e-16)
(18.1071 -2.05404 3.89424e-16)
(18.9858 -2.14637 2.47738e-15)
(19.8395 -2.15993 3.34141e-16)
(20.6686 -2.0953 -2.92849e-16)
(21.4692 -1.9483 -1.9221e-15)
(22.2282 -1.71268 0)
(22.9191 -1.39358 1.16873e-16)
(23.5206 -1.01626 3.47591e-15)
(24.0301 -0.603141 -2.59711e-17)
(24.4527 -0.166834 2.57133e-17)
(24.7907 0.282227 0)
(25.0459 0.732943 -7.39743e-16)
(25.2214 1.17535 0)
(25.3221 1.60145 0)
(25.3511 2.00532 5.44413e-15)
(25.3116 2.38208 5.53452e-15)
(25.1965 2.72985 0)
(25.0082 3.04495 1.07049e-14)
(24.6586 3.32823 -4.32838e-14)
(24.234 3.48923 1.62152e-16)
(22.9776 3.51304 2.10824e-14)
(15.1058 18.9924 6.75398e-18)
(16.1055 19.9052 -3.93503e-17)
(17.2902 20.8121 9.60005e-17)
(18.6201 21.658 -9.38262e-17)
(20.0488 22.3769 -8.83097e-17)
(21.6145 22.9724 0)
(23.2758 23.4119 -9.30335e-19)
(24.9967 23.6671 1.96002e-17)
(26.7636 23.7265 -1.88221e-16)
(28.5418 23.5799 -3.80242e-16)
(30.3013 23.2212 0)
(32.0173 22.6506 -1.03513e-15)
(33.6587 21.8742 -9.56407e-16)
(35.1984 20.9013 -2.35122e-15)
(36.6119 19.7455 0)
(37.8735 18.4252 -1.46928e-15)
(38.9623 16.9596 -1.54601e-15)
(39.8613 15.3682 1.70574e-15)
(40.5529 13.6803 -1.67368e-15)
(41.0226 11.9327 1.49963e-15)
(41.2609 10.1666 1.82532e-16)
(41.2659 8.43056 -1.54435e-15)
(41.0487 6.77264 0)
(40.6355 5.23716 -1.24544e-15)
(40.07 3.85577 7.24351e-17)
(39.4037 2.62085 5.02277e-16)
(38.6676 1.50062 0)
(37.8677 0.483192 -1.79178e-17)
(37.0091 -0.43132 2.76886e-17)
(36.1013 -1.24608 9.16262e-16)
(35.1507 -1.96345 -6.92964e-16)
(34.1583 -2.5838 -8.0479e-16)
(33.1168 -3.1067 1.80885e-16)
(32.0104 -3.52958 -5.99415e-17)
(30.7906 -3.84538 -1.89982e-15)
(29.4179 -4.03289 -6.13753e-15)
(27.6606 -4.05668 -8.2198e-15)
(25.6399 -3.73127 1.49841e-16)
(21.5978 -3.14898 -7.68469e-17)
(14.2316 18.0392 2.53636e-17)
(13.4246 17.017 2.59913e-16)
(12.6471 15.7971 3.07199e-16)
(11.9139 14.4035 -6.05747e-16)
(11.3238 12.8947 -2.21656e-15)
(10.8926 11.2712 7.7003e-16)
(10.653 9.58061 1.96914e-15)
(10.6215 7.91701 5.44217e-15)
(10.7934 6.33651 2.16359e-15)
(11.1567 4.86511 -2.05898e-15)
(11.679 3.53725 -4.84952e-17)
(12.3255 2.37605 -1.01754e-15)
(13.0667 1.38046 0)
(13.8733 0.542932 -3.06715e-17)
(14.7193 -0.144017 -1.80384e-15)
(15.5859 -0.6946 8.37686e-16)
(16.4579 -1.1226 -8.19671e-16)
(17.324 -1.44157 0)
(18.1775 -1.66365 1.41046e-15)
(19.0155 -1.79836 -2.6293e-15)
(19.8364 -1.85099 0)
(20.6378 -1.82282 2.25845e-15)
(21.4149 -1.71129 0)
(22.1546 -1.51271 -1.18208e-16)
(22.8336 -1.23173 1.16753e-16)
(23.4312 -0.889135 -1.64701e-15)
(23.942 -0.505836 -2.69444e-17)
(24.3688 -0.0949884 -2.44956e-17)
(24.7132 0.332543 1.13077e-17)
(24.9761 0.765415 -7.21904e-16)
(25.1602 1.1933 -1.38203e-15)
(25.2695 1.60775 2.62652e-15)
(25.307 2.00247 8.2965e-17)
(25.2754 2.37196 2.54832e-17)
(25.1679 2.71344 0)
(24.9862 3.02119 1.59927e-16)
(24.6479 3.29493 1.98472e-14)
(24.233 3.43481 -9.37346e-18)
(23.0862 3.43241 1.96359e-14)
(16.1667 17.9195 1.06935e-17)
(17.0831 18.7434 7.10952e-17)
(18.1677 19.566 0)
(19.3812 20.3353 -2.84192e-17)
(20.6776 20.9922 -1.39423e-16)
(22.0982 21.544 0)
(23.6055 21.9606 4.48532e-17)
(25.1681 22.2168 2.01424e-16)
(26.7782 22.3022 -4.22913e-16)
(28.4071 22.2054 1.21811e-16)
(30.0296 21.9186 2.81618e-16)
(31.6258 21.4387 1.19427e-15)
(33.1682 20.7669 8.908e-16)
(34.6316 19.9076 1.18819e-15)
(35.9912 18.8699 3.16796e-16)
(37.2217 17.6673 1.09334e-15)
(38.2999 16.3175 1.49746e-15)
(39.2018 14.8473 1.36795e-15)
(39.9072 13.2863 -1.00473e-15)
(40.4018 11.6655 -3.12557e-15)
(40.677 10.0196 0)
(40.7316 8.38893 8.72655e-17)
(40.5752 6.81592 1.14224e-15)
(40.2301 5.34077 1.18335e-15)
(39.7321 3.99368 -6.53447e-17)
(39.1238 2.77479 -4.35623e-16)
(38.4336 1.66229 2.84648e-18)
(37.6697 0.647084 -1.93755e-16)
(36.8369 -0.26922 1.93109e-17)
(35.9443 -1.08771 -1.70288e-15)
(35 -1.80967 -8.12485e-18)
(34.0095 -2.43475 -1.51848e-17)
(32.9748 -2.9622 -1.79302e-16)
(31.8952 -3.39012 -5.99953e-17)
(30.7441 -3.71368 1.90742e-15)
(29.5095 -3.91389 1.19202e-14)
(27.9876 -3.96071 -7.95867e-15)
(26.3239 -3.65277 -9.25864e-15)
(22.8067 -3.12953 2.04729e-14)
(15.3604 17.0611 -1.06046e-16)
(14.6147 16.1444 -3.62893e-16)
(13.8874 15.0489 -2.53429e-16)
(13.1927 13.7954 -5.92758e-16)
(12.6213 12.4403 1.2994e-15)
(12.1838 10.9798 -4.31126e-17)
(11.9104 9.4531 -5.14455e-15)
(11.8187 7.9431 -1.87159e-15)
(11.907 6.5019 6.61987e-18)
(12.1652 5.15146 0)
(12.5672 3.91973 -1.78451e-15)
(13.0855 2.8271 1.72826e-15)
(13.6981 1.87277 -1.69995e-15)
(14.3823 1.0521 -8.63282e-16)
(15.1168 0.361837 7.87643e-16)
(15.8857 -0.207439 7.78927e-16)
(16.675 -0.664395 2.94787e-15)
(17.4729 -1.01797 -7.11522e-16)
(18.2711 -1.27681 -1.31423e-15)
(19.0645 -1.44824 0)
(19.8487 -1.53644 -2.28519e-15)
(20.6195 -1.54277 -1.86039e-15)
(21.3707 -1.46555 -1.25207e-17)
(22.0895 -1.30289 -2.36098e-16)
(22.7545 -1.0591 -1.05407e-16)
(23.3457 -0.751036 1.7374e-15)
(23.8558 -0.398001 -4.72151e-17)
(24.2853 -0.0133884 4.15112e-16)
(24.6348 0.391693 9.90342e-17)
(24.9046 0.805794 6.64753e-16)
(25.0966 1.21826 -9.68976e-18)
(25.2141 1.62018 -5.2575e-15)
(25.2598 2.00467 -4.93445e-15)
(25.2361 2.36557 -4.92714e-15)
(25.1361 2.69928 -1.51843e-16)
(24.9612 2.99832 7.422e-17)
(24.6339 3.26104 -1.90922e-14)
(24.2299 3.38075 -1.85861e-14)
(23.176 3.35282 -1.80423e-14)
(17.0819 16.9715 -3.84085e-17)
(17.9261 17.7197 -3.09053e-17)
(18.9244 18.4699 -1.90168e-16)
(20.0374 19.1735 6.73221e-16)
(21.22 19.776 -2.7229e-16)
(22.5146 20.2884 1.73004e-16)
(23.8868 20.6834 -1.46177e-16)
(25.3083 20.9383 0)
(26.776 21.0446 1.17103e-16)
(28.2648 20.9914 6.89618e-18)
(29.7545 20.7701 -2.06069e-16)
(31.2296 20.3758 -1.0631e-15)
(32.6663 19.8068 -4.97943e-16)
(34.0419 19.064 0)
(35.3335 18.1524 0)
(36.5166 17.0815 0)
(37.567 15.8658 0)
(38.4631 14.5228 -1.33265e-15)
(39.1844 13.0754 1.3195e-15)
(39.7136 11.5525 1.28805e-15)
(40.0391 9.98928 -9.96397e-16)
(40.1557 8.42642 8.90795e-16)
(40.0691 6.90648 -8.94502e-16)
(39.7971 5.46938 -6.35964e-17)
(39.3696 4.14445 -2.66419e-17)
(38.8231 2.93574 4.4126e-16)
(38.1846 1.82806 8.67793e-17)
(37.4651 0.814137 0)
(36.67 -0.104066 0)
(35.8077 -0.926298 3.86767e-17)
(34.885 -1.65306 0)
(33.9072 -2.28326 5.84342e-16)
(32.8767 -2.81542 -8.896e-17)
(31.7969 -3.24692 7.61556e-16)
(30.6518 -3.57292 -3.62853e-15)
(29.4523 -3.77442 -5.75078e-15)
(28.0388 -3.82795 7.65524e-15)
(26.641 -3.52529 1.81083e-14)
(23.699 -3.05842 -1.97413e-14)
(16.3352 16.1929 0)
(15.6431 15.3646 1.08262e-16)
(14.9608 14.3731 4.73861e-16)
(14.3018 13.2372 -2.06192e-15)
(13.7504 12.0108 1.7368e-15)
(13.3132 10.6878 -1.36001e-15)
(13.018 9.29976 -1.20684e-18)
(12.8836 7.92177 1.4862e-15)
(12.9102 6.60356 1.53929e-15)
(13.0879 5.36237 0)
(13.3955 4.22127 7.66214e-16)
(13.8106 3.19838 -2.33556e-15)
(14.3162 2.29216 3.81945e-15)
(14.8947 1.49914 7.32598e-16)
(15.5293 0.818023 -1.47993e-15)
(16.2072 0.24278 -1.4265e-15)
(16.9164 -0.231647 -1.36444e-15)
(17.6456 -0.610507 0)
(18.3863 -0.899168 0)
(19.1318 -1.10247 0)
(19.8761 -1.22324 2.144e-15)
(20.6135 -1.26231 0)
(21.3365 -1.21844 -1.63644e-15)
(22.0325 -1.09075 -2.23728e-16)
(22.6816 -0.883085 -1.64781e-15)
(23.2644 -0.609247 -1.54689e-15)
(23.7719 -0.286692 0)
(24.2027 0.0712183 -3.5008e-16)
(24.5562 0.453263 -1.04771e-16)
(24.832 0.847915 2.07005e-17)
(25.0313 1.24427 2.53786e-15)
(25.1568 1.63299 -1.66546e-17)
(25.2106 2.0067 4.81043e-15)
(25.1947 2.35861 -4.69069e-15)
(25.1023 2.68427 0)
(24.9346 2.97442 -1.4491e-16)
(24.6189 3.22587 9.11208e-17)
(24.2277 3.32716 1.76712e-14)
(23.2597 3.27556 -1.26913e-16)
(17.8876 16.1225 3.99554e-17)
(18.6715 16.8047 0)
(19.5974 17.4906 3.86761e-16)
(20.6262 18.1347 -3.45172e-16)
(21.7138 18.6868 1.21201e-16)
(22.9031 19.1599 -1.62822e-16)
(24.1616 19.5289 8.69696e-17)
(25.4636 19.7741 4.63395e-17)
(26.8089 19.8885 0)
(28.1761 19.8615 -1.45227e-16)
(29.5486 19.6849 -1.70652e-16)
(30.9146 19.3528 1.67574e-16)
(32.2535 18.8616 8.473e-16)
(33.546 18.2094 3.95938e-16)
(34.7713 17.398 -1.19419e-15)
(35.9057 16.4335 -8.95055e-16)
(36.9261 15.3264 7.16762e-16)
(37.8102 14.0919 5.5095e-16)
(38.5359 12.7526 -2.7213e-16)
(39.0844 11.335 2.72012e-16)
(39.4429 9.87011 7.0749e-16)
(39.6052 8.39422 1.27659e-16)
(39.5741 6.94603 -1.14867e-16)
(39.364 5.56288 -7.39128e-16)
(38.9992 4.27296 0)
(38.51 3.08381 -3.55438e-16)
(37.9214 1.98705 -1.60985e-16)
(37.246 0.978534 -1.3438e-16)
(36.4907 0.0612972 -4.41898e-16)
(35.6634 -0.762892 1.42074e-15)
(34.7708 -1.49345 4.4033e-16)
(33.8173 -2.12855 -3.77384e-17)
(32.804 -2.66576 3.88138e-17)
(31.7333 -3.10135 0)
(30.5899 -3.42966 1.75415e-15)
(29.3909 -3.62977 0)
(28.0013 -3.68239 0)
(26.7177 -3.37115 -8.78993e-15)
(24.2806 -2.94109 1.32074e-16)
(17.1912 15.4129 -1.30077e-16)
(16.5447 14.6603 3.95235e-16)
(15.9012 13.7579 7.7063e-18)
(15.2745 12.7225 4.66849e-16)
(14.7427 11.6058 -1.61281e-15)
(14.3099 10.4 1.22513e-15)
(14.0014 9.13087 4.8643e-17)
(13.8367 7.86778 -1.26995e-15)
(13.8173 6.65812 -1.26414e-15)
(13.933 5.51501 -1.31432e-15)
(14.1661 4.45812 -2.66744e-15)
(14.4981 3.5035 0)
(14.915 2.64847 -1.38497e-15)
(15.4032 1.8897 -2.74878e-17)
(15.9494 1.22692 0)
(16.544 0.655819 -1.28603e-15)
(17.1771 0.173957 -6.25804e-16)
(17.8388 -0.221284 -6.06695e-16)
(18.5212 -0.53259 2.25983e-15)
(19.2168 -0.762409 2.13596e-15)
(19.9189 -0.911871 -2.46283e-16)
(20.6204 -0.981144 1.89256e-15)
(21.3132 -0.968946 4.36713e-16)
(21.9847 -0.874741 -2.12032e-16)
(22.616 -0.701934 1.46361e-15)
(23.1883 -0.461805 9.50415e-17)
(23.6912 -0.169797 0)
(24.1217 0.161036 0)
(24.4779 0.519433 -1.99727e-17)
(24.7589 0.893911 5.86893e-17)
(24.9649 1.27338 -2.48382e-15)
(25.0979 1.64815 -1.61608e-17)
(25.1596 2.01034 4.83365e-15)
(25.1515 2.35256 4.50522e-15)
(25.0669 2.66949 1.40915e-16)
(24.9067 2.95022 2.81121e-18)
(24.6035 3.18997 3.44858e-14)
(24.2262 3.27419 -1.67928e-14)
(23.3406 3.20136 1.1923e-16)
(18.5992 15.3562 1.77556e-17)
(19.3305 15.9807 0)
(20.1935 16.6097 -1.89528e-16)
(21.1496 17.2007 0)
(22.1551 17.7073 2.2299e-16)
(23.2531 18.1435 -2.16692e-16)
(24.4126 18.487 -1.32792e-16)
(25.6101 18.7201 -4.38046e-17)
(26.8472 18.837 0)
(28.1051 18.8285 -3.02299e-18)
(29.3706 18.687 2.03953e-16)
(30.6348 18.4061 -4.23891e-16)
(31.8802 17.9813 -2.71934e-16)
(33.0901 17.4091 -2.72388e-16)
(34.2463 16.689 7.60903e-16)
(35.3271 15.8241 8.57268e-16)
(36.3104 14.8219 -9.43906e-16)
(37.1744 13.6947 -9.08695e-16)
(37.8977 12.4595 0)
(38.4606 11.1397 2.40858e-16)
(38.8486 9.76359 -4.65593e-16)
(39.0535 8.36542 1.16295e-16)
(39.075 6.98211 5.10959e-18)
(38.9236 5.64943 1.73047e-15)
(38.6188 4.39443 -9.09005e-17)
(38.1854 3.22665 6.31847e-17)
(37.6462 2.14284 1.45304e-16)
(37.0147 1.14169 1.42145e-16)
(36.2989 0.227175 3.83271e-16)
(35.507 -0.597512 -6.41664e-16)
(34.6462 -1.33074 -4.0937e-16)
(33.7209 -1.96997 -9.26103e-16)
(32.7321 -2.51199 4.90246e-17)
(31.681 -2.95198 5.69114e-18)
(30.5511 -3.28336 -1.77436e-15)
(29.3576 -3.48258 1.29841e-16)
(27.9754 -3.53383 -9.30479e-17)
(26.7001 -3.20934 1.41253e-16)
(24.6246 -2.78994 -1.7939e-14)
(17.9468 14.707 7.52972e-17)
(17.3403 14.0196 -1.93417e-16)
(16.7318 13.1942 3.75131e-16)
(16.1344 12.2458 0)
(15.6221 11.2241 9.72483e-16)
(15.1961 10.1194 0)
(14.8805 8.95347 0)
(14.6946 7.79126 0)
(14.6404 6.67768 2.31432e-15)
(14.7083 5.62257 -1.16496e-15)
(14.8826 4.64319 1.25653e-15)
(15.1473 3.75391 0)
(15.4908 2.95083 0)
(15.9022 2.23016 -1.24181e-15)
(16.3711 1.59197 0)
(16.8905 1.03287 1.19549e-15)
(17.4526 0.551617 1.51253e-17)
(18.0494 0.147682 0)
(18.6738 -0.17947 -1.59816e-15)
(19.3185 -0.430376 -2.51404e-15)
(19.9765 -0.604652 -1.88286e-15)
(20.6402 -0.701419 -1.77305e-15)
(21.301 -0.718927 3.32565e-15)
(21.9464 -0.656616 0)
(22.5581 -0.517307 1.40054e-15)
(23.1178 -0.31004 1.51039e-15)
(23.6143 -0.0483809 6.77742e-16)
(24.0429 0.255178 0)
(24.4007 0.589481 -7.822e-17)
(24.6859 0.94315 -6.0636e-16)
(24.8979 1.30505 2.35752e-15)
(25.038 1.66517 -1.56401e-17)
(25.1074 2.01517 -4.43561e-15)
(25.1071 2.34712 4.17389e-15)
(25.0304 2.65477 -1.28298e-18)
(24.8781 2.92572 1.31093e-16)
(24.588 3.15341 -3.3043e-14)
(24.2258 3.22217 1.57529e-14)
(23.4191 3.13078 2.9622e-14)
(19.2325 14.6594 1.37322e-17)
(19.9177 15.2328 -5.94205e-17)
(20.7257 15.8111 0)
(21.6183 16.354 -3.13965e-16)
(22.5527 16.8189 0)
(23.5715 17.2204 0)
(24.6449 17.5385 1.70182e-17)
(25.751 17.7571 -7.18737e-17)
(26.8929 17.8717 -7.26996e-17)
(28.0539 17.8744 1.27246e-16)
(29.2232 17.7583 1.37957e-16)
(30.3943 17.5172 2.41344e-16)
(31.5525 17.146 0)
(32.684 16.6402 7.01552e-16)
(33.7727 15.9975 -2.64357e-16)
(34.7989 15.2189 0)
(35.7423 14.3091 7.01386e-16)
(36.5819 13.2775 8.72198e-16)
(37.2967 12.1384 0)
(37.8666 10.9127 8.04454e-16)
(38.2758 9.62575 -7.88585e-16)
(38.5147 8.30817 0)
(38.5811 6.99388 -9.17934e-17)
(38.4819 5.71638 -4.54509e-18)
(38.2324 4.50146 4.24421e-17)
(37.8523 3.36006 5.92063e-16)
(37.3615 2.29308 -4.06209e-18)
(36.7736 1.30226 -1.27696e-17)
(36.0973 0.392869 -7.55082e-18)
(35.3409 -0.430588 2.03576e-17)
(34.5119 -1.16516 3.64922e-16)
(33.6154 -1.8075 7.57868e-16)
(32.6527 -2.35363 -3.20968e-17)
(31.6251 -2.79775 8.65161e-16)
(30.5166 -3.13249 1.58275e-15)
(29.3395 -3.33174 5.09722e-15)
(27.9778 -3.38261 6.70963e-15)
(26.6804 -3.04958 -2.39418e-16)
(24.8292 -2.62091 1.69393e-14)
(18.6188 14.0633 -1.53031e-16)
(18.0477 13.4332 -5.18378e-16)
(17.4704 12.6752 9.9616e-16)
(16.9004 11.8029 0)
(16.4068 10.8641 1.71584e-15)
(15.9894 9.84771 0)
(15.671 8.7722 -9.62829e-16)
(15.4706 7.6993 3.85854e-15)
(15.3903 6.67102 -2.9668e-15)
(15.4209 5.69517 0)
(15.5484 4.78684 2.15956e-15)
(15.7586 3.95899 2.16413e-15)
(16.0414 3.20687 0)
(16.3878 2.52624 -2.2057e-15)
(16.7896 1.91682 5.48623e-16)
(17.2418 1.37532 -5.48538e-16)
(17.7386 0.90125 5.43432e-16)
(18.2739 0.495271 1.02271e-15)
(18.8416 0.158344 -1.48916e-17)
(19.4355 -0.108441 1.38621e-15)
(20.0484 -0.303295 4.41755e-16)
(20.6728 -0.424304 -4.25884e-16)
(21.3001 -0.469179 -1.57098e-15)
(21.9178 -0.43689 1.48795e-15)
(22.5083 -0.329448 -1.23917e-15)
(23.0535 -0.154068 -1.5197e-15)
(23.5418 0.0775868 -6.44091e-16)
(23.9669 0.353785 -9.5359e-18)
(24.325 0.663608 8.4148e-17)
(24.6133 0.995919 5.794e-16)
(24.8306 1.33958 8.22011e-18)
(24.9774 1.68439 -1.50828e-17)
(25.0541 2.02151 4.45294e-15)
(25.0615 2.34254 -4.28949e-15)
(24.993 2.64033 1.31338e-16)
(24.8489 2.90108 -8.28943e-15)
(24.5728 3.11652 1.59099e-14)
(24.2266 3.17128 0)
(23.4953 3.06362 -2.83912e-14)
(19.7987 14.0219 3.10113e-17)
(20.4432 14.5497 0)
(21.2023 15.0824 0)
(22.0388 15.5819 5.70131e-16)
(22.9106 16.0089 -1.91763e-17)
(23.8595 16.3782 0)
(24.857 16.6715 0)
(25.8822 16.8748 3.74573e-16)
(26.9397 16.9846 -4.2938e-17)
(28.014 16.9939 -5.02638e-17)
(29.0962 16.8967 -2.77702e-16)
(30.1821 16.6871 -1.56275e-16)
(31.259 16.3603 2.55832e-16)
(32.3157 15.911 -7.57206e-17)
(33.3382 15.3359 0)
(34.3093 14.6343 0)
(35.2102 13.8087 -1.84092e-15)
(36.021 12.8661 -3.58209e-16)
(36.722 11.8177 3.57358e-16)
(37.2932 10.6811 -7.80235e-16)
(37.7179 9.47862 1.45351e-15)
(37.9853 8.23837 6.69976e-16)
(38.0909 6.99156 -6.397e-16)
(38.0389 5.76962 -7.29237e-16)
(37.8405 4.59694 1.10345e-16)
(37.5113 3.48503 -5.64315e-16)
(37.0679 2.43786 -6.0493e-17)
(36.5235 1.45993 1.14216e-17)
(35.887 0.557826 -1.14205e-17)
(35.1665 -0.262593 2.61576e-17)
(34.3698 -0.997123 -4.08526e-17)
(33.5023 -1.64151 -3.55413e-16)
(32.566 -2.1909 -3.06918e-17)
(31.5627 -2.63858 4.97072e-17)
(30.4781 -2.97641 0)
(29.3228 -3.17629 -4.76836e-15)
(27.9942 -3.22684 -6.24096e-15)
(26.6881 -2.89281 0)
(24.974 -2.44578 0)
(19.2197 13.4731 0)
(18.68 12.8935 4.80273e-16)
(18.1315 12.1951 -1.53185e-15)
(17.5867 11.39 -6.97259e-16)
(17.1114 10.5243 -1.59306e-15)
(16.7036 9.58569 0)
(16.3855 8.59023 0)
(16.1755 7.5969 -1.73212e-15)
(16.0757 6.64488 1.79549e-15)
(16.0772 5.74038 0)
(16.1674 4.89693 -9.53661e-16)
(16.3333 4.12645 -1.01191e-15)
(16.5659 3.42358 9.99374e-16)
(16.8574 2.78329 1.03205e-15)
(17.2013 2.20486 -2.00304e-15)
(17.5939 1.68496 0)
(18.0313 1.22316 -4.82927e-16)
(18.509 0.820743 1.15109e-17)
(19.0225 0.479528 2.27636e-15)
(19.5662 0.20178 -4.4277e-16)
(20.1339 -0.00948686 4.30822e-16)
(20.7182 -0.151423 -3.85348e-16)
(21.3107 -0.22105 5.60758e-16)
(21.8994 -0.216714 -2.99643e-15)
(22.4671 -0.139427 -1.18261e-15)
(22.996 0.00530437 1.20496e-15)
(23.4741 0.207541 -7.89753e-17)
(23.8941 0.456497 0)
(24.2512 0.741649 -7.21934e-17)
(24.5416 1.05216 5.27147e-16)
(24.7635 1.377 -1.05692e-15)
(24.9164 1.70582 2.15212e-15)
(25.0002 2.02942 -8.58018e-15)
(25.0152 2.33891 8.48817e-15)
(24.955 2.62626 -1.25973e-16)
(24.8196 2.87645 7.84672e-15)
(24.5581 3.07942 2.43956e-16)