/*--------------------------------*- C++ -*----------------------------------*\
| =========                 |                                                 |
| \\      /  F ield         | OpenFOAM: The Open Source CFD Toolbox           |
|  \\    /   O peration     | Version:  3.0.0                                 |
|   \\  /    A nd           | Web:      www.OpenFOAM.org                      |
|    \\/     M anipulation  |                                                 |
\*---------------------------------------------------------------------------*/
FoamFile
{
    version     2.0;
    format      ascii;
    class       volScalarField;
    location    "0.019";
    object      p;
}
// * * * * * * * * * * * * * * * * * * * * * * * * * * * * * * * * * * * * * //

dimensions      [1 -1 -2 0 0 0 0];

internalField   nonuniform List<scalar> 
1000
(
47183.8
47174.8
47167.2
47160.3
47153.3
47146.2
47139
47131.7
47124.5
47117.2
47109.9
47102.5
47095.1
47087.7
47080.2
47072.7
47065.2
47057.6
47050
47042.4
47034.7
47027
47019.3
47011.5
47003.7
46995.8
46987.9
46980
46972
46964
46956
46947.9
46939.8
46931.7
46923.5
46915.2
46907
46898.7
46890.4
46882
46873.6
46865.1
46856.6
46848.1
46839.5
46830.9
46822.3
46813.6
46804.9
46796.1
46787.3
46778.5
46769.6
46760.7
46751.7
46742.7
46733.7
46724.6
46715.5
46706.3
46697.1
46687.9
46678.6
46669.3
46659.9
46650.5
46641
46631.6
46622
46612.4
46602.8
46593.2
46583.4
46573.7
46563.9
46554.1
46544.2
46534.3
46524.3
46514.3
46504.2
46494.1
46484
46473.8
46463.5
46453.2
46442.9
46432.5
46422.1
46411.6
46401.1
46390.5
46379.9
46369.3
46358.6
46347.8
46337
46326.1
46315.2
46304.3
46293.3
46282.2
46271.1
46260
46248.8
46237.5
46226.2
46214.8
46203.4
46192
46180.5
46168.9
46157.3
46145.6
46133.8
46122.1
46110.2
46098.3
46086.4
46074.4
46062.3
46050.2
46038
46025.7
46013.4
46001.1
45988.7
45976.2
45963.6
45951
45938.4
45925.7
45912.9
45900
45887.1
45874.1
45861.1
45848
45834.8
45821.6
45808.3
45794.9
45781.4
45767.9
45754.3
45740.7
45727
45713.2
45699.3
45685.3
45671.3
45657.2
45643.1
45628.8
45614.5
45600.1
45585.6
45571
45556.4
45541.7
45526.9
45512
45497
45481.9
45466.8
45451.5
45436.2
45420.7
45405.2
45389.6
45373.8
45358
45342.1
45326.1
45310.1
45293.9
45277.6
45261.2
45244.7
45228.1
45211.4
45194.6
45177.7
45160.6
45143.5
45126.2
45108.7
45091.2
45073.5
45055.7
45037.7
45019.7
45001.5
44983.1
44964.7
44946
44927.3
44908.4
44889.3
44870.1
44850.8
44831.2
44811.6
44791.7
44771.7
44751.5
44731.1
44710.5
44689.8
44668.9
44647.7
44626.4
44604.8
44583.1
44561.1
44538.9
44516.5
44493.9
44471
44447.9
44424.5
44400.8
44376.9
44352.8
44328.3
44303.6
44278.5
44253.2
44227.5
44201.6
44175.3
44148.6
44121.7
44094.3
44066.6
44038.6
44010.1
43981.3
43952
43922.3
43892.2
43861.7
43830.7
43799.2
43767.3
43734.8
43701.9
43668.5
43634.5
43600
43565
43529.4
43493.2
43456.5
43419.1
43381.1
43342.6
43303.3
43263.5
43222.9
43181.8
43139.9
43097.3
43054.1
43010.1
42965.5
42920.1
42874
42827.1
42779.5
42731.2
42682.1
42632.3
42581.7
42530.4
42478.3
42425.5
42371.9
42317.6
42262.5
42206.8
42150.3
42093
42035.1
41976.5
41917.2
41857.2
41796.6
41735.3
41673.5
41611
41547.9
41484.2
41420
41355.3
41290
41224.3
41158.1
41091.4
41024.3
40956.9
40889
40820.7
40752.2
40683.3
40614.1
40544.6
40474.9
40405
40334.8
40264.5
40193.9
40123.3
40052.4
39981.5
39910.4
39839.3
39768.1
39696.8
39625.5
39554.2
39482.8
39411.4
39340
39268.7
39197.3
39126
39054.8
38983.6
38912.4
38841.3
38770.3
38699.3
38628.5
38557.7
38487
38416.4
38345.9
38275.5
38205.2
38135
38065
37995
37925.2
37855.5
37785.9
37716.4
37647.1
37577.9
37508.8
37439.8
37371
37302.3
37233.8
37165.4
37097.1
37028.9
36960.9
36893
36825.3
36757.7
36690.3
36623
36555.8
36488.8
36421.9
36355.2
36288.6
36222.2
36155.9
36089.8
36023.8
35958
35892.3
35826.8
35761.4
35696.2
35631.1
35566.3
35501.5
35436.9
35372.5
35308.3
35244.2
35180.3
35116.6
35053
34989.6
34926.4
34863.3
34800.4
34737.7
34675.2
34612.9
34550.8
34488.8
34427.1
34365.5
34304.1
34243
34182
34121.2
34060.7
34000.3
33940.2
33880.3
33820.6
33761.1
33701.9
33642.9
33584.1
33525.6
33467.3
33409.3
33351.5
33294
33236.8
33179.8
33123.1
33066.7
33010.6
32954.8
32899.3
32844.1
32789.2
32734.7
32680.5
32626.6
32573.1
32519.9
32467.1
32414.7
32362.6
32311
32259.8
32209
32158.6
32108.7
32059.2
32010.2
31961.6
31913.6
31866
31819
31772.5
31726.6
31681.2
31636.4
31592.2
31548.6
31505.7
31463.3
31421.7
31380.7
31340.4
31300.8
31261.9
31223.7
31186.4
31149.7
31113.9
31078.9
31044.7
31011.3
30978.8
30947.2
30916.4
30886.5
30857.5
30829.4
30802.2
30775.9
30750.6
30726.2
30702.7
30680.2
30658.6
30637.9
30618.1
30599.3
30581.3
30564.3
30548.1
30532.9
30518.4
30504.8
30492.1
30480.1
30468.8
30458.4
30448.6
30439.5
30431.1
30423.3
30416.2
30409.6
30403.5
30398
30392.9
30388.3
30384.1
30380.4
30376.9
30373.9
30371.1
30368.6
30366.4
30364.4
30362.7
30361.1
30359.8
30358.6
30357.5
30356.6
30355.8
30355
30354.4
30353.9
30353.4
30353
30352.7
30352.4
30352.1
30351.9
30351.7
30351.6
30351.4
30351.3
30351.2
30351.1
30351
30351
30350.9
30350.9
30350.8
30350.8
30350.8
30350.8
30350.7
30350.7
30350.7
30350.7
30350.7
30350.7
30350.6
30350.6
30350.6
30350.6
30350.6
30350.6
30350.6
30350.6
30350.6
30350.6
30350.6
30350.6
30350.5
30350.5
30350.5
30350.5
30350.5
30350.5
30350.5
30350.5
30350.5
30350.5
30350.5
30350.5
30350.5
30350.4
30350.4
30350.4
30350.4
30350.4
30350.4
30350.4
30350.4
30350.4
30350.4
30350.4
30350.4
30350.4
30350.4
30350.4
30350.3
30350.3
30350.3
30350.3
30350.3
30350.3
30350.3
30350.3
30350.3
30350.3
30350.3
30350.3
30350.3
30350.3
30350.3
30350.3
30350.3
30350.3
30350.3
30350.3
30350.3
30350.3
30350.3
30350.3
30350.3
30350.3
30350.3
30350.3
30350.3
30350.3
30350.3
30350.3
30350.3
30350.3
30350.3
30350.3
30350.3
30350.3
30350.3
30350.3
30350.3
30350.3
30350.3
30350.3
30350.2
30350.2
30350.2
30350.2
30350.2
30350.2
30350.2
30350.2
30350.2
30350.2
30350.2
30350.2
30350.2
30350.2
30350.2
30350.2
30350.2
30350.2
30350.2
30350.2
30350.2
30350.2
30350.2
30350.2
30350.2
30350.2
30350.2
30350.2
30350.2
30350.2
30350.2
30350.2
30350.1
30350.1
30350.1
30350.1
30350.1
30350.1
30350.1
30350.1
30350.1
30350.1
30350.1
30350.1
30350.1
30350.1
30350.1
30350.1
30350.1
30350.1
30350.1
30350.1
30350.1
30350.1
30350.1
30350.1
30350.1
30350.1
30350.1
30350.1
30350.1
30350.1
30350.1
30350.1
30350.1
30350.1
30350.1
30350.1
30350.1
30350.1
30350.1
30350.1
30350.1
30350.1
30350
30350
30350
30350
30350
30350
30350
30350
30350
30350
30350
30350
30350
30350
30350
30350
30350
30350
30350
30350
30350
30350
30350
30350
30350
30350
30350
30350
30350
30350
30350
30350
30350
30350
30350
30350
30350
30350
30350
30350
30350
30350
30350
30350
30350
30350
30350
30350
30350
30350
30350
30350
30350
30350
30350
30350
30350
30350
30350
30350
30350
30350
30350
30350
30350
30350
30350
30350
30349.9
30349.9
30349.9
30349.9
30349.9
30349.9
30349.9
30349.9
30349.9
30349.9
30349.9
30349.9
30349.9
30349.9
30349.9
30349.9
30349.9
30349.9
30349.9
30349.9
30349.9
30349.9
30349.9
30349.9
30349.9
30349.9
30349.9
30349.9
30349.9
30349.9
30349.9
30349.9
30349.9
30349.9
30349.9
30349.9
30349.9
30349.9
30349.9
30349.9
30349.9
30349.9
30349.9
30349.9
30349.9
30349.9
30349.9
30349.9
30349.9
30349.9
30349.9
30349.9
30349.9
30349.9
30349.9
30349.9
30349.9
30349.9
30349.9
30349.9
30349.9
30349.9
30349.9
30349.9
30349.9
30349.9
30349.9
30349.9
30349.9
30349.9
30349.9
30349.9
30349.9
30349.9
30349.9
30349.9
30349.9
30349.9
30349.9
30349.9
30349.9
30349.9
30349.9
30349.9
30349.9
30349.9
30349.9
30349.9
30349.9
30349.9
30349.9
30349.9
30349.9
30349.9
30349.9
30349.9
30349.9
30349.9
30349.9
30349.9
30349.9
30349.9
30349.9
30349.9
30349.9
30349.9
30349.9
30349.9
30349.9
30349.9
30349.9
30349.9
30349.9
30349.9
30349.9
30349.9
30350
30350
30350.1
30350.2
30350.3
30350.4
30350.5
30350.7
30351
30351.2
30351.6
30352
30352.6
30353.2
30354
30354.9
30356
30357.3
30358.8
30360.5
30362.6
30364.9
30367.5
30370.5
30374
30377.8
30382
30386.7
30391.9
30397.5
30403.7
30410.3
30417.4
30424.9
30432.9
30441.2
30449.9
30458.9
30468.1
30477.6
30487.1
30496.7
30506.3
30515.8
30525.1
30534.2
30543.1
30551.6
30559.7
30567.4
30574.6
30581.4
30587.6
30593.4
30598.6
30603.4
30607.6
30611.4
30614.8
30617.8
30620.3
30622.5
30624.4
30626.1
30627.4
30628.6
30629.5
30630.3
30630.9
30631.4
30631.8
30632.2
30632.4
30632.7
30632.8
30633
30633.1
30633.2
30633.4
30633.5
30633.6
30633.7
30633.8
30634
30634.1
30634.3
30634.5
30634.7
30634.9
30635.1
30635.3
30635.5
30635.7
30635.9
30636.1
30636.1
30636.1
30636.1
30636
30635.8
30635.3
30634.6
30633.6
30632.4
30631
30629.3
30627.5
30625.6
30623.7
30622
30620.5
30619.2
30618.5
30617.7
)
;

boundaryField
{
    sides
    {
        type            zeroGradient;
    }
    empty
    {
        type            empty;
    }
}


// ************************************************************************* //
