/*--------------------------------*- C++ -*----------------------------------*\
| =========                 |                                                 |
| \\      /  F ield         | OpenFOAM: The Open Source CFD Toolbox           |
|  \\    /   O peration     | Version:  3.0.0                                 |
|   \\  /    A nd           | Web:      www.OpenFOAM.org                      |
|    \\/     M anipulation  |                                                 |
\*---------------------------------------------------------------------------*/
FoamFile
{
    version     2.0;
    format      ascii;
    class       surfaceScalarField;
    location    "0.019";
    object      phi;
}
// * * * * * * * * * * * * * * * * * * * * * * * * * * * * * * * * * * * * * //

dimensions      [1 0 -1 0 0 0 0];

internalField   nonuniform List<scalar> 
999
(
15.6183
17.3747
19.1322
20.8915
22.6517
24.4122
26.1733
27.9345
29.6955
31.4564
33.2171
34.9777
36.7382
38.4985
40.2586
42.0187
43.7785
45.5383
47.2978
49.0572
50.8164
52.5755
54.3343
56.093
57.8515
59.6098
61.3678
63.1257
64.8834
66.6408
68.3981
70.1551
71.9118
73.6684
75.4246
77.1807
78.9365
80.692
82.4473
84.2023
85.957
87.7115
89.4656
91.2195
92.9731
94.7264
96.4793
98.232
99.9844
101.736
103.488
105.239
106.99
108.741
110.491
112.241
113.991
115.74
117.489
119.238
120.986
122.734
124.481
126.228
127.974
129.72
131.466
133.211
134.956
136.7
138.444
140.188
141.931
143.673
145.415
147.157
148.898
150.639
152.379
154.118
155.857
157.596
159.334
161.071
162.808
164.545
166.28
168.016
169.75
171.484
173.218
174.951
176.683
178.415
180.146
181.876
183.606
185.335
187.063
188.791
190.518
192.245
193.97
195.695
197.42
199.143
200.866
202.588
204.31
206.03
207.75
209.469
211.187
212.905
214.622
216.337
218.052
219.766
221.48
223.192
224.904
226.614
228.324
230.033
231.741
233.448
235.154
236.859
238.563
240.266
241.968
243.669
245.368
247.067
248.765
250.462
252.158
253.852
255.545
257.238
258.929
260.619
262.307
263.995
265.681
267.366
269.05
270.732
272.413
274.093
275.772
277.449
279.125
280.799
282.472
284.143
285.813
287.482
289.149
290.814
292.478
294.14
295.801
297.46
299.117
300.773
302.427
304.079
305.73
307.377
309.025
310.669
312.313
313.953
315.592
317.229
318.864
320.496
322.127
323.755
325.381
327.006
328.627
330.247
331.864
333.479
335.091
336.701
338.307
339.914
341.513
343.115
344.711
346.304
347.896
349.483
351.068
352.65
354.228
355.803
357.375
358.944
360.509
362.071
363.629
365.184
366.734
368.281
369.823
371.362
372.897
374.427
375.953
377.474
378.991
380.503
382.01
383.512
385.009
386.501
387.987
389.468
390.943
392.412
393.876
395.333
396.783
398.227
399.665
401.095
402.519
403.935
405.343
406.744
408.137
409.522
410.898
412.265
413.624
414.974
416.314
417.645
418.965
420.276
421.576
422.866
424.144
425.411
426.667
427.911
429.142
430.361
431.568
432.761
433.941
435.108
436.261
437.399
438.523
439.633
440.727
441.806
442.87
443.918
444.95
445.966
446.965
447.948
448.914
449.863
450.795
451.71
452.607
453.487
454.349
455.194
456.021
456.831
457.623
458.398
459.155
459.894
460.616
461.322
462.01
462.681
463.336
463.974
464.596
465.202
465.793
466.368
466.928
467.474
468.005
468.523
469.026
469.517
469.995
470.46
470.913
471.355
471.786
472.206
472.615
473.014
473.404
473.785
474.157
474.52
474.876
475.223
475.564
475.897
476.224
476.544
476.859
477.167
477.471
477.769
478.062
478.35
478.634
478.913
479.189
479.46
479.728
479.993
480.254
480.512
480.767
481.019
481.268
481.514
481.758
481.999
482.237
482.474
482.708
482.94
483.169
483.397
483.622
483.846
484.067
484.287
484.504
484.72
484.934
485.146
485.356
485.565
485.771
485.976
486.179
486.381
486.581
486.779
486.975
487.17
487.363
487.555
487.744
487.932
488.119
488.304
488.487
488.669
488.849
489.027
489.204
489.379
489.553
489.725
489.895
490.064
490.231
490.397
490.561
490.723
490.884
491.044
491.201
491.358
491.512
491.665
491.817
491.967
492.115
492.262
492.407
492.551
492.693
492.834
492.973
493.11
493.246
493.38
493.513
493.645
493.774
493.903
494.029
494.154
494.278
494.4
494.521
494.64
494.757
494.873
494.988
495.1
495.212
495.322
495.43
495.537
495.642
495.746
495.848
495.948
496.048
496.145
496.241
496.336
496.429
496.52
496.61
496.699
496.786
496.871
496.955
497.037
497.118
497.197
497.275
497.351
497.426
497.499
497.571
497.641
497.709
497.776
497.842
497.906
497.968
498.029
498.089
498.147
498.203
498.258
498.311
498.363
498.413
498.462
498.51
498.555
498.6
498.643
498.684
498.724
498.763
498.8
498.836
498.87
498.903
498.934
498.965
498.993
499.021
499.047
499.072
499.096
499.118
499.14
499.16
499.179
499.196
499.213
499.229
499.244
499.257
499.27
499.282
499.293
499.303
499.313
499.321
499.329
499.337
499.343
499.349
499.355
499.359
499.364
499.368
499.371
499.375
499.377
499.38
499.382
499.384
499.386
499.387
499.388
499.389
499.39
499.391
499.391
499.392
499.392
499.392
499.393
499.393
499.393
499.393
499.393
499.393
499.393
499.393
499.392
499.392
499.392
499.392
499.392
499.391
499.391
499.391
499.391
499.39
499.39
499.39
499.39
499.389
499.389
499.389
499.388
499.388
499.388
499.388
499.387
499.387
499.387
499.386
499.386
499.386
499.385
499.385
499.385
499.385
499.384
499.384
499.384
499.383
499.383
499.383
499.382
499.382
499.382
499.381
499.381
499.381
499.38
499.38
499.38
499.379
499.379
499.379
499.378
499.378
499.378
499.377
499.377
499.377
499.376
499.376
499.376
499.375
499.375
499.375
499.374
499.374
499.374
499.373
499.373
499.373
499.372
499.372
499.372
499.371
499.371
499.37
499.37
499.37
499.369
499.369
499.369
499.368
499.368
499.367
499.367
499.367
499.366
499.366
499.365
499.365
499.365
499.364
499.364
499.363
499.363
499.363
499.362
499.362
499.361
499.361
499.361
499.36
499.36
499.359
499.359
499.359
499.358
499.358
499.357
499.357
499.356
499.356
499.356
499.355
499.355
499.354
499.354
499.353
499.353
499.352
499.352
499.352
499.351
499.351
499.35
499.35
499.349
499.349
499.348
499.348
499.347
499.347
499.346
499.346
499.346
499.345
499.345
499.344
499.344
499.343
499.343
499.342
499.342
499.341
499.341
499.34
499.34
499.339
499.339
499.338
499.338
499.337
499.336
499.336
499.335
499.335
499.334
499.334
499.333
499.333
499.332
499.332
499.331
499.331
499.33
499.329
499.329
499.328
499.328
499.327
499.327
499.326
499.325
499.325
499.324
499.324
499.323
499.322
499.322
499.321
499.321
499.32
499.319
499.319
499.318
499.318
499.317
499.316
499.316
499.315
499.314
499.314
499.313
499.312
499.312
499.311
499.31
499.31
499.309
499.308
499.308
499.307
499.306
499.306
499.305
499.304
499.304
499.303
499.302
499.301
499.301
499.3
499.299
499.298
499.298
499.297
499.296
499.296
499.295
499.294
499.293
499.292
499.292
499.291
499.29
499.289
499.289
499.288
499.287
499.286
499.285
499.284
499.284
499.283
499.282
499.281
499.28
499.279
499.279
499.278
499.277
499.276
499.275
499.274
499.273
499.272
499.272
499.271
499.27
499.269
499.268
499.267
499.266
499.265
499.264
499.263
499.262
499.261
499.26
499.259
499.258
499.257
499.256
499.255
499.254
499.253
499.252
499.251
499.25
499.249
499.248
499.247
499.246
499.245
499.244
499.242
499.241
499.24
499.239
499.238
499.237
499.236
499.234
499.233
499.232
499.231
499.23
499.228
499.227
499.226
499.225
499.224
499.222
499.221
499.22
499.218
499.217
499.216
499.214
499.213
499.212
499.21
499.209
499.208
499.206
499.205
499.204
499.202
499.201
499.199
499.198
499.196
499.195
499.193
499.192
499.19
499.189
499.187
499.186
499.184
499.182
499.181
499.179
499.178
499.176
499.174
499.173
499.171
499.169
499.167
499.166
499.164
499.162
499.16
499.159
499.157
499.155
499.153
499.151
499.149
499.147
499.145
499.143
499.141
499.139
499.137
499.135
499.133
499.131
499.129
499.127
499.125
499.123
499.121
499.118
499.116
499.114
499.112
499.109
499.107
499.105
499.102
499.1
499.097
499.095
499.092
499.09
499.087
499.085
499.082
499.079
499.077
499.074
499.071
499.068
499.065
499.062
499.059
499.056
499.052
499.049
499.045
499.041
499.037
499.033
499.028
499.024
499.018
499.013
499.007
499.001
498.995
498.988
498.98
498.972
498.963
498.954
498.945
498.935
498.924
498.913
498.901
498.889
498.876
498.863
498.85
498.836
498.822
498.808
498.794
498.78
498.766
498.752
498.739
498.725
498.712
498.699
498.687
498.675
498.664
498.653
498.643
498.632
498.623
498.614
498.605
498.596
498.588
498.58
498.572
498.565
498.557
498.55
498.543
498.535
498.528
498.521
498.513
498.506
498.498
498.491
498.483
498.475
498.467
498.459
498.45
498.441
498.433
498.424
498.414
498.405
498.395
498.385
498.375
498.364
498.354
498.343
498.331
498.32
498.308
498.296
498.283
498.27
498.257
498.244
498.231
498.217
498.203
498.188
498.174
498.159
498.144
498.129
498.114
498.099
498.083
498.066
498.049
498.03
498.01
497.989
497.967
497.942
497.917
)
;

boundaryField
{
    sides
    {
        type            calculated;
        value           nonuniform List<scalar> 2(497.89 -13.8604);
    }
    empty
    {
        type            empty;
        value           nonuniform 0();
    }
}


// ************************************************************************* //
