/*--------------------------------*- C++ -*----------------------------------*\
| =========                 |                                                 |
| \\      /  F ield         | OpenFOAM: The Open Source CFD Toolbox           |
|  \\    /   O peration     | Version:  3.0.0                                 |
|   \\  /    A nd           | Web:      www.OpenFOAM.org                      |
|    \\/     M anipulation  |                                                 |
\*---------------------------------------------------------------------------*/
FoamFile
{
    version     2.0;
    format      ascii;
    class       volScalarField;
    location    "0.019";
    object      T;
}
// * * * * * * * * * * * * * * * * * * * * * * * * * * * * * * * * * * * * * //

dimensions      [0 0 0 1 0 0 0];

internalField   nonuniform List<scalar> 
1000
(
280.781
280.85
280.932
280.969
280.977
280.977
280.97
280.956
280.943
280.93
280.917
280.905
280.892
280.879
280.866
280.853
280.84
280.827
280.814
280.801
280.788
280.774
280.761
280.748
280.734
280.72
280.707
280.693
280.679
280.666
280.652
280.638
280.624
280.61
280.596
280.581
280.567
280.553
280.538
280.524
280.509
280.495
280.48
280.465
280.451
280.436
280.421
280.406
280.391
280.376
280.361
280.345
280.33
280.315
280.299
280.284
280.268
280.252
280.237
280.221
280.205
280.189
280.173
280.157
280.141
280.124
280.108
280.092
280.075
280.059
280.042
280.025
280.008
279.992
279.975
279.958
279.941
279.923
279.906
279.889
279.872
279.854
279.837
279.819
279.801
279.783
279.766
279.748
279.73
279.711
279.693
279.675
279.657
279.638
279.62
279.601
279.582
279.564
279.545
279.526
279.507
279.488
279.468
279.449
279.43
279.41
279.391
279.371
279.351
279.331
279.311
279.291
279.271
279.251
279.231
279.21
279.19
279.169
279.148
279.127
279.106
279.085
279.064
279.043
279.022
279
278.979
278.957
278.935
278.913
278.891
278.869
278.847
278.825
278.802
278.78
278.757
278.734
278.711
278.688
278.665
278.642
278.619
278.595
278.571
278.548
278.524
278.5
278.476
278.451
278.427
278.402
278.378
278.353
278.328
278.303
278.277
278.252
278.226
278.201
278.175
278.149
278.123
278.096
278.07
278.043
278.017
277.989
277.964
277.933
277.91
277.876
277.856
277.819
277.801
277.763
277.744
277.705
277.686
277.648
277.628
277.589
277.569
277.529
277.509
277.468
277.448
277.407
277.386
277.347
277.319
277.288
277.251
277.226
277.188
277.157
277.125
277.09
277.057
277.023
276.989
276.954
276.919
276.885
276.849
276.814
276.778
276.741
276.705
276.668
276.63
276.593
276.554
276.516
276.477
276.438
276.398
276.358
276.317
276.276
276.235
276.193
276.15
276.107
276.064
276.02
275.975
275.93
275.884
275.838
275.791
275.744
275.695
275.646
275.597
275.547
275.496
275.444
275.392
275.338
275.284
275.23
275.174
275.117
275.06
275.002
274.942
274.882
274.821
274.759
274.695
274.631
274.566
274.499
274.432
274.363
274.293
274.222
274.149
274.076
274.001
273.925
273.847
273.768
273.688
273.607
273.524
273.44
273.354
273.267
273.178
273.088
272.997
272.904
272.809
272.714
272.616
272.517
272.417
272.316
272.212
272.108
272.002
271.894
271.786
271.675
271.564
271.451
271.337
271.221
271.105
270.987
270.868
270.747
270.626
270.504
270.38
270.255
270.13
270.003
269.876
269.748
269.619
269.489
269.358
269.227
269.095
268.962
268.829
268.695
268.561
268.426
268.291
268.155
268.019
267.882
267.745
267.608
267.471
267.333
267.195
267.057
266.919
266.78
266.641
266.503
266.364
266.225
266.086
265.947
265.807
265.668
265.529
265.39
265.25
265.111
264.972
264.832
264.693
264.554
264.415
264.276
264.136
263.997
263.858
263.719
263.581
263.442
263.303
263.164
263.026
262.887
262.749
262.611
262.472
262.334
262.196
262.058
261.921
261.783
261.645
261.508
261.37
261.233
261.096
260.959
260.822
260.685
260.549
260.412
260.276
260.139
260.003
259.867
259.731
259.596
259.46
259.325
259.19
259.055
258.92
258.785
258.65
258.516
258.382
258.248
258.114
257.98
257.847
257.713
257.58
257.447
257.315
257.182
257.05
256.918
256.787
256.655
256.524
256.393
256.262
256.132
256.002
255.872
255.743
255.613
255.484
255.356
255.228
255.1
254.972
254.845
254.718
254.592
254.466
254.341
254.216
254.091
253.967
253.843
253.72
253.597
253.475
253.354
253.233
253.112
252.992
252.873
252.754
252.637
252.519
252.403
252.287
252.172
252.058
251.945
251.832
251.72
251.61
251.5
251.391
251.283
251.177
251.071
250.966
250.863
250.761
250.66
250.56
250.461
250.364
250.269
250.174
250.081
249.99
249.9
249.812
249.726
249.641
249.558
249.476
249.397
249.319
249.243
249.169
249.097
249.027
248.959
248.893
248.829
248.767
248.707
248.65
248.594
248.541
248.489
248.44
248.393
248.348
248.306
248.265
248.226
248.19
248.155
248.123
248.092
248.063
248.036
248.011
247.987
247.965
247.945
247.926
247.909
247.893
247.878
247.864
247.852
247.841
247.831
247.822
247.813
247.806
247.799
247.793
247.788
247.783
247.779
247.775
247.772
247.769
247.766
247.764
247.762
247.76
247.759
247.758
247.757
247.756
247.755
247.755
247.754
247.754
247.753
247.753
247.753
247.753
247.752
247.752
247.752
247.752
247.752
247.752
247.752
247.752
247.753
247.753
247.753
247.753
247.753
247.753
247.753
247.753
247.753
247.754
247.754
247.754
247.754
247.754
247.754
247.754
247.754
247.755
247.755
247.755
247.755
247.755
247.755
247.755
247.756
247.756
247.756
247.756
247.756
247.756
247.756
247.757
247.757
247.757
247.757
247.757
247.757
247.757
247.758
247.758
247.758
247.758
247.758
247.758
247.759
247.759
247.759
247.759
247.759
247.759
247.76
247.76
247.76
247.76
247.76
247.76
247.761
247.761
247.761
247.761
247.761
247.761
247.762
247.762
247.762
247.762
247.762
247.763
247.763
247.763
247.763
247.763
247.764
247.764
247.764
247.764
247.764
247.764
247.765
247.765
247.765
247.765
247.766
247.766
247.766
247.766
247.766
247.767
247.767
247.767
247.767
247.767
247.768
247.768
247.768
247.768
247.768
247.769
247.769
247.769
247.769
247.769
247.77
247.77
247.77
247.77
247.771
247.771
247.771
247.771
247.771
247.772
247.772
247.772
247.772
247.773
247.773
247.773
247.773
247.774
247.774
247.774
247.774
247.774
247.775
247.775
247.775
247.775
247.776
247.776
247.776
247.776
247.777
247.777
247.777
247.777
247.778
247.778
247.778
247.778
247.779
247.779
247.779
247.78
247.78
247.78
247.78
247.781
247.781
247.781
247.781
247.782
247.782
247.782
247.783
247.783
247.783
247.783
247.784
247.784
247.784
247.785
247.785
247.785
247.786
247.786
247.786
247.786
247.787
247.787
247.787
247.788
247.788
247.788
247.789
247.789
247.789
247.79
247.79
247.79
247.791
247.791
247.791
247.792
247.792
247.792
247.793
247.793
247.793
247.794
247.794
247.794
247.795
247.795
247.795
247.796
247.796
247.797
247.797
247.797
247.798
247.798
247.798
247.799
247.799
247.8
247.8
247.8
247.801
247.801
247.802
247.802
247.802
247.803
247.803
247.804
247.804
247.804
247.805
247.805
247.806
247.806
247.807
247.807
247.807
247.808
247.808
247.809
247.809
247.81
247.81
247.811
247.811
247.811
247.812
247.812
247.813
247.813
247.814
247.814
247.815
247.815
247.816
247.816
247.817
247.817
247.818
247.818
247.819
247.819
247.82
247.82
247.821
247.821
247.822
247.823
247.823
247.824
247.824
247.825
247.825
247.826
247.826
247.827
247.828
247.828
247.829
247.829
247.83
247.831
247.831
247.832
247.832
247.833
247.834
247.834
247.835
247.836
247.836
247.837
247.838
247.838
247.839
247.84
247.84
247.841
247.842
247.842
247.843
247.844
247.844
247.845
247.846
247.847
247.847
247.848
247.849
247.85
247.85
247.851
247.852
247.853
247.854
247.854
247.855
247.856
247.857
247.858
247.858
247.859
247.86
247.861
247.862
247.863
247.864
247.865
247.865
247.866
247.867
247.868
247.869
247.87
247.871
247.872
247.873
247.874
247.875
247.876
247.877
247.878
247.879
247.88
247.881
247.882
247.883
247.884
247.886
247.887
247.888
247.889
247.89
247.891
247.893
247.894
247.895
247.896
247.898
247.899
247.9
247.901
247.903
247.904
247.906
247.907
247.909
247.91
247.912
247.914
247.916
247.917
247.92
247.922
247.925
247.927
247.931
247.934
247.939
247.942
247.948
247.952
247.96
247.965
247.974
247.98
247.992
247.999
248.014
248.022
248.039
248.05
248.069
248.082
248.104
248.119
248.143
248.16
248.185
248.205
248.231
248.252
248.28
248.301
248.329
248.351
248.378
248.399
248.425
248.445
248.47
248.488
248.511
248.527
248.548
248.562
248.58
248.592
248.608
248.618
248.632
248.64
248.652
248.658
248.668
248.674
248.682
248.687
248.695
248.698
248.705
248.709
248.715
248.718
248.724
248.727
248.733
248.736
248.743
248.746
248.752
248.755
248.761
248.765
248.772
248.775
248.782
248.786
248.794
248.798
248.806
248.81
248.818
248.823
248.832
248.836
248.845
248.85
248.859
248.864
248.874
248.878
248.888
248.892
248.901
248.904
248.912
248.916
248.923
248.926
248.934
248.938
248.947
248.952
248.965
248.971
248.991
)
;

boundaryField
{
    sides
    {
        type            zeroGradient;
    }
    empty
    {
        type            empty;
    }
}


// ************************************************************************* //
