/*--------------------------------*- C++ -*----------------------------------*\
| =========                 |                                                 |
| \\      /  F ield         | OpenFOAM: The Open Source CFD Toolbox           |
|  \\    /   O peration     | Version:  3.0.0                                 |
|   \\  /    A nd           | Web:      www.OpenFOAM.org                      |
|    \\/     M anipulation  |                                                 |
\*---------------------------------------------------------------------------*/
FoamFile
{
    version     2.0;
    format      ascii;
    class       volVectorField;
    location    "0.019";
    object      U;
}
// * * * * * * * * * * * * * * * * * * * * * * * * * * * * * * * * * * * * * //

dimensions      [0 1 -1 0 0 0 0];

internalField   nonuniform List<vector> 
1000
(
(5.94012 0 0)
(7.07965 0 0)
(7.87047 0 0)
(8.57656 0 0)
(9.31897 0 0)
(10.0816 0 0)
(10.842 0 0)
(11.5982 0 0)
(12.3539 0 0)
(13.1103 0 0)
(13.8672 0 0)
(14.624 0 0)
(15.381 0 0)
(16.138 0 0)
(16.8952 0 0)
(17.6525 0 0)
(18.4099 0 0)
(19.1674 0 0)
(19.925 0 0)
(20.6827 0 0)
(21.4405 0 0)
(22.1985 0 0)
(22.9565 0 0)
(23.7147 0 0)
(24.473 0 0)
(25.2313 0 0)
(25.9898 0 0)
(26.7484 0 0)
(27.5071 0 0)
(28.2659 0 0)
(29.0249 0 0)
(29.7839 0 0)
(30.543 0 0)
(31.3022 0 0)
(32.0615 0 0)
(32.821 0 0)
(33.5805 0 0)
(34.3401 0 0)
(35.0999 0 0)
(35.8597 0 0)
(36.6196 0 0)
(37.3796 0 0)
(38.1398 0 0)
(38.9 0 0)
(39.6603 0 0)
(40.4207 0 0)
(41.1812 0 0)
(41.9418 0 0)
(42.7025 0 0)
(43.4632 0 0)
(44.2241 0 0)
(44.985 0 0)
(45.7461 0 0)
(46.5072 0 0)
(47.2684 0 0)
(48.0297 0 0)
(48.7911 0 0)
(49.5525 0 0)
(50.3141 0 0)
(51.0757 0 0)
(51.8374 0 0)
(52.5992 0 0)
(53.3611 0 0)
(54.123 0 0)
(54.885 0 0)
(55.6471 0 0)
(56.4093 0 0)
(57.1715 0 0)
(57.9338 0 0)
(58.6962 0 0)
(59.4587 0 0)
(60.2212 0 0)
(60.9838 0 0)
(61.7465 0 0)
(62.5092 0 0)
(63.272 0 0)
(64.0349 0 0)
(64.7978 0 0)
(65.5608 0 0)
(66.3238 0 0)
(67.0869 0 0)
(67.8501 0 0)
(68.6133 0 0)
(69.3765 0 0)
(70.1399 0 0)
(70.9032 0 0)
(71.6667 0 0)
(72.4302 0 0)
(73.1937 0 0)
(73.9573 0 0)
(74.7209 0 0)
(75.4845 0 0)
(76.2483 0 0)
(77.012 0 0)
(77.7758 0 0)
(78.5396 0 0)
(79.3035 0 0)
(80.0674 0 0)
(80.8313 0 0)
(81.5953 0 0)
(82.3593 0 0)
(83.1233 0 0)
(83.8874 0 0)
(84.6515 0 0)
(85.4156 0 0)
(86.1797 0 0)
(86.9438 0 0)
(87.708 0 0)
(88.4722 0 0)
(89.2364 0 0)
(90.0006 0 0)
(90.7648 0 0)
(91.529 0 0)
(92.2932 0 0)
(93.0575 0 0)
(93.8217 0 0)
(94.586 0 0)
(95.3502 0 0)
(96.1144 0 0)
(96.8786 0 0)
(97.6429 0 0)
(98.4071 0 0)
(99.1712 0 0)
(99.9354 0 0)
(100.7 0 0)
(101.464 0 0)
(102.228 0 0)
(102.992 0 0)
(103.756 0 0)
(104.52 0 0)
(105.284 0 0)
(106.048 0 0)
(106.812 0 0)
(107.576 0 0)
(108.339 0 0)
(109.103 0 0)
(109.867 0 0)
(110.63 0 0)
(111.394 0 0)
(112.157 0 0)
(112.921 0 0)
(113.684 0 0)
(114.448 0 0)
(115.211 0 0)
(115.974 0 0)
(116.737 0 0)
(117.5 0 0)
(118.263 0 0)
(119.025 0 0)
(119.788 0 0)
(120.551 0 0)
(121.313 0 0)
(122.075 0 0)
(122.837 0 0)
(123.599 0 0)
(124.361 0 0)
(125.123 0 0)
(125.885 0 0)
(126.646 0 0)
(127.408 0 0)
(128.169 0 0)
(128.93 0 0)
(129.691 0 0)
(130.451 0 0)
(131.212 0 0)
(131.972 0 0)
(132.732 0 0)
(133.492 0 0)
(134.252 0 0)
(135.011 0 0)
(135.77 0 0)
(136.529 0 0)
(137.288 0 0)
(138.047 0 0)
(138.805 0 0)
(139.562 0 0)
(140.32 0 0)
(141.077 0 0)
(141.834 0 0)
(142.591 0 0)
(143.347 0 0)
(144.103 0 0)
(144.859 0 0)
(145.615 0 0)
(146.37 0 0)
(147.124 0 0)
(147.879 0 0)
(148.633 0 0)
(149.387 0 0)
(150.14 0 0)
(150.893 0 0)
(151.645 0 0)
(152.397 0 0)
(153.148 0 0)
(153.899 0 0)
(154.65 0 0)
(155.4 0 0)
(156.149 0 0)
(156.898 0 0)
(157.646 0 0)
(158.394 0 0)
(159.141 0 0)
(159.887 0 0)
(160.633 0 0)
(161.378 0 0)
(162.122 0 0)
(162.866 0 0)
(163.609 0 0)
(164.351 0 0)
(165.093 0 0)
(165.833 0 0)
(166.573 0 0)
(167.312 0 0)
(168.05 0 0)
(168.787 0 0)
(169.523 0 0)
(170.258 0 0)
(170.992 0 0)
(171.725 0 0)
(172.457 0 0)
(173.188 0 0)
(173.918 0 0)
(174.646 0 0)
(175.373 0 0)
(176.099 0 0)
(176.824 0 0)
(177.547 0 0)
(178.268 0 0)
(178.989 0 0)
(179.707 0 0)
(180.425 0 0)
(181.14 0 0)
(181.854 0 0)
(182.566 0 0)
(183.276 0 0)
(183.985 0 0)
(184.691 0 0)
(185.396 0 0)
(186.098 0 0)
(186.798 0 0)
(187.497 0 0)
(188.193 0 0)
(188.886 0 0)
(189.577 0 0)
(190.266 0 0)
(190.953 0 0)
(191.636 0 0)
(192.317 0 0)
(192.995 0 0)
(193.671 0 0)
(194.343 0 0)
(195.013 0 0)
(195.679 0 0)
(196.342 0 0)
(197.003 0 0)
(197.659 0 0)
(198.313 0 0)
(198.963 0 0)
(199.609 0 0)
(200.252 0 0)
(200.891 0 0)
(201.527 0 0)
(202.158 0 0)
(202.786 0 0)
(203.41 0 0)
(204.03 0 0)
(204.645 0 0)
(205.257 0 0)
(205.864 0 0)
(206.468 0 0)
(207.067 0 0)
(207.661 0 0)
(208.252 0 0)
(208.838 0 0)
(209.419 0 0)
(209.996 0 0)
(210.569 0 0)
(211.138 0 0)
(211.702 0 0)
(212.261 0 0)
(212.817 0 0)
(213.367 0 0)
(213.914 0 0)
(214.456 0 0)
(214.994 0 0)
(215.528 0 0)
(216.057 0 0)
(216.583 0 0)
(217.104 0 0)
(217.621 0 0)
(218.135 0 0)
(218.644 0 0)
(219.15 0 0)
(219.652 0 0)
(220.151 0 0)
(220.646 0 0)
(221.138 0 0)
(221.626 0 0)
(222.112 0 0)
(222.594 0 0)
(223.073 0 0)
(223.549 0 0)
(224.023 0 0)
(224.494 0 0)
(224.963 0 0)
(225.429 0 0)
(225.893 0 0)
(226.354 0 0)
(226.814 0 0)
(227.271 0 0)
(227.727 0 0)
(228.181 0 0)
(228.633 0 0)
(229.084 0 0)
(229.533 0 0)
(229.98 0 0)
(230.427 0 0)
(230.872 0 0)
(231.316 0 0)
(231.759 0 0)
(232.2 0 0)
(232.641 0 0)
(233.081 0 0)
(233.52 0 0)
(233.958 0 0)
(234.396 0 0)
(234.833 0 0)
(235.269 0 0)
(235.705 0 0)
(236.14 0 0)
(236.574 0 0)
(237.009 0 0)
(237.442 0 0)
(237.875 0 0)
(238.308 0 0)
(238.741 0 0)
(239.173 0 0)
(239.604 0 0)
(240.036 0 0)
(240.467 0 0)
(240.898 0 0)
(241.328 0 0)
(241.759 0 0)
(242.189 0 0)
(242.618 0 0)
(243.048 0 0)
(243.477 0 0)
(243.906 0 0)
(244.335 0 0)
(244.764 0 0)
(245.192 0 0)
(245.62 0 0)
(246.048 0 0)
(246.476 0 0)
(246.903 0 0)
(247.33 0 0)
(247.757 0 0)
(248.184 0 0)
(248.611 0 0)
(249.037 0 0)
(249.463 0 0)
(249.889 0 0)
(250.314 0 0)
(250.74 0 0)
(251.165 0 0)
(251.59 0 0)
(252.014 0 0)
(252.438 0 0)
(252.862 0 0)
(253.286 0 0)
(253.709 0 0)
(254.132 0 0)
(254.555 0 0)
(254.977 0 0)
(255.399 0 0)
(255.821 0 0)
(256.242 0 0)
(256.663 0 0)
(257.084 0 0)
(257.504 0 0)
(257.924 0 0)
(258.344 0 0)
(258.763 0 0)
(259.181 0 0)
(259.599 0 0)
(260.017 0 0)
(260.434 0 0)
(260.851 0 0)
(261.267 0 0)
(261.683 0 0)
(262.098 0 0)
(262.513 0 0)
(262.927 0 0)
(263.34 0 0)
(263.753 0 0)
(264.165 0 0)
(264.577 0 0)
(264.988 0 0)
(265.398 0 0)
(265.807 0 0)
(266.216 0 0)
(266.624 0 0)
(267.032 0 0)
(267.438 0 0)
(267.844 0 0)
(268.248 0 0)
(268.652 0 0)
(269.055 0 0)
(269.457 0 0)
(269.858 0 0)
(270.258 0 0)
(270.657 0 0)
(271.055 0 0)
(271.452 0 0)
(271.847 0 0)
(272.241 0 0)
(272.634 0 0)
(273.026 0 0)
(273.417 0 0)
(273.806 0 0)
(274.193 0 0)
(274.579 0 0)
(274.964 0 0)
(275.346 0 0)
(275.728 0 0)
(276.107 0 0)
(276.485 0 0)
(276.861 0 0)
(277.234 0 0)
(277.606 0 0)
(277.976 0 0)
(278.344 0 0)
(278.709 0 0)
(279.072 0 0)
(279.433 0 0)
(279.791 0 0)
(280.147 0 0)
(280.5 0 0)
(280.85 0 0)
(281.198 0 0)
(281.542 0 0)
(281.883 0 0)
(282.221 0 0)
(282.556 0 0)
(282.888 0 0)
(283.216 0 0)
(283.54 0 0)
(283.861 0 0)
(284.177 0 0)
(284.49 0 0)
(284.798 0 0)
(285.103 0 0)
(285.402 0 0)
(285.698 0 0)
(285.988 0 0)
(286.274 0 0)
(286.555 0 0)
(286.831 0 0)
(287.101 0 0)
(287.366 0 0)
(287.626 0 0)
(287.88 0 0)
(288.128 0 0)
(288.371 0 0)
(288.607 0 0)
(288.838 0 0)
(289.062 0 0)
(289.28 0 0)
(289.491 0 0)
(289.696 0 0)
(289.895 0 0)
(290.087 0 0)
(290.272 0 0)
(290.45 0 0)
(290.622 0 0)
(290.787 0 0)
(290.945 0 0)
(291.096 0 0)
(291.241 0 0)
(291.379 0 0)
(291.511 0 0)
(291.636 0 0)
(291.754 0 0)
(291.866 0 0)
(291.972 0 0)
(292.072 0 0)
(292.165 0 0)
(292.253 0 0)
(292.336 0 0)
(292.412 0 0)
(292.484 0 0)
(292.55 0 0)
(292.612 0 0)
(292.669 0 0)
(292.722 0 0)
(292.77 0 0)
(292.814 0 0)
(292.855 0 0)
(292.892 0 0)
(292.926 0 0)
(292.956 0 0)
(292.984 0 0)
(293.009 0 0)
(293.031 0 0)
(293.052 0 0)
(293.07 0 0)
(293.086 0 0)
(293.1 0 0)
(293.113 0 0)
(293.124 0 0)
(293.134 0 0)
(293.143 0 0)
(293.151 0 0)
(293.158 0 0)
(293.164 0 0)
(293.169 0 0)
(293.173 0 0)
(293.177 0 0)
(293.18 0 0)
(293.183 0 0)
(293.186 0 0)
(293.188 0 0)
(293.19 0 0)
(293.192 0 0)
(293.193 0 0)
(293.194 0 0)
(293.195 0 0)
(293.196 0 0)
(293.197 0 0)
(293.197 0 0)
(293.198 0 0)
(293.198 0 0)
(293.199 0 0)
(293.199 0 0)
(293.199 0 0)
(293.199 0 0)
(293.2 0 0)
(293.2 0 0)
(293.2 0 0)
(293.2 0 0)
(293.2 0 0)
(293.2 0 0)
(293.2 0 0)
(293.201 0 0)
(293.201 0 0)
(293.201 0 0)
(293.201 0 0)
(293.201 0 0)
(293.201 0 0)
(293.201 0 0)
(293.201 0 0)
(293.201 0 0)
(293.201 0 0)
(293.201 0 0)
(293.201 0 0)
(293.201 0 0)
(293.201 0 0)
(293.201 0 0)
(293.201 0 0)
(293.202 0 0)
(293.202 0 0)
(293.202 0 0)
(293.202 0 0)
(293.202 0 0)
(293.202 0 0)
(293.202 0 0)
(293.202 0 0)
(293.202 0 0)
(293.202 0 0)
(293.202 0 0)
(293.202 0 0)
(293.202 0 0)
(293.202 0 0)
(293.202 0 0)
(293.202 0 0)
(293.202 0 0)
(293.202 0 0)
(293.202 0 0)
(293.203 0 0)
(293.203 0 0)
(293.203 0 0)
(293.203 0 0)
(293.203 0 0)
(293.203 0 0)
(293.203 0 0)
(293.203 0 0)
(293.203 0 0)
(293.203 0 0)
(293.203 0 0)
(293.203 0 0)
(293.203 0 0)
(293.203 0 0)
(293.203 0 0)
(293.203 0 0)
(293.203 0 0)
(293.203 0 0)
(293.203 0 0)
(293.203 0 0)
(293.203 0 0)
(293.203 0 0)
(293.203 0 0)
(293.203 0 0)
(293.203 0 0)
(293.203 0 0)
(293.203 0 0)
(293.203 0 0)
(293.203 0 0)
(293.203 0 0)
(293.203 0 0)
(293.203 0 0)
(293.203 0 0)
(293.203 0 0)
(293.203 0 0)
(293.203 0 0)
(293.203 0 0)
(293.203 0 0)
(293.203 0 0)
(293.203 0 0)
(293.203 0 0)
(293.203 0 0)
(293.203 0 0)
(293.203 0 0)
(293.203 0 0)
(293.203 0 0)
(293.203 0 0)
(293.203 0 0)
(293.203 0 0)
(293.203 0 0)
(293.203 0 0)
(293.203 0 0)
(293.203 0 0)
(293.203 0 0)
(293.203 0 0)
(293.203 0 0)
(293.204 0 0)
(293.204 0 0)
(293.204 0 0)
(293.204 0 0)
(293.204 0 0)
(293.204 0 0)
(293.204 0 0)
(293.204 0 0)
(293.204 0 0)
(293.204 0 0)
(293.204 0 0)
(293.204 0 0)
(293.204 0 0)
(293.204 0 0)
(293.204 0 0)
(293.204 0 0)
(293.204 0 0)
(293.204 0 0)
(293.204 0 0)
(293.204 0 0)
(293.204 0 0)
(293.204 0 0)
(293.204 0 0)
(293.204 0 0)
(293.204 0 0)
(293.204 0 0)
(293.204 0 0)
(293.204 0 0)
(293.204 0 0)
(293.204 0 0)
(293.204 0 0)
(293.204 0 0)
(293.204 0 0)
(293.204 0 0)
(293.204 0 0)
(293.204 0 0)
(293.204 0 0)
(293.204 0 0)
(293.204 0 0)
(293.204 0 0)
(293.204 0 0)
(293.204 0 0)
(293.204 0 0)
(293.204 0 0)
(293.204 0 0)
(293.204 0 0)
(293.204 0 0)
(293.204 0 0)
(293.204 0 0)
(293.204 0 0)
(293.204 0 0)
(293.204 0 0)
(293.204 0 0)
(293.204 0 0)
(293.204 0 0)
(293.205 0 0)
(293.205 0 0)
(293.205 0 0)
(293.205 0 0)
(293.205 0 0)
(293.205 0 0)
(293.205 0 0)
(293.205 0 0)
(293.205 0 0)
(293.205 0 0)
(293.205 0 0)
(293.205 0 0)
(293.205 0 0)
(293.205 0 0)
(293.205 0 0)
(293.205 0 0)
(293.205 0 0)
(293.205 0 0)
(293.205 0 0)
(293.205 0 0)
(293.205 0 0)
(293.205 0 0)
(293.205 0 0)
(293.205 0 0)
(293.205 0 0)
(293.205 0 0)
(293.205 0 0)
(293.205 0 0)
(293.205 0 0)
(293.205 0 0)
(293.205 0 0)
(293.205 0 0)
(293.205 0 0)
(293.205 0 0)
(293.205 0 0)
(293.205 0 0)
(293.205 0 0)
(293.205 0 0)
(293.205 0 0)
(293.205 0 0)
(293.205 0 0)
(293.205 0 0)
(293.205 0 0)
(293.205 0 0)
(293.205 0 0)
(293.205 0 0)
(293.205 0 0)
(293.205 0 0)
(293.205 0 0)
(293.205 0 0)
(293.205 0 0)
(293.205 0 0)
(293.205 0 0)
(293.205 0 0)
(293.205 0 0)
(293.205 0 0)
(293.205 0 0)
(293.205 0 0)
(293.205 0 0)
(293.205 0 0)
(293.205 0 0)
(293.205 0 0)
(293.205 0 0)
(293.205 0 0)
(293.205 0 0)
(293.205 0 0)
(293.205 0 0)
(293.205 0 0)
(293.205 0 0)
(293.205 0 0)
(293.205 0 0)
(293.205 0 0)
(293.205 0 0)
(293.205 0 0)
(293.205 0 0)
(293.205 0 0)
(293.205 0 0)
(293.205 0 0)
(293.205 0 0)
(293.205 0 0)
(293.205 0 0)
(293.205 0 0)
(293.205 0 0)
(293.205 0 0)
(293.205 0 0)
(293.205 0 0)
(293.205 0 0)
(293.205 0 0)
(293.205 0 0)
(293.205 0 0)
(293.205 0 0)
(293.205 0 0)
(293.205 0 0)
(293.205 0 0)
(293.205 0 0)
(293.205 0 0)
(293.205 0 0)
(293.205 0 0)
(293.205 0 0)
(293.205 0 0)
(293.205 0 0)
(293.205 0 0)
(293.205 0 0)
(293.205 0 0)
(293.205 0 0)
(293.205 0 0)
(293.205 0 0)
(293.205 0 0)
(293.205 0 0)
(293.205 0 0)
(293.205 0 0)
(293.205 0 0)
(293.205 0 0)
(293.205 0 0)
(293.205 0 0)
(293.205 0 0)
(293.205 0 0)
(293.205 0 0)
(293.205 0 0)
(293.205 0 0)
(293.205 0 0)
(293.205 0 0)
(293.205 0 0)
(293.205 0 0)
(293.205 0 0)
(293.205 0 0)
(293.205 0 0)
(293.205 0 0)
(293.205 0 0)
(293.205 0 0)
(293.205 0 0)
(293.205 0 0)
(293.205 0 0)
(293.205 0 0)
(293.205 0 0)
(293.205 0 0)
(293.205 0 0)
(293.205 0 0)
(293.205 0 0)
(293.205 0 0)
(293.205 0 0)
(293.205 0 0)
(293.205 0 0)
(293.205 0 0)
(293.205 0 0)
(293.205 0 0)
(293.205 0 0)
(293.205 0 0)
(293.206 0 0)
(293.206 0 0)
(293.206 0 0)
(293.206 0 0)
(293.206 0 0)
(293.206 0 0)
(293.206 0 0)
(293.206 0 0)
(293.206 0 0)
(293.206 0 0)
(293.206 0 0)
(293.206 0 0)
(293.206 0 0)
(293.206 0 0)
(293.206 0 0)
(293.206 0 0)
(293.206 0 0)
(293.206 0 0)
(293.206 0 0)
(293.206 0 0)
(293.206 0 0)
(293.206 0 0)
(293.206 0 0)
(293.206 0 0)
(293.206 0 0)
(293.206 0 0)
(293.206 0 0)
(293.206 0 0)
(293.206 0 0)
(293.206 0 0)
(293.206 0 0)
(293.206 0 0)
(293.206 0 0)
(293.206 0 0)
(293.206 0 0)
(293.205 0 0)
(293.205 0 0)
(293.205 0 0)
(293.205 0 0)
(293.205 0 0)
(293.205 0 0)
(293.205 0 0)
(293.205 0 0)
(293.205 0 0)
(293.205 0 0)
(293.205 0 0)
(293.205 0 0)
(293.205 0 0)
(293.205 0 0)
(293.204 0 0)
(293.204 0 0)
(293.204 0 0)
(293.203 0 0)
(293.202 0 0)
(293.201 0 0)
(293.2 0 0)
(293.199 0 0)
(293.197 0 0)
(293.195 0 0)
(293.192 0 0)
(293.189 0 0)
(293.185 0 0)
(293.18 0 0)
(293.174 0 0)
(293.167 0 0)
(293.158 0 0)
(293.149 0 0)
(293.137 0 0)
(293.124 0 0)
(293.109 0 0)
(293.091 0 0)
(293.071 0 0)
(293.048 0 0)
(293.022 0 0)
(292.994 0 0)
(292.961 0 0)
(292.926 0 0)
(292.887 0 0)
(292.845 0 0)
(292.799 0 0)
(292.749 0 0)
(292.696 0 0)
(292.64 0 0)
(292.58 0 0)
(292.518 0 0)
(292.453 0 0)
(292.386 0 0)
(292.317 0 0)
(292.247 0 0)
(292.176 0 0)
(292.105 0 0)
(292.034 0 0)
(291.964 0 0)
(291.895 0 0)
(291.828 0 0)
(291.763 0 0)
(291.701 0 0)
(291.641 0 0)
(291.585 0 0)
(291.532 0 0)
(291.482 0 0)
(291.437 0 0)
(291.395 0 0)
(291.356 0 0)
(291.322 0 0)
(291.291 0 0)
(291.263 0 0)
(291.239 0 0)
(291.218 0 0)
(291.199 0 0)
(291.183 0 0)
(291.169 0 0)
(291.158 0 0)
(291.148 0 0)
(291.14 0 0)
(291.133 0 0)
(291.127 0 0)
(291.123 0 0)
(291.119 0 0)
(291.116 0 0)
(291.114 0 0)
(291.112 0 0)
(291.11 0 0)
(291.109 0 0)
(291.108 0 0)
(291.107 0 0)
(291.106 0 0)
(291.105 0 0)
(291.104 0 0)
(291.103 0 0)
(291.103 0 0)
(291.102 0 0)
(291.101 0 0)
(291.099 0 0)
(291.098 0 0)
(291.097 0 0)
(291.095 0 0)
(291.094 0 0)
(291.092 0 0)
(291.09 0 0)
(291.089 0 0)
(291.087 0 0)
(291.086 0 0)
(291.085 0 0)
(291.084 0 0)
(291.084 0 0)
(291.084 0 0)
(291.085 0 0)
(291.088 0 0)
(291.091 0 0)
(291.097 0 0)
(291.104 0 0)
(291.113 0 0)
(291.124 0 0)
(291.137 0 0)
(291.15 0 0)
(291.164 0 0)
(291.178 0 0)
(291.191 0 0)
(291.202 0 0)
(291.21 0 0)
(291.217 0 0)
(291.221 0 0)
)
;

boundaryField
{
    sides
    {
        type            zeroGradient;
    }
    empty
    {
        type            empty;
    }
}


// ************************************************************************* //
