/*--------------------------------*- C++ -*----------------------------------*\
| =========                 |                                                 |
| \\      /  F ield         | OpenFOAM: The Open Source CFD Toolbox           |
|  \\    /   O peration     | Version:  3.0.0                                 |
|   \\  /    A nd           | Web:      www.OpenFOAM.org                      |
|    \\/     M anipulation  |                                                 |
\*---------------------------------------------------------------------------*/
FoamFile
{
    version     2.0;
    format      ascii;
    class       volScalarField;
    location    "0.017";
    object      p;
}
// * * * * * * * * * * * * * * * * * * * * * * * * * * * * * * * * * * * * * //

dimensions      [1 -1 -2 0 0 0 0];

internalField   nonuniform List<scalar> 
1000
(
59192.9
59182
59173.9
59166.2
59158
59149.7
59141.3
59132.9
59124.3
59115.7
59107
59098.1
59089.2
59080.2
59071.1
59062
59052.7
59043.3
59033.8
59024.3
59014.6
59004.8
58995
58985
58975
58964.8
58954.6
58944.3
58933.8
58923.3
58912.6
58901.9
58891
58880.1
58869
58857.8
58846.6
58835.2
58823.7
58812.1
58800.4
58788.6
58776.7
58764.7
58752.5
58740.3
58727.9
58715.4
58702.8
58690.1
58677.3
58664.3
58651.2
58638
58624.7
58611.2
58597.7
58584
58570.1
58556.2
58542.1
58527.9
58513.5
58499
58484.4
58469.6
58454.7
58439.6
58424.4
58409
58393.5
58377.9
58362.1
58346.1
58330
58313.7
58297.3
58280.7
58263.9
58247
58229.9
58212.6
58195.2
58177.5
58159.7
58141.7
58123.5
58105.1
58086.6
58067.8
58048.8
58029.6
58010.2
57990.6
57970.8
57950.8
57930.5
57910
57889.3
57868.3
57847.1
57825.6
57803.9
57781.9
57759.6
57737.1
57714.3
57691.2
57667.8
57644.2
57620.2
57595.9
57571.3
57546.3
57521
57495.4
57469.4
57443
57416.3
57389.1
57361.6
57333.6
57305.3
57276.5
57247.2
57217.5
57187.3
57156.6
57125.5
57093.8
57061.5
57028.7
56995.4
56961.4
56926.9
56891.7
56855.9
56819.4
56782.2
56744.4
56705.8
56666.4
56626.3
56585.4
56543.7
56501.1
56457.7
56413.3
56368.1
56321.9
56274.8
56226.7
56177.5
56127.3
56076.1
56023.8
55970.3
55915.8
55860.1
55803.2
55745.1
55685.8
55625.3
55563.5
55500.5
55436.2
55370.7
55303.8
55235.7
55166.2
55095.5
55023.4
54950.1
54875.4
54799.5
54722.3
54643.9
54564.2
54483.3
54401.1
54317.9
54233.4
54147.9
54061.3
53973.6
53884.9
53795.2
53704.6
53613
53520.7
53427.5
53333.5
53238.8
53143.4
53047.3
52950.7
52853.5
52755.7
52657.5
52558.9
52459.9
52360.5
52260.7
52160.7
52060.5
51960
51859.4
51758.6
51657.6
51556.6
51455.4
51354.3
51253
51151.8
51050.6
50949.4
50848.2
50747.1
50646
50545
50444.1
50343.3
50242.7
50142.1
50041.6
49941.3
49841.1
49741
49641.1
49541.3
49441.7
49342.2
49242.9
49143.8
49044.8
48945.9
48847.3
48748.8
48650.4
48552.3
48454.3
48356.4
48258.8
48161.3
48064
47966.8
47869.8
47773
47676.4
47579.9
47483.6
47387.5
47291.5
47195.7
47100.1
47004.7
46909.4
46814.3
46719.3
46624.6
46530
46435.6
46341.3
46247.2
46153.3
46059.6
45966
45872.6
45779.4
45686.3
45593.4
45500.6
45408.1
45315.7
45223.5
45131.4
45039.5
44947.8
44856.2
44764.8
44673.6
44582.6
44491.7
44400.9
44310.4
44220
44129.8
44039.7
43949.8
43860.1
43770.5
43681.1
43591.9
43502.9
43414
43325.2
43236.7
43148.3
43060
42971.9
42884
42796.3
42708.7
42621.3
42534
42447
42360
42273.3
42186.7
42100.3
42014
41927.9
41842
41756.2
41670.6
41585.1
41499.8
41414.7
41329.8
41245
41160.4
41075.9
40991.6
40907.5
40823.5
40739.7
40656
40572.5
40489.2
40406.1
40323.1
40240.3
40157.6
40075.1
39992.8
39910.6
39828.6
39746.8
39665.1
39583.6
39502.3
39421.1
39340.1
39259.2
39178.5
39098
39017.7
38937.5
38857.5
38777.6
38698
38618.5
38539.1
38459.9
38380.9
38302.1
38223.4
38144.9
38066.6
37988.4
37910.5
37832.7
37755
37677.5
37600.2
37523.1
37446.2
37369.4
37292.8
37216.4
37140.2
37064.1
36988.2
36912.5
36837
36761.6
36686.5
36611.5
36536.7
36462.1
36387.7
36313.5
36239.4
36165.6
36091.9
36018.4
35945.2
35872.1
35799.2
35726.5
35654
35581.8
35509.7
35437.8
35366.2
35294.7
35223.5
35152.5
35081.7
35011.1
34940.7
34870.6
34800.7
34731
34661.5
34592.3
34523.4
34454.6
34386.2
34317.9
34250
34182.2
34114.8
34047.6
33980.7
33914.1
33847.7
33781.7
33715.9
33650.4
33585.2
33520.4
33455.8
33391.6
33327.7
33264.2
33201
33138.2
33075.7
33013.5
32951.8
32890.5
32829.5
32769
32708.9
32649.2
32589.9
32531.1
32472.8
32414.9
32357.6
32300.7
32244.4
32188.6
32133.3
32078.7
32024.6
31971
31918.1
31865.9
31814.3
31763.3
31713.1
31663.5
31614.7
31566.6
31519.3
31472.7
31427
31382.1
31338.1
31294.9
31252.6
31211.2
31170.8
31131.2
31092.7
31055.2
31018.6
30983.1
30948.6
30915.2
30882.8
30851.5
30821.3
30792.1
30764.1
30737.2
30711.4
30686.7
30663.1
30640.6
30619.2
30598.8
30579.6
30561.4
30544.2
30528
30512.8
30498.6
30485.3
30472.9
30461.4
30450.8
30440.9
30431.8
30423.5
30415.8
30408.8
30402.4
30396.6
30391.4
30386.6
30382.4
30378.5
30375.1
30372
30369.3
30366.9
30364.7
30362.9
30361.2
30359.8
30358.5
30357.4
30356.4
30355.6
30354.9
30354.2
30353.7
30353.2
30352.8
30352.5
30352.2
30352
30351.8
30351.6
30351.5
30351.3
30351.2
30351.1
30351.1
30351
30350.9
30350.9
30350.8
30350.8
30350.8
30350.8
30350.7
30350.7
30350.7
30350.7
30350.7
30350.7
30350.6
30350.6
30350.6
30350.6
30350.6
30350.6
30350.6
30350.6
30350.6
30350.6
30350.6
30350.6
30350.5
30350.5
30350.5
30350.5
30350.5
30350.5
30350.5
30350.5
30350.5
30350.5
30350.5
30350.5
30350.5
30350.5
30350.4
30350.4
30350.4
30350.4
30350.4
30350.4
30350.4
30350.4
30350.4
30350.4
30350.4
30350.4
30350.4
30350.3
30350.3
30350.3
30350.3
30350.3
30350.3
30350.3
30350.3
30350.3
30350.3
30350.3
30350.3
30350.3
30350.3
30350.3
30350.3
30350.3
30350.3
30350.3
30350.3
30350.3
30350.3
30350.3
30350.3
30350.3
30350.3
30350.3
30350.3
30350.3
30350.3
30350.3
30350.3
30350.3
30350.3
30350.3
30350.3
30350.3
30350.2
30350.2
30350.2
30350.2
30350.2
30350.2
30350.2
30350.2
30350.2
30350.2
30350.2
30350.2
30350.2
30350.2
30350.2
30350.2
30350.2
30350.2
30350.2
30350.2
30350.2
30350.2
30350.2
30350.2
30350.2
30350.2
30350.2
30350.2
30350.2
30350.2
30350.2
30350.2
30350.2
30350.2
30350.2
30350.1
30350.1
30350.1
30350.1
30350.1
30350.1
30350.1
30350.1
30350.1
30350.1
30350.1
30350.1
30350.1
30350.1
30350.1
30350.1
30350.1
30350.1
30350.1
30350.1
30350.1
30350.1
30350.1
30350.1
30350.1
30350.1
30350.1
30350.1
30350.1
30350.1
30350.1
30350.1
30350.1
30350.1
30350.1
30350.1
30350.1
30350
30350
30350
30350
30350
30350
30350
30350
30350
30350
30350
30350
30350
30350
30350
30350
30350
30350
30350
30350
30350
30350
30350
30350
30350
30350
30350
30350
30350
30350
30350
30350
30350
30350
30350
30350
30350
30350
30350
30350
30350
30350
30350
30350
30350
30350
30350
30350
30350
30350
30350
30349.9
30349.9
30349.9
30349.9
30349.9
30349.9
30349.9
30349.9
30349.9
30349.9
30349.9
30349.9
30349.9
30349.9
30349.9
30349.9
30349.9
30349.9
30349.9
30349.9
30349.9
30349.9
30349.9
30349.9
30349.9
30349.9
30349.9
30349.9
30349.9
30349.9
30349.9
30349.9
30349.9
30349.9
30349.9
30349.9
30349.9
30349.9
30349.9
30349.9
30349.9
30349.9
30349.9
30349.9
30349.9
30349.9
30349.9
30349.9
30349.9
30349.9
30349.9
30349.9
30349.9
30349.9
30349.9
30349.9
30349.9
30349.9
30349.9
30349.9
30349.9
30349.9
30349.9
30349.9
30349.9
30349.9
30349.9
30349.9
30349.9
30349.9
30349.9
30349.9
30349.9
30349.9
30349.9
30349.9
30349.9
30349.9
30349.9
30349.9
30349.8
30349.8
30349.8
30349.8
30349.8
30349.8
30349.8
30349.8
30349.8
30349.8
30349.8
30349.8
30349.8
30349.8
30349.8
30349.8
30349.8
30349.8
30349.8
30349.8
30349.8
30349.8
30349.8
30349.8
30349.8
30349.8
30349.8
30349.8
30349.8
30349.8
30349.8
30349.8
30349.8
30349.8
30349.8
30349.8
30349.8
30349.8
30349.8
30349.8
30349.8
30349.8
30349.8
30349.8
30349.8
30349.8
30349.8
30349.8
30349.8
30349.8
30349.8
30349.8
30349.8
30349.8
30349.8
30349.8
30349.8
30349.8
30349.8
30349.8
30349.8
30349.8
30349.8
30349.8
30349.8
30349.8
30349.8
30349.8
30349.8
30349.8
30349.9
30349.9
30349.9
30350
30350
30350.1
30350.2
30350.4
30350.6
30350.8
30351.1
30351.5
30352
30352.7
30353.5
30354.4
30355.6
30357.1
30358.8
30360.9
30363.3
30366.2
30369.5
30373.3
30377.7
30382.7
30388.2
30394.4
30401.3
30408.8
30416.9
30425.6
30434.9
30444.7
30455
30465.6
30476.5
30487.6
30498.7
30509.9
30520.8
30531.6
30542
30551.9
30561.3
30570.2
30578.4
30586
30592.8
30599
30604.5
30609.4
30613.6
30617.2
30620.3
30622.9
30625
30626.8
30628.2
30629.4
30630.3
30631
30631.5
30631.9
30632.2
30632.4
30632.6
30632.7
30632.8
30632.8
30632.8
30632.8
30632.9
30632.9
30632.9
30632.8
30632.8
30632.8
30633
30632.6
30633.1
30632
30632.9
30631.7
30633.1
30631.3
30633.5
30631.3
30633.6
30631.2
30633.7
30631.4
30633.6
30631.6
30634.2
30632.5
30635
30634.3
30635.8
30635.5
30640.2
30639
30639.8
30636.8
30636.6
30618.7
)
;

boundaryField
{
    sides
    {
        type            zeroGradient;
    }
    empty
    {
        type            empty;
    }
}


// ************************************************************************* //
