/*--------------------------------*- C++ -*----------------------------------*\
| =========                 |                                                 |
| \\      /  F ield         | OpenFOAM: The Open Source CFD Toolbox           |
|  \\    /   O peration     | Version:  3.0.0                                 |
|   \\  /    A nd           | Web:      www.OpenFOAM.org                      |
|    \\/     M anipulation  |                                                 |
\*---------------------------------------------------------------------------*/
FoamFile
{
    version     2.0;
    format      ascii;
    class       surfaceScalarField;
    location    "0.017";
    object      phi;
}
// * * * * * * * * * * * * * * * * * * * * * * * * * * * * * * * * * * * * * //

dimensions      [1 0 -1 0 0 0 0];

internalField   nonuniform List<scalar> 
999
(
14.3386
16.7192
19.1021
21.4857
23.87
26.2542
28.6381
31.022
33.4056
35.789
38.1722
40.5552
42.938
45.3204
47.7026
50.0845
52.4661
54.8473
57.2282
59.6087
61.9888
64.3685
66.7478
69.1266
71.5049
73.8828
76.2601
78.6369
81.0132
83.3889
85.764
88.1385
90.5123
92.8855
95.2581
97.6299
100.001
102.371
104.741
107.11
109.478
111.845
114.211
116.576
118.941
121.304
123.667
126.029
128.389
130.749
133.107
135.464
137.82
140.175
142.529
144.882
147.233
149.583
151.932
154.279
156.625
158.969
161.312
163.654
165.994
168.332
170.669
173.004
175.338
177.67
179.999
182.328
184.654
186.978
189.3
191.621
193.939
196.255
198.569
200.881
203.191
205.498
207.803
210.105
212.405
214.702
216.997
219.289
221.579
223.865
226.149
228.429
230.707
232.981
235.252
237.52
239.785
242.046
244.303
246.557
248.807
251.054
253.296
255.534
257.768
259.998
262.223
264.444
266.66
268.871
271.077
273.278
275.474
277.664
279.849
282.028
284.201
286.368
288.528
290.682
292.829
294.97
297.103
299.228
301.346
303.456
305.558
307.652
309.736
311.812
313.878
315.935
317.981
320.017
322.043
324.057
326.061
328.052
330.031
331.998
333.951
335.891
337.818
339.73
341.627
343.509
345.375
347.226
349.059
350.875
352.674
354.455
356.217
357.96
359.683
361.387
363.07
364.731
366.372
367.99
369.586
371.159
372.709
374.236
375.739
377.217
378.672
380.101
381.506
382.885
384.24
385.569
386.872
388.151
389.404
390.631
391.834
393.012
394.165
395.294
396.398
397.479
398.537
399.571
400.584
401.574
402.543
403.491
404.42
405.328
406.218
407.09
407.944
408.781
409.602
410.407
411.198
411.974
412.737
413.487
414.225
414.951
415.667
416.37
417.067
417.75
418.43
419.095
419.759
420.408
421.058
421.694
422.329
422.956
423.576
424.195
424.801
425.413
426.007
426.611
427.197
427.791
428.372
428.954
429.532
430.104
430.676
431.241
431.805
432.365
432.922
433.477
434.027
434.576
435.121
435.663
436.203
436.739
437.273
437.804
438.333
438.859
439.381
439.902
440.419
440.934
441.446
441.956
442.463
442.967
443.469
443.968
444.465
444.959
445.45
445.939
446.425
446.909
447.39
447.869
448.345
448.818
449.289
449.758
450.223
450.687
451.148
451.606
452.062
452.515
452.966
453.415
453.86
454.304
454.745
455.183
455.619
456.053
456.484
456.913
457.339
457.763
458.184
458.603
459.019
459.433
459.845
460.254
460.661
461.066
461.468
461.867
462.265
462.659
463.052
463.442
463.83
464.215
464.598
464.979
465.357
465.733
466.107
466.478
466.847
467.214
467.579
467.941
468.3
468.658
469.013
469.366
469.716
470.065
470.411
470.754
471.096
471.435
471.772
472.106
472.439
472.769
473.097
473.422
473.746
474.067
474.386
474.703
475.017
475.329
475.639
475.947
476.253
476.556
476.858
477.157
477.454
477.748
478.041
478.331
478.62
478.906
479.189
479.471
479.751
480.028
480.303
480.577
480.848
481.117
481.383
481.648
481.91
482.171
482.429
482.685
482.939
483.191
483.441
483.689
483.935
484.179
484.42
484.66
484.897
485.133
485.366
485.597
485.826
486.053
486.279
486.502
486.723
486.942
487.159
487.374
487.586
487.797
488.006
488.213
488.418
488.621
488.822
489.02
489.217
489.412
489.605
489.796
489.985
490.172
490.357
490.539
490.72
490.899
491.077
491.252
491.425
491.596
491.765
491.932
492.098
492.261
492.422
492.582
492.739
492.895
493.049
493.2
493.35
493.498
493.644
493.788
493.93
494.07
494.208
494.345
494.479
494.612
494.742
494.871
494.998
495.122
495.245
495.366
495.486
495.603
495.718
495.831
495.943
496.053
496.16
496.266
496.37
496.472
496.572
496.67
496.766
496.861
496.953
497.044
497.133
497.219
497.304
497.387
497.469
497.548
497.625
497.701
497.774
497.846
497.916
497.984
498.05
498.114
498.176
498.237
498.295
498.352
498.407
498.46
498.511
498.561
498.609
498.655
498.699
498.741
498.782
498.821
498.858
498.894
498.927
498.96
498.99
499.02
499.047
499.073
499.098
499.121
499.143
499.163
499.183
499.2
499.217
499.233
499.247
499.26
499.272
499.283
499.294
499.303
499.312
499.319
499.326
499.333
499.338
499.343
499.348
499.352
499.355
499.359
499.361
499.364
499.366
499.367
499.369
499.37
499.371
499.372
499.373
499.373
499.373
499.374
499.374
499.374
499.374
499.374
499.374
499.374
499.374
499.374
499.373
499.373
499.373
499.373
499.372
499.372
499.372
499.371
499.371
499.371
499.37
499.37
499.37
499.369
499.369
499.368
499.368
499.368
499.367
499.367
499.367
499.366
499.366
499.365
499.365
499.365
499.364
499.364
499.364
499.363
499.363
499.362
499.362
499.362
499.361
499.361
499.36
499.36
499.359
499.359
499.359
499.358
499.358
499.357
499.357
499.357
499.356
499.356
499.355
499.355
499.354
499.354
499.354
499.353
499.353
499.352
499.352
499.351
499.351
499.35
499.35
499.35
499.349
499.349
499.348
499.348
499.347
499.347
499.346
499.346
499.345
499.345
499.344
499.344
499.343
499.343
499.342
499.342
499.341
499.341
499.34
499.34
499.339
499.339
499.338
499.338
499.337
499.337
499.336
499.336
499.335
499.335
499.334
499.334
499.333
499.332
499.332
499.331
499.331
499.33
499.33
499.329
499.329
499.328
499.327
499.327
499.326
499.326
499.325
499.325
499.324
499.323
499.323
499.322
499.322
499.321
499.32
499.32
499.319
499.319
499.318
499.317
499.317
499.316
499.315
499.315
499.314
499.313
499.313
499.312
499.312
499.311
499.31
499.31
499.309
499.308
499.308
499.307
499.306
499.305
499.305
499.304
499.303
499.303
499.302
499.301
499.301
499.3
499.299
499.298
499.298
499.297
499.296
499.295
499.295
499.294
499.293
499.292
499.292
499.291
499.29
499.289
499.288
499.288
499.287
499.286
499.285
499.284
499.284
499.283
499.282
499.281
499.28
499.279
499.278
499.278
499.277
499.276
499.275
499.274
499.273
499.272
499.271
499.271
499.27
499.269
499.268
499.267
499.266
499.265
499.264
499.263
499.262
499.261
499.26
499.259
499.258
499.257
499.256
499.255
499.254
499.253
499.252
499.251
499.25
499.249
499.248
499.247
499.246
499.245
499.243
499.242
499.241
499.24
499.239
499.238
499.237
499.236
499.234
499.233
499.232
499.231
499.23
499.228
499.227
499.226
499.225
499.224
499.222
499.221
499.22
499.218
499.217
499.216
499.215
499.213
499.212
499.211
499.209
499.208
499.206
499.205
499.204
499.202
499.201
499.199
499.198
499.196
499.195
499.193
499.192
499.19
499.189
499.187
499.186
499.184
499.183
499.181
499.179
499.178
499.176
499.174
499.173
499.171
499.169
499.168
499.166
499.164
499.162
499.161
499.159
499.157
499.155
499.153
499.151
499.15
499.148
499.146
499.144
499.142
499.14
499.138
499.136
499.134
499.132
499.13
499.127
499.125
499.123
499.121
499.119
499.117
499.114
499.112
499.11
499.107
499.105
499.103
499.1
499.098
499.095
499.093
499.09
499.088
499.085
499.083
499.08
499.077
499.075
499.072
499.069
499.067
499.064
499.061
499.058
499.055
499.052
499.049
499.046
499.043
499.04
499.037
499.034
499.03
499.027
499.024
499.021
499.017
499.014
499.01
499.007
499.003
499
498.996
498.992
498.988
498.985
498.981
498.977
498.973
498.969
498.965
498.96
498.956
498.952
498.948
498.943
498.939
498.934
498.929
498.925
498.92
498.915
498.91
498.905
498.9
498.895
498.89
498.884
498.879
498.873
498.868
498.862
498.856
498.85
498.844
498.838
498.832
498.825
498.819
498.812
498.806
498.799
498.792
498.784
498.777
498.77
498.762
498.754
498.746
498.738
498.729
498.72
498.711
498.702
498.692
498.682
498.672
498.661
498.649
498.637
498.624
498.611
498.596
498.581
498.565
498.548
498.531
498.512
498.492
498.471
498.45
498.427
498.403
498.378
498.353
498.327
498.3
498.272
498.244
498.216
498.187
498.158
498.129
498.099
498.07
498.041
498.011
497.982
497.952
497.923
497.893
497.863
497.832
497.801
497.769
497.736
497.702
497.666
497.63
497.591
497.552
497.509
497.467
497.421
497.376
497.326
497.276
497.224
497.166
497.105
497.034
496.955
496.856
496.739
496.586
496.402
496.155
495.859
495.453
494.98
494.337
493.613
492.642
491.574
490.171
488.655
486.736
484.682
482.156
479.489
476.294
472.96
469.081
465.07
460.53
455.872
450.73
445.516
439.878
434.208
428.234
422.239
416.113
409.973
403.841
397.751
391.782
385.882
)
;

boundaryField
{
    sides
    {
        type            calculated;
        value           nonuniform List<scalar> 2(380.285 -11.9582);
    }
    empty
    {
        type            empty;
        value           nonuniform 0();
    }
}


// ************************************************************************* //
