/*--------------------------------*- C++ -*----------------------------------*\
| =========                 |                                                 |
| \\      /  F ield         | OpenFOAM: The Open Source CFD Toolbox           |
|  \\    /   O peration     | Version:  3.0.0                                 |
|   \\  /    A nd           | Web:      www.OpenFOAM.org                      |
|    \\/     M anipulation  |                                                 |
\*---------------------------------------------------------------------------*/
FoamFile
{
    version     2.0;
    format      ascii;
    class       volScalarField;
    location    "0.017";
    object      T;
}
// * * * * * * * * * * * * * * * * * * * * * * * * * * * * * * * * * * * * * //

dimensions      [0 0 0 1 0 0 0];

internalField   nonuniform List<scalar> 
1000
(
299.736
299.809
299.841
299.843
299.836
299.823
299.81
299.797
299.785
299.772
299.759
299.747
299.733
299.72
299.707
299.694
299.68
299.666
299.652
299.638
299.624
299.61
299.595
299.581
299.566
299.551
299.536
299.521
299.506
299.491
299.475
299.459
299.443
299.427
299.411
299.395
299.378
299.362
299.345
299.328
299.311
299.294
299.276
299.258
299.241
299.223
299.205
299.186
299.168
299.149
299.131
299.112
299.093
299.073
299.054
299.034
299.014
298.994
298.974
298.953
298.933
298.912
298.891
298.87
298.848
298.827
298.805
298.783
298.761
298.738
298.715
298.692
298.669
298.646
298.622
298.598
298.574
298.55
298.525
298.501
298.475
298.45
298.424
298.399
298.372
298.346
298.319
298.292
298.265
298.237
298.21
298.181
298.153
298.124
298.095
298.065
298.036
298.006
297.975
297.944
297.913
297.881
297.849
297.817
297.784
297.751
297.717
297.683
297.649
297.614
297.578
297.543
297.506
297.469
297.432
297.394
297.356
297.317
297.277
297.237
297.196
297.155
297.113
297.07
297.027
296.983
296.938
296.892
296.846
296.799
296.751
296.702
296.653
296.602
296.551
296.498
296.445
296.39
296.335
296.278
296.221
296.162
296.102
296.041
295.978
295.914
295.849
295.783
295.715
295.646
295.575
295.502
295.428
295.353
295.276
295.197
295.116
295.034
294.95
294.864
294.776
294.686
294.594
294.5
294.405
294.307
294.207
294.105
294.002
293.896
293.788
293.677
293.565
293.451
293.335
293.216
293.096
292.973
292.849
292.722
292.594
292.463
292.331
292.197
292.061
291.923
291.784
291.643
291.501
291.357
291.211
291.064
290.916
290.767
290.616
290.464
290.312
290.157
290.004
289.846
289.692
289.531
289.379
289.213
289.063
288.89
288.747
288.564
288.431
288.236
288.113
287.906
287.792
287.578
287.467
287.253
287.136
286.932
286.801
286.614
286.464
286.294
286.13
285.97
285.8
285.642
285.473
285.311
285.147
284.981
284.819
284.653
284.49
284.326
284.161
283.998
283.833
283.67
283.506
283.342
283.178
283.014
282.85
282.687
282.523
282.359
282.196
282.032
281.869
281.706
281.542
281.379
281.216
281.053
280.89
280.727
280.564
280.401
280.238
280.075
279.912
279.749
279.587
279.424
279.262
279.099
278.937
278.774
278.612
278.45
278.288
278.125
277.963
277.801
277.639
277.477
277.316
277.154
276.992
276.83
276.669
276.507
276.346
276.184
276.023
275.862
275.701
275.539
275.378
275.217
275.056
274.895
274.734
274.574
274.413
274.252
274.092
273.931
273.771
273.61
273.45
273.29
273.129
272.969
272.809
272.649
272.489
272.329
272.17
272.01
271.85
271.691
271.531
271.372
271.212
271.053
270.894
270.735
270.576
270.416
270.258
270.099
269.94
269.781
269.623
269.464
269.306
269.147
268.989
268.831
268.672
268.514
268.356
268.198
268.041
267.883
267.725
267.568
267.41
267.253
267.095
266.938
266.781
266.624
266.467
266.31
266.153
265.997
265.84
265.684
265.527
265.371
265.215
265.059
264.903
264.747
264.591
264.436
264.28
264.125
263.969
263.814
263.659
263.504
263.349
263.195
263.04
262.886
262.731
262.577
262.423
262.269
262.115
261.962
261.808
261.655
261.502
261.349
261.196
261.043
260.89
260.738
260.586
260.434
260.282
260.13
259.978
259.827
259.676
259.525
259.374
259.224
259.073
258.923
258.773
258.624
258.474
258.325
258.176
258.027
257.879
257.73
257.583
257.435
257.288
257.14
256.994
256.847
256.701
256.555
256.41
256.265
256.12
255.976
255.832
255.688
255.545
255.402
255.26
255.118
254.977
254.836
254.696
254.556
254.417
254.278
254.14
254.002
253.865
253.729
253.593
253.458
253.324
253.19
253.058
252.926
252.795
252.664
252.535
252.406
252.279
252.152
252.027
251.902
251.779
251.657
251.536
251.416
251.297
251.18
251.064
250.949
250.836
250.725
250.615
250.506
250.399
250.294
250.191
250.089
249.989
249.892
249.796
249.702
249.61
249.521
249.433
249.348
249.265
249.184
249.106
249.03
248.956
248.885
248.816
248.75
248.687
248.625
248.567
248.511
248.457
248.406
248.358
248.312
248.268
248.227
248.188
248.152
248.117
248.085
248.056
248.028
248.002
247.978
247.956
247.936
247.917
247.9
247.885
247.87
247.858
247.846
247.836
247.826
247.818
247.81
247.804
247.798
247.793
247.788
247.784
247.781
247.778
247.775
247.773
247.771
247.769
247.768
247.767
247.766
247.765
247.764
247.764
247.763
247.763
247.762
247.762
247.762
247.762
247.762
247.762
247.762
247.762
247.762
247.762
247.762
247.762
247.763
247.763
247.763
247.763
247.763
247.763
247.763
247.764
247.764
247.764
247.764
247.764
247.764
247.765
247.765
247.765
247.765
247.765
247.766
247.766
247.766
247.766
247.766
247.766
247.767
247.767
247.767
247.767
247.767
247.768
247.768
247.768
247.768
247.768
247.769
247.769
247.769
247.769
247.769
247.77
247.77
247.77
247.77
247.77
247.771
247.771
247.771
247.771
247.771
247.772
247.772
247.772
247.772
247.773
247.773
247.773
247.773
247.773
247.774
247.774
247.774
247.774
247.775
247.775
247.775
247.775
247.776
247.776
247.776
247.776
247.777
247.777
247.777
247.777
247.778
247.778
247.778
247.778
247.779
247.779
247.779
247.78
247.78
247.78
247.78
247.781
247.781
247.781
247.781
247.782
247.782
247.782
247.783
247.783
247.783
247.783
247.784
247.784
247.784
247.785
247.785
247.785
247.785
247.786
247.786
247.786
247.787
247.787
247.787
247.788
247.788
247.788
247.789
247.789
247.789
247.789
247.79
247.79
247.79
247.791
247.791
247.791
247.792
247.792
247.792
247.793
247.793
247.793
247.794
247.794
247.795
247.795
247.795
247.796
247.796
247.796
247.797
247.797
247.797
247.798
247.798
247.798
247.799
247.799
247.8
247.8
247.8
247.801
247.801
247.802
247.802
247.802
247.803
247.803
247.804
247.804
247.804
247.805
247.805
247.806
247.806
247.807
247.807
247.807
247.808
247.808
247.809
247.809
247.81
247.81
247.81
247.811
247.811
247.812
247.812
247.813
247.813
247.814
247.814
247.815
247.815
247.816
247.816
247.817
247.817
247.818
247.818
247.819
247.819
247.82
247.82
247.821
247.821
247.822
247.822
247.823
247.823
247.824
247.825
247.825
247.826
247.826
247.827
247.827
247.828
247.829
247.829
247.83
247.83
247.831
247.832
247.832
247.833
247.833
247.834
247.835
247.835
247.836
247.837
247.837
247.838
247.839
247.839
247.84
247.841
247.841
247.842
247.843
247.843
247.844
247.845
247.846
247.846
247.847
247.848
247.849
247.849
247.85
247.851
247.852
247.852
247.853
247.854
247.855
247.856
247.856
247.857
247.858
247.859
247.86
247.861
247.862
247.862
247.863
247.864
247.865
247.866
247.867
247.868
247.869
247.87
247.871
247.872
247.873
247.874
247.875
247.876
247.877
247.878
247.879
247.88
247.881
247.882
247.883
247.884
247.885
247.886
247.887
247.889
247.89
247.891
247.892
247.893
247.894
247.896
247.897
247.898
247.899
247.901
247.902
247.903
247.905
247.906
247.907
247.909
247.91
247.911
247.913
247.914
247.916
247.917
247.919
247.92
247.922
247.923
247.925
247.926
247.928
247.93
247.931
247.933
247.935
247.936
247.938
247.94
247.942
247.943
247.945
247.947
247.949
247.951
247.953
247.955
247.957
247.959
247.961
247.963
247.965
247.967
247.969
247.971
247.974
247.976
247.978
247.981
247.983
247.985
247.988
247.99
247.993
247.996
247.998
248.001
248.004
248.006
248.009
248.012
248.015
248.018
248.021
248.024
248.027
248.03
248.034
248.037
248.04
248.044
248.047
248.051
248.055
248.059
248.062
248.067
248.071
248.075
248.08
248.085
248.09
248.095
248.101
248.107
248.114
248.121
248.129
248.138
248.147
248.158
248.169
248.182
248.196
248.211
248.228
248.246
248.266
248.288
248.311
248.336
248.363
248.391
248.42
248.452
248.484
248.517
248.551
248.586
248.621
248.656
248.691
248.726
248.76
248.793
248.825
248.857
248.887
248.917
248.945
248.972
248.998
249.023
249.047
249.072
249.094
249.119
249.14
249.165
249.186
249.213
249.232
249.262
249.28
249.314
249.331
249.368
249.389
249.432
249.459
249.514
249.555
249.636
249.702
249.832
249.939
250.15
250.324
250.663
250.931
251.454
251.852
252.631
253.196
254.306
255.077
256.599
257.611
259.62
260.907
263.468
265.055
268.216
270.122
273.911
276.132
280.549
283.073
288.082
290.883
296.443
299.423
305.515
308.479
315.171
317.749
326.013
)
;

boundaryField
{
    sides
    {
        type            zeroGradient;
    }
    empty
    {
        type            empty;
    }
}


// ************************************************************************* //
