/*--------------------------------*- C++ -*----------------------------------*\
| =========                 |                                                 |
| \\      /  F ield         | OpenFOAM: The Open Source CFD Toolbox           |
|  \\    /   O peration     | Version:  3.0.0                                 |
|   \\  /    A nd           | Web:      www.OpenFOAM.org                      |
|    \\/     M anipulation  |                                                 |
\*---------------------------------------------------------------------------*/
FoamFile
{
    version     2.0;
    format      ascii;
    class       volVectorField;
    location    "0.017";
    object      U;
}
// * * * * * * * * * * * * * * * * * * * * * * * * * * * * * * * * * * * * * //

dimensions      [0 1 -1 0 0 0 0];

internalField   nonuniform List<vector> 
1000
(
(4.36319 0 0)
(5.75465 0 0)
(6.55922 0 0)
(7.37895 0 0)
(8.25627 0 0)
(9.13557 0 0)
(10.0061 0 0)
(10.8751 0 0)
(11.7454 0 0)
(12.6163 0 0)
(13.4872 0 0)
(14.3581 0 0)
(15.2291 0 0)
(16.1002 0 0)
(16.9714 0 0)
(17.8427 0 0)
(18.7141 0 0)
(19.5856 0 0)
(20.4572 0 0)
(21.3288 0 0)
(22.2006 0 0)
(23.0724 0 0)
(23.9443 0 0)
(24.8163 0 0)
(25.6883 0 0)
(26.5604 0 0)
(27.4326 0 0)
(28.3048 0 0)
(29.1771 0 0)
(30.0494 0 0)
(30.9218 0 0)
(31.7942 0 0)
(32.6667 0 0)
(33.5392 0 0)
(34.4117 0 0)
(35.2843 0 0)
(36.1569 0 0)
(37.0294 0 0)
(37.902 0 0)
(38.7747 0 0)
(39.6473 0 0)
(40.5199 0 0)
(41.3925 0 0)
(42.2651 0 0)
(43.1376 0 0)
(44.0102 0 0)
(44.8827 0 0)
(45.7552 0 0)
(46.6277 0 0)
(47.5001 0 0)
(48.3724 0 0)
(49.2447 0 0)
(50.117 0 0)
(50.9891 0 0)
(51.8612 0 0)
(52.7332 0 0)
(53.6052 0 0)
(54.477 0 0)
(55.3487 0 0)
(56.2203 0 0)
(57.0918 0 0)
(57.9632 0 0)
(58.8344 0 0)
(59.7055 0 0)
(60.5765 0 0)
(61.4473 0 0)
(62.3179 0 0)
(63.1884 0 0)
(64.0587 0 0)
(64.9288 0 0)
(65.7987 0 0)
(66.6683 0 0)
(67.5378 0 0)
(68.407 0 0)
(69.276 0 0)
(70.1448 0 0)
(71.0133 0 0)
(71.8815 0 0)
(72.7494 0 0)
(73.617 0 0)
(74.4844 0 0)
(75.3514 0 0)
(76.218 0 0)
(77.0844 0 0)
(77.9503 0 0)
(78.8159 0 0)
(79.6811 0 0)
(80.546 0 0)
(81.4103 0 0)
(82.2743 0 0)
(83.1378 0 0)
(84.0008 0 0)
(84.8634 0 0)
(85.7254 0 0)
(86.587 0 0)
(87.448 0 0)
(88.3084 0 0)
(89.1682 0 0)
(90.0275 0 0)
(90.8861 0 0)
(91.7441 0 0)
(92.6014 0 0)
(93.458 0 0)
(94.3138 0 0)
(95.169 0 0)
(96.0233 0 0)
(96.8768 0 0)
(97.7295 0 0)
(98.5814 0 0)
(99.4323 0 0)
(100.282 0 0)
(101.131 0 0)
(101.979 0 0)
(102.826 0 0)
(103.672 0 0)
(104.517 0 0)
(105.36 0 0)
(106.203 0 0)
(107.044 0 0)
(107.884 0 0)
(108.722 0 0)
(109.559 0 0)
(110.395 0 0)
(111.229 0 0)
(112.061 0 0)
(112.892 0 0)
(113.721 0 0)
(114.548 0 0)
(115.374 0 0)
(116.197 0 0)
(117.019 0 0)
(117.838 0 0)
(118.655 0 0)
(119.47 0 0)
(120.283 0 0)
(121.093 0 0)
(121.901 0 0)
(122.706 0 0)
(123.509 0 0)
(124.309 0 0)
(125.106 0 0)
(125.9 0 0)
(126.69 0 0)
(127.478 0 0)
(128.262 0 0)
(129.043 0 0)
(129.82 0 0)
(130.594 0 0)
(131.364 0 0)
(132.13 0 0)
(132.892 0 0)
(133.649 0 0)
(134.403 0 0)
(135.152 0 0)
(135.896 0 0)
(136.636 0 0)
(137.371 0 0)
(138.102 0 0)
(138.827 0 0)
(139.547 0 0)
(140.262 0 0)
(140.972 0 0)
(141.676 0 0)
(142.375 0 0)
(143.069 0 0)
(143.756 0 0)
(144.438 0 0)
(145.114 0 0)
(145.784 0 0)
(146.449 0 0)
(147.107 0 0)
(147.759 0 0)
(148.406 0 0)
(149.046 0 0)
(149.681 0 0)
(150.31 0 0)
(150.932 0 0)
(151.549 0 0)
(152.16 0 0)
(152.766 0 0)
(153.365 0 0)
(153.959 0 0)
(154.548 0 0)
(155.131 0 0)
(155.709 0 0)
(156.282 0 0)
(156.85 0 0)
(157.414 0 0)
(157.972 0 0)
(158.526 0 0)
(159.076 0 0)
(159.621 0 0)
(160.163 0 0)
(160.701 0 0)
(161.235 0 0)
(161.766 0 0)
(162.293 0 0)
(162.818 0 0)
(163.339 0 0)
(163.858 0 0)
(164.374 0 0)
(164.887 0 0)
(165.399 0 0)
(165.908 0 0)
(166.416 0 0)
(166.921 0 0)
(167.425 0 0)
(167.927 0 0)
(168.428 0 0)
(168.928 0 0)
(169.426 0 0)
(169.924 0 0)
(170.42 0 0)
(170.915 0 0)
(171.41 0 0)
(171.904 0 0)
(172.397 0 0)
(172.889 0 0)
(173.381 0 0)
(173.873 0 0)
(174.364 0 0)
(174.854 0 0)
(175.345 0 0)
(175.835 0 0)
(176.324 0 0)
(176.814 0 0)
(177.303 0 0)
(177.792 0 0)
(178.281 0 0)
(178.769 0 0)
(179.258 0 0)
(179.746 0 0)
(180.235 0 0)
(180.723 0 0)
(181.211 0 0)
(181.699 0 0)
(182.187 0 0)
(182.675 0 0)
(183.163 0 0)
(183.65 0 0)
(184.138 0 0)
(184.626 0 0)
(185.113 0 0)
(185.601 0 0)
(186.088 0 0)
(186.576 0 0)
(187.063 0 0)
(187.551 0 0)
(188.038 0 0)
(188.526 0 0)
(189.013 0 0)
(189.5 0 0)
(189.988 0 0)
(190.475 0 0)
(190.962 0 0)
(191.449 0 0)
(191.937 0 0)
(192.424 0 0)
(192.911 0 0)
(193.398 0 0)
(193.885 0 0)
(194.372 0 0)
(194.859 0 0)
(195.346 0 0)
(195.833 0 0)
(196.32 0 0)
(196.807 0 0)
(197.294 0 0)
(197.78 0 0)
(198.267 0 0)
(198.754 0 0)
(199.241 0 0)
(199.727 0 0)
(200.214 0 0)
(200.701 0 0)
(201.187 0 0)
(201.674 0 0)
(202.16 0 0)
(202.647 0 0)
(203.133 0 0)
(203.619 0 0)
(204.106 0 0)
(204.592 0 0)
(205.078 0 0)
(205.564 0 0)
(206.051 0 0)
(206.537 0 0)
(207.023 0 0)
(207.509 0 0)
(207.995 0 0)
(208.481 0 0)
(208.967 0 0)
(209.452 0 0)
(209.938 0 0)
(210.424 0 0)
(210.91 0 0)
(211.395 0 0)
(211.881 0 0)
(212.366 0 0)
(212.852 0 0)
(213.337 0 0)
(213.823 0 0)
(214.308 0 0)
(214.793 0 0)
(215.278 0 0)
(215.763 0 0)
(216.248 0 0)
(216.733 0 0)
(217.218 0 0)
(217.703 0 0)
(218.188 0 0)
(218.673 0 0)
(219.157 0 0)
(219.642 0 0)
(220.126 0 0)
(220.611 0 0)
(221.095 0 0)
(221.579 0 0)
(222.063 0 0)
(222.547 0 0)
(223.031 0 0)
(223.515 0 0)
(223.999 0 0)
(224.483 0 0)
(224.967 0 0)
(225.45 0 0)
(225.934 0 0)
(226.417 0 0)
(226.9 0 0)
(227.383 0 0)
(227.866 0 0)
(228.349 0 0)
(228.832 0 0)
(229.315 0 0)
(229.797 0 0)
(230.28 0 0)
(230.762 0 0)
(231.245 0 0)
(231.727 0 0)
(232.209 0 0)
(232.691 0 0)
(233.172 0 0)
(233.654 0 0)
(234.135 0 0)
(234.617 0 0)
(235.098 0 0)
(235.579 0 0)
(236.06 0 0)
(236.541 0 0)
(237.021 0 0)
(237.502 0 0)
(237.982 0 0)
(238.462 0 0)
(238.942 0 0)
(239.422 0 0)
(239.901 0 0)
(240.381 0 0)
(240.86 0 0)
(241.339 0 0)
(241.817 0 0)
(242.296 0 0)
(242.774 0 0)
(243.252 0 0)
(243.73 0 0)
(244.208 0 0)
(244.685 0 0)
(245.163 0 0)
(245.64 0 0)
(246.116 0 0)
(246.593 0 0)
(247.069 0 0)
(247.545 0 0)
(248.02 0 0)
(248.496 0 0)
(248.97 0 0)
(249.445 0 0)
(249.92 0 0)
(250.394 0 0)
(250.867 0 0)
(251.341 0 0)
(251.814 0 0)
(252.286 0 0)
(252.758 0 0)
(253.23 0 0)
(253.702 0 0)
(254.173 0 0)
(254.643 0 0)
(255.113 0 0)
(255.583 0 0)
(256.052 0 0)
(256.521 0 0)
(256.989 0 0)
(257.457 0 0)
(257.924 0 0)
(258.391 0 0)
(258.857 0 0)
(259.323 0 0)
(259.788 0 0)
(260.252 0 0)
(260.715 0 0)
(261.178 0 0)
(261.641 0 0)
(262.102 0 0)
(262.563 0 0)
(263.023 0 0)
(263.482 0 0)
(263.941 0 0)
(264.399 0 0)
(264.855 0 0)
(265.311 0 0)
(265.766 0 0)
(266.22 0 0)
(266.673 0 0)
(267.125 0 0)
(267.576 0 0)
(268.026 0 0)
(268.474 0 0)
(268.922 0 0)
(269.368 0 0)
(269.812 0 0)
(270.256 0 0)
(270.698 0 0)
(271.139 0 0)
(271.578 0 0)
(272.016 0 0)
(272.452 0 0)
(272.886 0 0)
(273.318 0 0)
(273.749 0 0)
(274.178 0 0)
(274.605 0 0)
(275.03 0 0)
(275.453 0 0)
(275.874 0 0)
(276.292 0 0)
(276.708 0 0)
(277.122 0 0)
(277.533 0 0)
(277.941 0 0)
(278.347 0 0)
(278.749 0 0)
(279.149 0 0)
(279.546 0 0)
(279.94 0 0)
(280.33 0 0)
(280.717 0 0)
(281.1 0 0)
(281.479 0 0)
(281.855 0 0)
(282.227 0 0)
(282.594 0 0)
(282.958 0 0)
(283.317 0 0)
(283.671 0 0)
(284.02 0 0)
(284.365 0 0)
(284.704 0 0)
(285.039 0 0)
(285.367 0 0)
(285.691 0 0)
(286.008 0 0)
(286.32 0 0)
(286.625 0 0)
(286.924 0 0)
(287.217 0 0)
(287.503 0 0)
(287.783 0 0)
(288.055 0 0)
(288.321 0 0)
(288.579 0 0)
(288.83 0 0)
(289.073 0 0)
(289.309 0 0)
(289.537 0 0)
(289.758 0 0)
(289.97 0 0)
(290.175 0 0)
(290.371 0 0)
(290.56 0 0)
(290.741 0 0)
(290.913 0 0)
(291.078 0 0)
(291.235 0 0)
(291.384 0 0)
(291.525 0 0)
(291.658 0 0)
(291.784 0 0)
(291.903 0 0)
(292.014 0 0)
(292.118 0 0)
(292.215 0 0)
(292.306 0 0)
(292.39 0 0)
(292.469 0 0)
(292.541 0 0)
(292.607 0 0)
(292.668 0 0)
(292.725 0 0)
(292.776 0 0)
(292.822 0 0)
(292.865 0 0)
(292.903 0 0)
(292.938 0 0)
(292.969 0 0)
(292.997 0 0)
(293.022 0 0)
(293.045 0 0)
(293.065 0 0)
(293.082 0 0)
(293.098 0 0)
(293.112 0 0)
(293.124 0 0)
(293.134 0 0)
(293.144 0 0)
(293.152 0 0)
(293.159 0 0)
(293.165 0 0)
(293.17 0 0)
(293.174 0 0)
(293.178 0 0)
(293.182 0 0)
(293.184 0 0)
(293.187 0 0)
(293.189 0 0)
(293.191 0 0)
(293.192 0 0)
(293.193 0 0)
(293.195 0 0)
(293.195 0 0)
(293.196 0 0)
(293.197 0 0)
(293.197 0 0)
(293.198 0 0)
(293.198 0 0)
(293.199 0 0)
(293.199 0 0)
(293.199 0 0)
(293.199 0 0)
(293.2 0 0)
(293.2 0 0)
(293.2 0 0)
(293.2 0 0)
(293.2 0 0)
(293.2 0 0)
(293.2 0 0)
(293.2 0 0)
(293.2 0 0)
(293.2 0 0)
(293.201 0 0)
(293.201 0 0)
(293.201 0 0)
(293.201 0 0)
(293.201 0 0)
(293.201 0 0)
(293.201 0 0)
(293.201 0 0)
(293.201 0 0)
(293.201 0 0)
(293.201 0 0)
(293.201 0 0)
(293.201 0 0)
(293.201 0 0)
(293.201 0 0)
(293.201 0 0)
(293.201 0 0)
(293.201 0 0)
(293.201 0 0)
(293.202 0 0)
(293.202 0 0)
(293.202 0 0)
(293.202 0 0)
(293.202 0 0)
(293.202 0 0)
(293.202 0 0)
(293.202 0 0)
(293.202 0 0)
(293.202 0 0)
(293.202 0 0)
(293.202 0 0)
(293.202 0 0)
(293.202 0 0)
(293.202 0 0)
(293.202 0 0)
(293.202 0 0)
(293.202 0 0)
(293.203 0 0)
(293.203 0 0)
(293.203 0 0)
(293.203 0 0)
(293.203 0 0)
(293.203 0 0)
(293.203 0 0)
(293.203 0 0)
(293.203 0 0)
(293.203 0 0)
(293.203 0 0)
(293.203 0 0)
(293.203 0 0)
(293.203 0 0)
(293.203 0 0)
(293.203 0 0)
(293.203 0 0)
(293.203 0 0)
(293.203 0 0)
(293.203 0 0)
(293.203 0 0)
(293.203 0 0)
(293.203 0 0)
(293.203 0 0)
(293.203 0 0)
(293.203 0 0)
(293.203 0 0)
(293.203 0 0)
(293.203 0 0)
(293.203 0 0)
(293.203 0 0)
(293.203 0 0)
(293.203 0 0)
(293.203 0 0)
(293.203 0 0)
(293.203 0 0)
(293.203 0 0)
(293.203 0 0)
(293.203 0 0)
(293.203 0 0)
(293.203 0 0)
(293.203 0 0)
(293.203 0 0)
(293.203 0 0)
(293.203 0 0)
(293.203 0 0)
(293.203 0 0)
(293.203 0 0)
(293.203 0 0)
(293.203 0 0)
(293.203 0 0)
(293.203 0 0)
(293.203 0 0)
(293.203 0 0)
(293.203 0 0)
(293.203 0 0)
(293.203 0 0)
(293.203 0 0)
(293.203 0 0)
(293.203 0 0)
(293.203 0 0)
(293.203 0 0)
(293.204 0 0)
(293.204 0 0)
(293.204 0 0)
(293.204 0 0)
(293.204 0 0)
(293.204 0 0)
(293.204 0 0)
(293.204 0 0)
(293.204 0 0)
(293.204 0 0)
(293.204 0 0)
(293.204 0 0)
(293.204 0 0)
(293.204 0 0)
(293.204 0 0)
(293.204 0 0)
(293.204 0 0)
(293.204 0 0)
(293.204 0 0)
(293.204 0 0)
(293.204 0 0)
(293.204 0 0)
(293.204 0 0)
(293.204 0 0)
(293.204 0 0)
(293.204 0 0)
(293.204 0 0)
(293.204 0 0)
(293.204 0 0)
(293.204 0 0)
(293.204 0 0)
(293.204 0 0)
(293.204 0 0)
(293.204 0 0)
(293.204 0 0)
(293.204 0 0)
(293.204 0 0)
(293.204 0 0)
(293.204 0 0)
(293.204 0 0)
(293.204 0 0)
(293.204 0 0)
(293.204 0 0)
(293.204 0 0)
(293.204 0 0)
(293.204 0 0)
(293.204 0 0)
(293.204 0 0)
(293.204 0 0)
(293.204 0 0)
(293.204 0 0)
(293.204 0 0)
(293.204 0 0)
(293.204 0 0)
(293.204 0 0)
(293.204 0 0)
(293.204 0 0)
(293.204 0 0)
(293.204 0 0)
(293.204 0 0)
(293.204 0 0)
(293.204 0 0)
(293.204 0 0)
(293.204 0 0)
(293.205 0 0)
(293.205 0 0)
(293.205 0 0)
(293.205 0 0)
(293.205 0 0)
(293.205 0 0)
(293.205 0 0)
(293.205 0 0)
(293.205 0 0)
(293.205 0 0)
(293.205 0 0)
(293.205 0 0)
(293.205 0 0)
(293.205 0 0)
(293.205 0 0)
(293.205 0 0)
(293.205 0 0)
(293.205 0 0)
(293.205 0 0)
(293.205 0 0)
(293.205 0 0)
(293.205 0 0)
(293.205 0 0)
(293.205 0 0)
(293.205 0 0)
(293.205 0 0)
(293.205 0 0)
(293.205 0 0)
(293.205 0 0)
(293.205 0 0)
(293.205 0 0)
(293.205 0 0)
(293.205 0 0)
(293.205 0 0)
(293.205 0 0)
(293.205 0 0)
(293.205 0 0)
(293.205 0 0)
(293.205 0 0)
(293.205 0 0)
(293.205 0 0)
(293.205 0 0)
(293.205 0 0)
(293.205 0 0)
(293.205 0 0)
(293.205 0 0)
(293.205 0 0)
(293.205 0 0)
(293.205 0 0)
(293.205 0 0)
(293.205 0 0)
(293.205 0 0)
(293.205 0 0)
(293.205 0 0)
(293.205 0 0)
(293.205 0 0)
(293.205 0 0)
(293.205 0 0)
(293.205 0 0)
(293.205 0 0)
(293.205 0 0)
(293.205 0 0)
(293.205 0 0)
(293.205 0 0)
(293.205 0 0)
(293.205 0 0)
(293.205 0 0)
(293.205 0 0)
(293.205 0 0)
(293.205 0 0)
(293.205 0 0)
(293.205 0 0)
(293.205 0 0)
(293.205 0 0)
(293.205 0 0)
(293.205 0 0)
(293.205 0 0)
(293.205 0 0)
(293.205 0 0)
(293.205 0 0)
(293.205 0 0)
(293.205 0 0)
(293.205 0 0)
(293.205 0 0)
(293.205 0 0)
(293.205 0 0)
(293.205 0 0)
(293.205 0 0)
(293.205 0 0)
(293.205 0 0)
(293.205 0 0)
(293.205 0 0)
(293.205 0 0)
(293.205 0 0)
(293.205 0 0)
(293.205 0 0)
(293.205 0 0)
(293.205 0 0)
(293.205 0 0)
(293.205 0 0)
(293.205 0 0)
(293.205 0 0)
(293.205 0 0)
(293.205 0 0)
(293.205 0 0)
(293.205 0 0)
(293.205 0 0)
(293.205 0 0)
(293.205 0 0)
(293.205 0 0)
(293.205 0 0)
(293.205 0 0)
(293.205 0 0)
(293.205 0 0)
(293.205 0 0)
(293.205 0 0)
(293.205 0 0)
(293.205 0 0)
(293.205 0 0)
(293.205 0 0)
(293.205 0 0)
(293.205 0 0)
(293.205 0 0)
(293.205 0 0)
(293.205 0 0)
(293.205 0 0)
(293.205 0 0)
(293.205 0 0)
(293.205 0 0)
(293.205 0 0)
(293.205 0 0)
(293.205 0 0)
(293.205 0 0)
(293.205 0 0)
(293.205 0 0)
(293.205 0 0)
(293.205 0 0)
(293.205 0 0)
(293.205 0 0)
(293.205 0 0)
(293.205 0 0)
(293.205 0 0)
(293.205 0 0)
(293.205 0 0)
(293.205 0 0)
(293.205 0 0)
(293.205 0 0)
(293.205 0 0)
(293.205 0 0)
(293.205 0 0)
(293.205 0 0)
(293.205 0 0)
(293.205 0 0)
(293.205 0 0)
(293.205 0 0)
(293.205 0 0)
(293.205 0 0)
(293.205 0 0)
(293.205 0 0)
(293.205 0 0)
(293.205 0 0)
(293.205 0 0)
(293.205 0 0)
(293.205 0 0)
(293.205 0 0)
(293.205 0 0)
(293.205 0 0)
(293.205 0 0)
(293.205 0 0)
(293.205 0 0)
(293.205 0 0)
(293.205 0 0)
(293.205 0 0)
(293.205 0 0)
(293.205 0 0)
(293.205 0 0)
(293.205 0 0)
(293.205 0 0)
(293.205 0 0)
(293.205 0 0)
(293.205 0 0)
(293.205 0 0)
(293.205 0 0)
(293.205 0 0)
(293.204 0 0)
(293.204 0 0)
(293.204 0 0)
(293.203 0 0)
(293.202 0 0)
(293.202 0 0)
(293.2 0 0)
(293.199 0 0)
(293.197 0 0)
(293.195 0 0)
(293.191 0 0)
(293.188 0 0)
(293.183 0 0)
(293.177 0 0)
(293.169 0 0)
(293.16 0 0)
(293.149 0 0)
(293.136 0 0)
(293.12 0 0)
(293.101 0 0)
(293.08 0 0)
(293.054 0 0)
(293.025 0 0)
(292.992 0 0)
(292.955 0 0)
(292.913 0 0)
(292.866 0 0)
(292.814 0 0)
(292.758 0 0)
(292.697 0 0)
(292.632 0 0)
(292.562 0 0)
(292.489 0 0)
(292.412 0 0)
(292.333 0 0)
(292.252 0 0)
(292.17 0 0)
(292.087 0 0)
(292.005 0 0)
(291.924 0 0)
(291.845 0 0)
(291.768 0 0)
(291.695 0 0)
(291.626 0 0)
(291.561 0 0)
(291.501 0 0)
(291.446 0 0)
(291.396 0 0)
(291.351 0 0)
(291.311 0 0)
(291.276 0 0)
(291.245 0 0)
(291.219 0 0)
(291.196 0 0)
(291.178 0 0)
(291.162 0 0)
(291.15 0 0)
(291.139 0 0)
(291.131 0 0)
(291.125 0 0)
(291.12 0 0)
(291.116 0 0)
(291.113 0 0)
(291.111 0 0)
(291.109 0 0)
(291.108 0 0)
(291.108 0 0)
(291.107 0 0)
(291.107 0 0)
(291.107 0 0)
(291.107 0 0)
(291.107 0 0)
(291.107 0 0)
(291.108 0 0)
(291.108 0 0)
(291.109 0 0)
(291.108 0 0)
(291.108 0 0)
(291.108 0 0)
(291.11 0 0)
(291.109 0 0)
(291.109 0 0)
(291.107 0 0)
(291.108 0 0)
(291.107 0 0)
(291.107 0 0)
(291.106 0 0)
(291.106 0 0)
(291.104 0 0)
(291.103 0 0)
(291.102 0 0)
(291.101 0 0)
(291.097 0 0)
(291.094 0 0)
(291.091 0 0)
(291.085 0 0)
(291.084 0 0)
(291.076 0 0)
(291.058 0 0)
(291.044 0 0)
(291.047 0 0)
(291.052 0 0)
(291.07 0 0)
(291.148 0 0)
(291.25 0 0)
)
;

boundaryField
{
    sides
    {
        type            zeroGradient;
    }
    empty
    {
        type            empty;
    }
}


// ************************************************************************* //
