/*--------------------------------*- C++ -*----------------------------------*\
| =========                 |                                                 |
| \\      /  F ield         | OpenFOAM: The Open Source CFD Toolbox           |
|  \\    /   O peration     | Version:  3.0.0                                 |
|   \\  /    A nd           | Web:      www.OpenFOAM.org                      |
|    \\/     M anipulation  |                                                 |
\*---------------------------------------------------------------------------*/
FoamFile
{
    version     2.0;
    format      ascii;
    class       surfaceScalarField;
    location    "0.25";
    object      phi;
}
// * * * * * * * * * * * * * * * * * * * * * * * * * * * * * * * * * * * * * //

dimensions      [0 3 -1 0 0 0 0];

internalField   nonuniform List<scalar> 
11520
(
-8.35664e-05
4.83041e-05
-9.70269e-06
-5.61478e-05
3.9995e-05
-1.54894e-05
-2.86795e-05
4.02855e-05
-1.5725e-05
-5.30319e-06
4.87393e-05
-1.02326e-05
1.03607e-05
6.39458e-05
2.33094e-07
1.58282e-05
8.36335e-05
1.40957e-05
1.02101e-05
0.000104875
2.9176e-05
-5.61386e-06
0.000124457
4.30615e-05
-2.91405e-05
0.000139348
5.35433e-05
-5.66788e-05
0.000147179
5.90079e-05
-8.39753e-05
0.000146665
5.86929e-05
-0.000106895
0.000137846
5.27583e-05
-0.000122037
0.000122095
4.21922e-05
-0.000127216
0.000101868
2.86092e-05
-0.000121804
8.03488e-05
1.40228e-05
6.09939e-05
7.09141e-07
-6.79411e-05
3.76566e-05
-4.51967e-06
-4.41379e-05
3.07875e-05
-1.59633e-05
-1.9324e-05
3.24337e-05
-2.22387e-05
2.82501e-06
4.20546e-05
-2.23163e-05
1.89281e-05
5.81269e-05
-1.61131e-05
2.6478e-05
7.82838e-05
-4.53352e-06
2.42664e-05
9.95423e-05
1.06288e-05
1.26051e-05
0.000118678
2.69784e-05
-6.70646e-06
0.000132704
4.19306e-05
-3.06673e-05
0.000139356
5.31614e-05
-5.55708e-05
0.000137518
5.89894e-05
-7.76029e-05
0.000127449
5.86119e-05
-9.34428e-05
0.000110745
5.21713e-05
-0.000100763
9.00469e-05
4.06776e-05
-9.85682e-05
6.86314e-05
2.58559e-05
4.9961e-05
1.00447e-05
-4.76081e-05
2.35194e-05
-3.87698e-06
-2.76676e-05
1.75074e-05
-2.03976e-05
-5.4756e-06
1.93019e-05
-3.20074e-05
1.56926e-05
2.84747e-05
-3.68654e-05
3.2634e-05
4.363e-05
-3.41753e-05
4.27569e-05
6.25669e-05
-2.43144e-05
4.45e-05
8.25049e-05
-8.80522e-06
3.75733e-05
0.000100439
9.92644e-06
2.30184e-05
0.000113566
2.89565e-05
3.05715e-06
0.000119752
4.53482e-05
-1.92557e-05
0.000117933
5.66216e-05
-4.05074e-05
0.000108354
6.11207e-05
-5.74671e-05
9.25464e-05
5.82249e-05
-6.75905e-05
7.30427e-05
4.83988e-05
-6.93785e-05
5.2939e-05
3.31179e-05
3.54396e-05
1.47821e-05
-2.58197e-05
8.24066e-06
-7.8198e-06
-9.2779e-06
2.28848e-06
-2.81065e-05
1.08063e-05
2.98421e-06
-4.35473e-05
3.14571e-05
1.0152e-05
-5.16893e-05
4.95693e-05
2.27318e-05
-5.12486e-05
6.24244e-05
3.89118e-05
-4.22849e-05
6.80821e-05
5.6357e-05
-2.61927e-05
6.56692e-05
7.24734e-05
-5.46914e-06
5.55149e-05
8.47664e-05
1.66889e-05
3.912e-05
9.12405e-05
3.68935e-05
1.89526e-05
9.07717e-05
5.20908e-05
-1.91391e-06
8.33692e-05
6.00108e-05
-2.02829e-05
7.02098e-05
5.94832e-05
-3.33497e-05
5.34302e-05
5.05917e-05
-3.91025e-05
3.5703e-05
3.46505e-05
1.97755e-05
1.40908e-05
-6.07927e-06
-5.78118e-06
-1.56964e-05
8.09547e-06
-1.25157e-05
-3.79455e-05
2.69436e-05
-1.39929e-05
-5.51642e-05
4.76419e-05
-1.00679e-05
-6.45917e-05
6.70838e-05
-1.31055e-06
-6.47697e-05
8.23938e-05
1.09994e-05
-5.56983e-05
9.12842e-05
2.5164e-05
-3.88144e-05
9.24051e-05
3.91189e-05
-1.67282e-05
8.5538e-05
5.07495e-05
7.18291e-06
7.16469e-05
5.8195e-05
2.93059e-05
5.27905e-05
6.01692e-05
4.6311e-05
3.18292e-05
5.62663e-05
5.56495e-05
1.19909e-05
4.70867e-05
5.59084e-05
-3.659e-06
3.41444e-05
4.70182e-05
-1.26824e-05
1.9527e-05
3.02494e-05
5.44432e-06
8.03795e-06
8.44628e-06
-1.6469e-05
-2.63703e-05
2.16637e-05
-2.46821e-05
-4.85497e-05
4.03432e-05
-2.90463e-05
-6.52305e-05
6.16433e-05
-2.90773e-05
-7.37275e-05
8.23824e-05
-2.48077e-05
-7.27456e-05
9.94736e-05
-1.68284e-05
-6.25144e-05
0.000110392
-6.20583e-06
-4.46673e-05
0.000113488
5.58923e-06
-2.19707e-05
0.000108252
1.68267e-05
2.11312e-06
9.53794e-05
2.57394e-05
2.40172e-05
7.67676e-05
3.08232e-05
4.04421e-05
5.523e-05
3.11547e-05
4.89487e-05
3.40864e-05
2.66337e-05
4.82286e-05
1.66213e-05
1.80349e-05
3.83232e-05
5.56067e-06
6.79853e-06
2.05964e-05
-5.36773e-06
-2.50578e-06
1.54308e-05
-2.23594e-05
-3.84067e-05
2.92503e-05
-3.24215e-05
-5.84899e-05
4.88615e-05
-3.99203e-05
-7.23759e-05
7.1249e-05
-4.39984e-05
-7.78314e-05
9.30445e-05
-4.41395e-05
-7.40495e-05
0.000111002
-4.02889e-05
-6.17157e-05
0.000122456
-3.28932e-05
-4.28197e-05
0.000125685
-2.29032e-05
-2.03018e-05
0.000120166
-1.1725e-05
2.41818e-06
0.000106658
-1.08224e-06
2.19984e-05
8.71533e-05
7.267e-06
3.5544e-05
6.46e-05
1.18737e-05
4.106e-05
4.24656e-05
1.19362e-05
3.76854e-05
2.41855e-05
7.49629e-06
2.5829e-05
1.26094e-05
-6.19255e-07
7.09746e-06
-1.10922e-05
-1.60024e-05
1.3778e-05
-2.26956e-05
-5.01823e-05
2.96688e-05
-3.46185e-05
-6.63808e-05
5.11739e-05
-4.50041e-05
-7.55931e-05
7.49783e-05
-5.26021e-05
-7.63244e-05
9.74751e-05
-5.64058e-05
-6.84992e-05
0.000115289
-5.58305e-05
-5.34358e-05
0.000125756
-5.08367e-05
-3.35637e-05
0.000127304
-4.19986e-05
-1.19892e-05
0.000119677
-3.05184e-05
8.02179e-06
0.000103977
-1.81349e-05
2.35443e-05
8.25547e-05
-6.86269e-06
3.23347e-05
5.86442e-05
1.40133e-06
3.31397e-05
3.59119e-05
5.25723e-06
2.58141e-05
1.78647e-05
4.13934e-06
1.13423e-05
7.33002e-06
-1.60645e-06
-8.31088e-06
-1.09572e-05
-3.04583e-05
3.80011e-06
-1.74858e-05
-6.00022e-05
2.29092e-05
-3.09572e-05
-7.10187e-05
4.69879e-05
-4.35533e-05
-7.43452e-05
7.234e-05
-5.36273e-05
-6.93771e-05
9.51007e-05
-5.98057e-05
-5.68976e-05
0.000111825
-6.11656e-05
-3.89316e-05
0.000119988
-5.73883e-05
-1.83589e-05
0.000118355
-4.88702e-05
1.597e-06
0.000107161
-3.67518e-05
1.79165e-05
8.80795e-05
-2.28492e-05
2.82257e-05
6.39916e-05
-9.39702e-06
3.11047e-05
3.85545e-05
1.37743e-06
2.62071e-05
1.56507e-05
7.68179e-06
1.42562e-05
-1.198e-06
8.55228e-06
-3.05913e-06
-9.356e-06
4.01809e-06
-2.33173e-05
-5.05827e-06
-4.36812e-05
-1.28806e-05
-7.45242e-06
-6.63098e-05
1.01073e-05
-2.19722e-05
-7.15621e-05
3.705e-05
-3.57858e-05
-6.8674e-05
6.38502e-05
-4.6946e-05
-5.79174e-05
8.64067e-05
-5.38803e-05
-4.09276e-05
0.000101279
-5.55732e-05
-2.03951e-05
0.00010619
-5.16746e-05
4.15594e-07
0.00010039
-4.26021e-05
1.82465e-05
8.4742e-05
-2.9592e-05
3.03859e-05
6.16221e-05
-1.45881e-05
3.50926e-05
3.45491e-05
1.69984e-08
3.17955e-05
7.64882e-06
1.18391e-05
2.10907e-05
-1.49765e-05
1.89148e-05
4.60755e-06
-2.98629e-05
2.01549e-05
-1.52703e-05
-3.46796e-05
1.54825e-05
-3.56781e-05
5.71232e-06
-5.36061e-05
-3.36323e-05
6.02795e-06
-6.79525e-05
-6.70159e-06
-8.95854e-06
-6.77476e-05
2.29674e-05
-2.28611e-05
-5.92794e-05
5.08872e-05
-3.3567e-05
-4.35676e-05
7.27882e-05
-3.95531e-05
-2.2948e-05
8.53064e-05
-3.99566e-05
-6.31529e-07
8.65017e-05
-3.46367e-05
1.98651e-05
7.61607e-05
-2.42479e-05
3.53303e-05
5.58434e-05
-1.02336e-05
4.34031e-05
2.86537e-05
5.30516e-06
4.29431e-05
-1.24889e-06
1.99076e-05
3.41508e-05
-2.92891e-05
3.11875e-05
1.8471e-05
-5.11831e-05
3.72864e-05
-1.72236e-06
-6.35949e-05
3.72439e-05
-2.34227e-05
-6.4595e-05
3.11127e-05
-4.34299e-05
1.97911e-05
-5.86443e-05
-5.5279e-05
2.10527e-05
-6.44678e-05
-2.4935e-05
6.15624e-06
-6.00208e-05
6.8981e-06
-6.70078e-06
-4.75152e-05
3.54278e-05
-1.5493e-05
-2.847e-05
5.62948e-05
-1.89771e-05
-5.67805e-06
6.62793e-05
-1.66772e-05
1.73543e-05
6.38007e-05
-8.87593e-06
3.70248e-05
4.91901e-05
3.37934e-06
5.02488e-05
2.46595e-05
1.83463e-05
5.49918e-05
-6.02675e-06
3.37682e-05
5.05949e-05
-3.81484e-05
4.72068e-05
3.78413e-05
-6.67713e-05
5.64618e-05
1.87669e-05
-8.75226e-05
5.99945e-05
-3.69909e-06
-9.72563e-05
5.72226e-05
-2.61756e-05
-9.45029e-05
4.85559e-05
-4.52866e-05
3.51386e-05
-5.79719e-05
-7.46081e-05
3.53833e-05
-5.62828e-05
-4.18881e-05
2.10832e-05
-4.95636e-05
-8.78268e-06
1.0255e-05
-3.52208e-05
1.97388e-05
4.56351e-06
-1.49841e-05
3.93263e-05
4.77328e-06
8.20437e-06
4.69408e-05
1.07932e-05
3.08113e-05
4.13411e-05
2.17678e-05
4.93259e-05
2.33258e-05
3.61559e-05
6.08277e-05
-4.36339e-06
5.18645e-05
6.35301e-05
-3.74614e-05
6.65117e-05
5.70575e-05
-7.0851e-05
7.77743e-05
4.24871e-05
-9.93891e-05
8.37946e-05
2.21335e-05
-0.000118716
8.35386e-05
-8.54727e-07
-0.000125924
7.69983e-05
-2.2983e-05
-0.000120007
6.51277e-05
-4.08949e-05
4.94897e-05
-5.16882e-05
-8.88388e-05
4.67435e-05
-4.47114e-05
-5.51229e-05
3.34895e-05
-3.8105e-05
-2.1817e-05
2.53976e-05
-2.44206e-05
6.08546e-06
2.3563e-05
-5.29933e-06
2.43389e-05
2.81335e-05
1.64974e-05
3.0093e-05
3.83638e-05
3.7675e-05
2.23765e-05
5.27614e-05
5.49487e-05
2.30943e-06
6.92432e-05
6.5592e-05
-2.70487e-05
8.53733e-05
6.79219e-05
-6.11498e-05
9.86807e-05
6.15887e-05
-9.47005e-05
0.000107039
4.76308e-05
-0.000122521
0.000109047
2.82737e-05
-0.000140364
0.000104303
6.53767e-06
-0.000145577
9.34894e-05
-1.42493e-05
-0.000137539
7.82285e-05
-3.09234e-05
6.06384e-05
-4.08012e-05
-9.59518e-05
5.31916e-05
-3.16534e-05
-6.27411e-05
4.13775e-05
-2.75395e-05
-3.03265e-05
3.63646e-05
-1.68947e-05
-3.54814e-06
3.85985e-05
-9.95276e-07
1.35295e-05
4.75749e-05
1.78778e-05
1.82262e-05
6.19089e-05
3.68967e-05
9.72014e-06
7.94948e-05
5.31187e-05
-1.07587e-05
9.77442e-05
6.39768e-05
-4.00802e-05
0.000113917
6.77317e-05
-7.36855e-05
0.000125498
6.37863e-05
-0.000106336
0.000130613
5.27948e-05
-0.000132976
0.00012837
3.65317e-05
-0.000149542
0.000119049
1.75635e-05
-0.000153599
0.000104061
-1.18001e-06
-0.000144767
8.57179e-05
-1.68524e-05
6.67418e-05
-2.6962e-05
-9.48204e-05
-1.9093e-05
-6.35388e-05
-1.94588e-05
-3.2987e-05
-1.37681e-05
-7.68577e-06
-2.67735e-06
8.54619e-06
1.22183e-05
1.3146e-05
2.87351e-05
5.285e-06
4.43341e-05
-1.39289e-05
5.65568e-05
-4.15623e-05
6.34412e-05
-7.3303e-05
6.38808e-05
-0.000104172
5.78279e-05
-0.000129364
4.62888e-05
-0.000145038
3.11196e-05
-0.000148917
1.4688e-05
-0.000140681
-4.95524e-07
-1.20277e-05
-8.00243e-05
2.03164e-05
-2.55811e-05
-5.91338e-05
1.19635e-05
-3.58713e-05
-3.8389e-05
1.4048e-05
-3.82081e-05
-2.09175e-05
2.59831e-05
-3.19681e-05
-9.41066e-06
4.58991e-05
-1.79578e-05
-5.67622e-06
7.083e-05
1.73623e-06
-1.03219e-05
9.70478e-05
2.40377e-05
-2.26334e-05
0.000120572
4.54068e-05
-4.06871e-05
0.000137758
6.2463e-05
-6.16683e-05
0.000145889
7.25732e-05
-8.23393e-05
0.000143645
7.42733e-05
-9.95559e-05
0.00013135
6.74427e-05
-0.000110744
0.000110925
5.32379e-05
-0.000114273
8.55561e-05
3.38523e-05
-0.000109717
5.92402e-05
1.22117e-05
3.62954e-05
-8.22251e-06
-5.61058e-05
1.25956e-05
-1.08212e-05
-3.89006e-05
5.61181e-06
-2.68168e-05
-2.08906e-05
8.99204e-06
-3.51927e-05
-4.72649e-06
2.20353e-05
-3.45327e-05
7.15702e-06
4.27337e-05
-2.48313e-05
1.29364e-05
6.80339e-05
-7.51682e-06
1.16897e-05
9.41782e-05
1.47451e-05
3.55898e-06
0.000117209
3.84714e-05
-1.02423e-05
0.000133551
5.99386e-05
-2.75994e-05
0.000140589
7.58188e-05
-4.58271e-05
0.000137143
8.37195e-05
-6.21062e-05
0.000123712
8.25295e-05
-7.39443e-05
0.000102406
7.25288e-05
-7.95756e-05
7.65812e-05
5.52837e-05
-7.82139e-05
5.0321e-05
3.34134e-05
2.78858e-05
1.03684e-05
-2.83191e-05
8.46498e-07
-1.63445e-06
-1.49955e-05
-5.33457e-06
-2.27749e-05
3.58533e-07
-1.86097e-06
-3.65083e-05
1.54934e-05
1.06729e-05
-4.06379e-05
2.81591e-05
3.03652e-05
-3.44725e-05
3.64663e-05
5.43327e-05
-1.89204e-05
3.91476e-05
7.90559e-05
3.63578e-06
3.57534e-05
0.000100826
2.97044e-05
2.67385e-05
0.000116271
5.52514e-05
1.34276e-05
0.000122902
7.6346e-05
-2.15922e-06
0.000119568
8.97834e-05
-1.76137e-05
0.00010672
9.35668e-05
-3.05396e-05
8.63754e-05
8.71815e-05
-3.89533e-05
6.17694e-05
7.16242e-05
-4.15655e-05
3.67978e-05
4.92533e-05
1.5395e-05
2.35332e-05
-9.29514e-07
-1.29108e-05
7.08363e-07
8.97082e-06
-1.90867e-05
-2.42548e-05
2.21633e-05
-1.67404e-05
-4.18603e-05
3.67146e-05
-6.26864e-06
-4.92991e-05
5.04808e-05
1.07612e-05
-4.54108e-05
6.14511e-05
3.18731e-05
-3.07957e-05
6.80037e-05
5.40078e-05
-7.69717e-06
6.91191e-05
7.38936e-05
2.03475e-05
6.45455e-05
8.84823e-05
4.90512e-05
5.48821e-05
9.54165e-05
7.4042e-05
4.15419e-05
9.34759e-05
9.15228e-05
2.65674e-05
8.28569e-05
9.88483e-05
1.23028e-05
6.52084e-05
9.49148e-05
9.84583e-07
4.33616e-05
8.03178e-05
-5.59098e-06
2.0778e-05
5.72458e-05
8.90638e-07
2.91628e-05
2.17829e-05
-2.64782e-05
-4.04087e-06
2.92617e-05
-3.34846e-05
-3.10264e-05
4.11503e-05
-3.3337e-05
-5.04562e-05
5.56652e-05
-2.61531e-05
-5.92221e-05
7.06795e-05
-1.3028e-05
-5.59949e-05
8.40288e-05
4.14638e-06
-4.13208e-05
9.37674e-05
2.29234e-05
-1.74685e-05
9.8415e-05
4.05844e-05
1.19333e-05
9.71754e-05
5.44667e-05
4.24381e-05
9.01162e-05
6.23401e-05
6.94416e-05
7.82135e-05
6.283e-05
8.88595e-05
6.32697e-05
5.57192e-05
9.7731e-05
4.76345e-05
4.20795e-05
9.46726e-05
3.37909e-05
2.4116e-05
8.01074e-05
2.39512e-05
4.69154e-06
5.61756e-05
-1.33102e-05
2.63189e-05
3.6223e-05
-3.78238e-05
-1.51642e-05
4.26936e-05
-4.63533e-05
-4.21517e-05
5.43443e-05
-4.91184e-05
-6.10998e-05
6.93893e-05
-4.59324e-05
-6.89931e-05
8.56226e-05
-3.73371e-05
-6.46699e-05
0.000100702
-2.45609e-05
-4.88867e-05
0.000112438
-9.37656e-06
-2.41032e-05
0.000119066
6.07274e-06
5.91307e-06
0.000119489
1.95032e-05
3.66539e-05
0.000113529
2.8791e-05
6.35261e-05
0.000101975
3.23431e-05
8.24833e-05
8.6563e-05
2.94442e-05
9.06353e-05
6.97133e-05
2.04811e-05
8.66766e-05
5.41097e-05
6.91613e-06
7.11267e-05
4.22316e-05
-9.04796e-06
4.6214e-05
-2.50306e-05
1.53628e-05
4.011e-05
-4.53775e-05
-3.11065e-05
4.71464e-05
-5.57957e-05
-5.60839e-05
5.96771e-05
-6.17224e-05
-7.23026e-05
7.576e-05
-6.26243e-05
-7.72224e-05
9.30191e-05
-5.84806e-05
-7.01651e-05
0.000108944
-4.98664e-05
-5.23348e-05
0.000121206
-3.79318e-05
-2.65269e-05
0.000127967
-2.43147e-05
3.32449e-06
0.00012812
-1.09875e-05
3.2756e-05
0.000121549
-2.99324e-08
5.73908e-05
0.000109144
6.73429e-06
7.3558e-05
9.27734e-05
8.07687e-06
7.87974e-05
7.49925e-05
3.70965e-06
7.22377e-05
5.86198e-05
-5.64148e-06
5.47593e-05
4.62334e-05
-1.83865e-05
2.88225e-05
-3.25451e-05
-2.11094e-06
3.28386e-05
-4.81687e-05
-4.96395e-05
4.19285e-05
-6.045e-05
-7.08165e-05
5.63286e-05
-6.92912e-05
-8.24244e-05
7.3816e-05
-7.37495e-05
-8.26866e-05
9.17808e-05
-7.32963e-05
-7.16483e-05
0.000107573
-6.79649e-05
-5.11295e-05
0.000118854
-5.8425e-05
-2.43518e-05
0.000123925
-4.59528e-05
4.578e-06
0.000121947
-3.23417e-05
3.13546e-05
0.000113149
-1.96776e-05
5.19899e-05
9.88044e-05
-1.00376e-05
6.3451e-05
8.10843e-05
-5.07345e-06
6.40101e-05
6.27325e-05
-5.64006e-06
5.35156e-05
4.66307e-05
-1.16237e-05
3.34263e-05
3.52984e-05
-2.19363e-05
6.57109e-06
-3.4834e-05
-2.34612e-05
1.55744e-05
-4.5871e-05
-6.80814e-05
2.78825e-05
-5.96534e-05
-8.41233e-05
4.4855e-05
-7.07195e-05
-8.98893e-05
6.39053e-05
-7.76756e-05
-8.45013e-05
8.21617e-05
-7.96008e-05
-6.88495e-05
9.68895e-05
-7.61833e-05
-4.5441e-05
0.000105871
-6.78226e-05
-1.79427e-05
0.000107727
-5.56341e-05
9.42241e-06
0.00010213
-4.1365e-05
3.2537e-05
8.98843e-05
-2.71947e-05
4.7988e-05
7.28258e-05
-1.54062e-05
5.35318e-05
5.35587e-05
-7.96571e-06
4.83665e-05
3.50551e-05
-6.09456e-06
3.32142e-05
2.0179e-05
-1.00697e-05
1.0263e-05
1.12533e-05
-1.91179e-05
-1.721e-05
-3.16523e-05
-4.54024e-05
-8.96863e-06
-3.87942e-05
-8.36274e-05
7.22541e-06
-5.35236e-05
-9.38859e-05
2.70752e-05
-6.57992e-05
-9.34441e-05
4.75988e-05
-7.38303e-05
-8.22864e-05
6.56812e-05
-7.64816e-05
-6.21293e-05
7.85731e-05
-7.33407e-05
-3.61295e-05
8.4292e-05
-6.4786e-05
-8.33992e-06
8.1933e-05
-5.1982e-05
1.69534e-05
7.18182e-05
-3.67838e-05
3.59196e-05
5.54709e-05
-2.15109e-05
4.5756e-05
3.53864e-05
-8.59434e-06
4.50681e-05
1.46642e-05
-1.73683e-07
3.40209e-05
-3.53773e-06
2.45451e-06
1.42604e-05
-1.64162e-05
-1.17038e-06
-1.12912e-05
-2.19757e-05
-1.03356e-05
-3.89008e-05
-2.35069e-05
-6.45178e-05
-3.69672e-05
-2.78703e-05
-9.37797e-05
-1.68349e-05
-4.29339e-05
-9.84697e-05
5.74934e-06
-5.52447e-05
-9.24181e-05
2.74154e-05
-6.27788e-05
-7.62851e-05
4.4861e-05
-6.44109e-05
-5.24643e-05
5.5399e-05
-5.98908e-05
-2.46194e-05
5.73716e-05
-4.98213e-05
2.92787e-06
5.04256e-05
-3.56222e-05
2.59164e-05
3.55924e-05
-1.93783e-05
4.08307e-05
1.51446e-05
-3.57301e-06
4.5453e-05
-7.75718e-06
9.28696e-06
3.91713e-05
-2.96046e-05
1.7132e-05
2.30127e-05
-4.70253e-05
1.86903e-05
-5.37473e-07
-5.73953e-05
1.3736e-05
-2.7959e-05
-5.91253e-05
3.10262e-06
-5.51381e-05
-1.15747e-05
-7.78312e-05
-6.41738e-05
-1.45923e-05
-9.67778e-05
-4.06345e-05
-2.94333e-05
-9.70607e-05
-1.58762e-05
-4.06156e-05
-8.69026e-05
6.41218e-06
-4.61529e-05
-6.73843e-05
2.28311e-05
-4.518e-05
-4.13279e-05
3.08234e-05
-3.78438e-05
-1.26851e-05
2.90927e-05
-2.5183e-05
1.41172e-05
1.78469e-05
-9.04343e-06
3.49158e-05
-1.21286e-06
8.18099e-06
4.64924e-05
-2.51421e-05
2.38478e-05
4.71033e-05
-5.02318e-05
3.54841e-05
3.67339e-05
-7.2607e-05
4.12174e-05
1.70566e-05
-8.88516e-05
4.01158e-05
-8.87995e-06
-9.65267e-05
3.23625e-05
-3.71271e-05
-9.45057e-05
1.91645e-05
-6.33695e-05
2.44337e-06
-8.32899e-05
-8.65149e-05
-8.93985e-07
-9.2029e-05
-6.06066e-05
-1.50451e-05
-8.98602e-05
-3.45635e-05
-2.41035e-05
-7.77759e-05
-1.22694e-05
-2.64351e-05
-5.6996e-05
2.87115e-06
-2.1652e-05
-3.04642e-05
8.47692e-06
-1.04753e-05
-2.16288e-06
3.62882e-06
5.44783e-06
2.35432e-05
-1.10175e-05
2.37808e-05
4.26497e-05
-3.32191e-05
4.17575e-05
5.21552e-05
-5.95254e-05
5.66122e-05
5.05994e-05
-8.58417e-05
6.60004e-05
3.82871e-05
-0.000108102
6.84092e-05
1.72015e-05
-0.000122915
6.34299e-05
-9.35482e-06
-0.00012808
5.18358e-05
-3.72914e-05
-0.000122917
3.5396e-05
-6.22896e-05
1.65059e-05
-8.01051e-05
-0.000100711
1.10685e-05
-8.02513e-05
-7.38101e-05
-1.9918e-06
-7.8059e-05
-4.7548e-05
-8.24206e-06
-6.65441e-05
-2.58534e-05
-6.62102e-06
-4.6808e-05
-1.20283e-05
2.6222e-06
-2.16019e-05
-8.25488e-06
1.81013e-05
5.32487e-06
-1.5205e-05
3.7517e-05
2.98296e-05
-3.18758e-05
5.79763e-05
4.80673e-05
-5.57088e-05
7.63688e-05
5.71437e-05
-8.29884e-05
8.98465e-05
5.5634e-05
-0.000109456
9.62754e-05
4.38237e-05
-0.000131016
9.46081e-05
2.36349e-05
-0.00014439
8.50763e-05
-1.73558e-06
-0.000147608
6.9152e-05
-2.83466e-05
-0.000140354
4.92835e-05
-5.20655e-05
2.84697e-05
-6.88307e-05
-0.000104686
1.92954e-05
-6.33444e-05
-7.82932e-05
7.65689e-06
-6.35805e-05
-5.29099e-05
4.52275e-06
-5.50428e-05
-3.23141e-05
1.02588e-05
-3.84709e-05
-1.96358e-05
2.39662e-05
-1.61445e-05
-1.68785e-05
4.35952e-05
8.64546e-06
-2.45648e-05
6.62276e-05
3.20944e-05
-4.15873e-05
8.84619e-05
5.05136e-05
-6.53372e-05
0.000106893
6.09576e-05
-9.21054e-05
0.000118637
6.17636e-05
-0.000117698
0.000121815
5.28475e-05
-0.000138138
0.000115887
3.56928e-05
-0.000150314
0.00010176
1.30559e-05
-0.000152451
8.1631e-05
-1.15225e-05
-0.00014444
5.86388e-05
-3.42187e-05
3.6411e-05
-5.11936e-05
-9.77463e-05
-4.3989e-05
-7.33169e-05
-4.87033e-05
-4.9802e-05
-4.50698e-05
-3.06734e-05
-3.32662e-05
-1.88236e-05
-1.48803e-05
-1.61261e-05
7.42773e-06
-2.31066e-05
3.02784e-05
-3.87836e-05
5.00904e-05
-6.07668e-05
6.36934e-05
-8.56178e-05
6.8896e-05
-0.000109422
6.48931e-05
-0.000128459
5.2395e-05
-0.000139822
3.34591e-05
-0.000141873
1.10997e-05
-0.000134527
-1.11874e-05
-2.97003e-05
-7.28197e-05
-1.00386e-05
-3.65332e-05
-6.108e-05
-1.86601e-05
-4.94719e-05
-5.00201e-05
-1.64137e-05
-5.33553e-05
-4.132e-05
-3.80148e-06
-4.72808e-05
-3.62894e-05
1.72326e-05
-3.19972e-05
-3.57054e-05
4.36179e-05
-9.77669e-06
-3.96574e-05
7.13631e-05
1.59331e-05
-4.75492e-05
9.62476e-05
4.1076e-05
-5.81817e-05
0.000114432
6.16843e-05
-6.99305e-05
0.00012306
7.45698e-05
-8.09959e-05
0.000120751
7.78358e-05
-8.96829e-05
0.000107853
7.11242e-05
-9.4665e-05
8.63816e-05
5.55846e-05
-9.5194e-05
5.96905e-05
3.36342e-05
-9.12325e-05
3.19965e-05
8.61965e-06
7.89602e-06
-1.54438e-05
-4.13444e-05
-1.39246e-05
-1.3544e-05
-3.33521e-05
-2.12757e-05
-3.21934e-05
-2.50791e-05
-1.77908e-05
-4.20886e-05
-1.77291e-05
-4.11978e-06
-4.15644e-05
-1.23863e-05
1.76564e-05
-3.05978e-05
-9.8263e-06
4.43354e-05
-1.07943e-05
-1.04535e-05
7.19383e-05
1.47972e-05
-1.42187e-05
9.62923e-05
4.21919e-05
-2.06044e-05
0.000113635
6.71212e-05
-2.86722e-05
0.000121216
8.57309e-05
-3.71848e-05
0.000117778
9.52054e-05
-4.48033e-05
0.000103817
9.41832e-05
-5.03224e-05
8.15183e-05
8.29112e-05
-5.28874e-05
5.43863e-05
6.31529e-05
-5.21109e-05
2.67084e-05
3.7925e-05
2.92756e-06
1.11792e-05
-6.50709e-06
-2.1087e-05
3.39111e-06
-2.39181e-06
-2.77289e-05
-2.0437e-05
3.22302e-06
-2.42089e-05
-3.57051e-05
9.54317e-06
-1.11061e-05
-3.99717e-05
1.56606e-05
9.60309e-06
-3.25365e-05
2.07112e-05
3.48782e-05
-1.45138e-05
2.39472e-05
6.0998e-05
1.134e-05
2.48333e-05
8.40561e-05
4.10546e-05
2.31574e-05
0.000100504
7.00587e-05
1.90996e-05
0.000107711
9.39087e-05
1.32443e-05
0.000104441
0.000108975
6.51047e-06
9.11249e-05
0.000112993
-6.70896e-09
6.98319e-05
0.000105385
-5.26908e-06
4.39402e-05
8.73327e-05
-8.41247e-06
1.75259e-05
6.15792e-05
-5.37549e-06
3.20676e-05
2.64712e-05
-3.02098e-05
1.19285e-05
2.71652e-05
-3.69199e-05
-1.57578e-05
3.06194e-05
-3.45941e-05
-3.49293e-05
3.63494e-05
-2.361e-05
-4.25253e-05
4.35504e-05
-5.62246e-06
-3.73862e-05
5.1223e-05
1.67338e-05
-2.03238e-05
5.82561e-05
4.02165e-05
6.05134e-06
6.35659e-05
6.13608e-05
3.7733e-05
6.62586e-05
7.69431e-05
6.99192e-05
6.58149e-05
8.44677e-05
9.77287e-05
6.22311e-05
8.26193e-05
0.000116929
5.6058e-05
7.15655e-05
0.000124581
4.8306e-05
5.30037e-05
0.000119495
4.02407e-05
2.98966e-05
0.000102427
3.3195e-05
5.87114e-06
7.59463e-05
-1.55923e-05
4.40063e-05
5.25244e-05
-3.97812e-05
1.0918e-05
5.07992e-05
-4.73951e-05
-1.88261e-05
5.29294e-05
-4.73153e-05
-3.98652e-05
5.85997e-05
-3.96723e-05
-4.88301e-05
6.70206e-05
-2.56466e-05
-4.43916e-05
7.70235e-05
-7.28217e-06
-2.73078e-05
8.71767e-05
1.28001e-05
-2.05311e-07
9.59454e-05
3.16919e-05
3.28334e-05
0.000101921
4.65489e-05
6.68563e-05
0.000104074
5.50009e-05
9.67561e-05
0.000101976
5.55788e-05
0.000117998
9.59292e-05
4.80411e-05
0.000127302
8.69217e-05
3.35117e-05
0.000123172
7.64331e-05
1.43218e-05
0.000106171
6.61719e-05
-6.51321e-06
7.88211e-05
-2.60641e-05
4.50509e-05
6.75962e-05
-4.83477e-05
5.47702e-07
6.48484e-05
-5.75468e-05
-2.92521e-05
6.67156e-05
-6.04158e-05
-4.98665e-05
7.28861e-05
-5.68205e-05
-5.80154e-05
8.24899e-05
-4.73813e-05
-5.2539e-05
9.41804e-05
-3.34599e-05
-3.43996e-05
0.00010628
-1.70021e-05
-6.40091e-06
0.00011698
-3.46027e-07
2.72516e-05
0.000124595
1.40343e-05
6.15529e-05
0.00012786
2.38694e-05
9.13933e-05
0.000126168
2.74794e-05
0.000112275
0.000119743
2.41406e-05
0.00012096
0.000109619
1.43031e-05
0.000116009
9.74502e-05
-4.48178e-07
9.80657e-05
8.51807e-05
-1.77654e-05
6.97357e-05
-3.51702e-05
3.4908e-05
6.93171e-05
-5.47262e-05
-1.7707e-05
6.712e-05
-6.58609e-05
-4.55726e-05
6.98427e-05
-7.19222e-05
-6.35189e-05
7.70234e-05
-7.24599e-05
-6.87636e-05
8.76229e-05
-6.75213e-05
-6.06246e-05
0.000100126
-5.77981e-05
-4.04992e-05
0.000112722
-4.46113e-05
-1.15141e-05
0.00012353
-2.98017e-05
2.19724e-05
0.000130874
-1.55486e-05
5.49942e-05
0.000133548
-4.07613e-06
8.26625e-05
0.000131053
2.70301e-06
0.00010083
0.000123732
3.58134e-06
0.000106678
0.000112735
-1.65208e-06
9.91892e-05
9.98354e-05
-1.21468e-05
7.9358e-05
8.70594e-05
-2.61782e-05
5.00113e-05
-4.1589e-05
1.50291e-05
5.74052e-05
-5.81146e-05
-4.12454e-05
5.72556e-05
-7.11274e-05
-6.54005e-05
6.18329e-05
-8.01267e-05
-7.87971e-05
7.03975e-05
-8.42601e-05
-7.94511e-05
8.1678e-05
-8.30494e-05
-6.74007e-05
9.40253e-05
-7.663e-05
-4.46448e-05
0.000105627
-6.58426e-05
-1.47227e-05
0.00011474
-5.21833e-05
1.78467e-05
0.000119966
-3.76508e-05
4.82315e-05
0.000120441
-2.45029e-05
7.19415e-05
0.000116028
-1.48802e-05
8.54473e-05
0.000107381
-1.04272e-05
8.6665e-05
9.58264e-05
-1.18449e-05
7.52635e-05
8.31934e-05
-1.89373e-05
5.28497e-05
7.14492e-05
-3.04542e-05
2.25913e-05
-4.44606e-05
-1.15512e-05
3.37182e-05
-5.81105e-05
-6.6642e-05
3.67938e-05
-7.25953e-05
-8.57311e-05
4.39387e-05
-8.38288e-05
-9.33321e-05
5.40505e-05
-9.04831e-05
-8.83901e-05
6.56008e-05
-9.16677e-05
-7.17815e-05
7.68656e-05
-8.71593e-05
-4.61766e-05
8.61619e-05
-7.75322e-05
-1.55493e-05
9.20819e-05
-6.41333e-05
1.54524e-05
9.37085e-05
-4.89407e-05
4.22004e-05
9.07566e-05
-3.43039e-05
6.07409e-05
8.36446e-05
-2.25668e-05
6.83305e-05
7.34302e-05
-1.56492e-05
6.38029e-05
6.17013e-05
-1.46604e-05
4.77586e-05
5.02585e-05
-1.97215e-05
2.24901e-05
4.08917e-05
-2.99066e-05
-8.39075e-06
-4.34489e-05
-4.06842e-05
1.94189e-06
-5.47071e-05
-9.00725e-05
8.91275e-06
-7.00589e-05
-0.000103393
1.89342e-05
-8.24892e-05
-0.000104805
3.05039e-05
-9.0216e-05
-9.41232e-05
4.18573e-05
-9.21117e-05
-7.30387e-05
5.12712e-05
-8.78473e-05
-4.48554e-05
5.73114e-05
-7.79821e-05
-1.39303e-05
5.90454e-05
-6.39297e-05
1.50158e-05
5.61896e-05
-4.77911e-05
3.76258e-05
4.9162e-05
-3.20611e-05
5.05408e-05
3.90252e-05
-1.92281e-05
5.18662e-05
2.73261e-05
-1.13424e-05
4.14132e-05
1.58545e-05
-9.6501e-06
2.07216e-05
6.35948e-06
-1.43582e-05
-7.15942e-06
3.23153e-07
-2.46252e-05
-3.81459e-05
-3.87378e-05
-6.78059e-05
-3.30116e-05
-4.83333e-05
-0.000107862
-2.20899e-05
-6.38793e-05
-0.000115571
-9.33769e-06
-7.6301e-05
-0.000111359
3.35451e-06
-8.34922e-05
-9.57011e-05
1.40479e-05
-8.43186e-05
-7.09509e-05
2.10991e-05
-7.86126e-05
-4.09054e-05
2.34099e-05
-6.71714e-05
-1.01936e-05
2.06001e-05
-5.16772e-05
1.64737e-05
1.30773e-05
-3.4473e-05
3.50353e-05
1.98458e-06
-1.822e-05
4.27047e-05
-1.09734e-05
-5.47117e-06
3.83724e-05
-2.38076e-05
1.76331e-06
2.27412e-05
-3.45582e-05
2.37149e-06
-1.8085e-06
-4.15991e-05
-3.68912e-06
-3.15872e-05
-4.38305e-05
-1.54143e-05
-6.21177e-05
-3.09848e-05
-8.86951e-05
-6.58217e-05
-3.97831e-05
-0.000117124
-5.14919e-05
-5.49558e-05
-0.000120314
-3.65751e-05
-6.6173e-05
-0.000111947
-2.328e-05
-7.1296e-05
-9.28755e-05
-1.36337e-05
-6.94364e-05
-6.58564e-05
-9.1266e-06
-6.08329e-05
-3.49719e-05
-1.04837e-05
-4.6738e-05
-4.95908e-06
-1.75315e-05
-2.92605e-05
1.95469e-05
-2.92127e-05
-1.10642e-05
3.47648e-05
-4.37368e-05
5.03325e-06
3.83741e-05
-5.8864e-05
1.65164e-05
2.98735e-05
-7.22653e-05
2.15922e-05
1.06289e-05
-8.18914e-05
1.94941e-05
-1.63764e-05
-8.62896e-05
1.05981e-05
-4.70161e-05
-8.47946e-05
-3.70109e-06
-7.65777e-05
-2.127e-05
-0.000100181
-9.15341e-05
-3.02649e-05
-0.000116287
-7.48529e-05
-4.46104e-05
-0.000116887
-5.8666e-05
-5.36112e-05
-0.000106525
-4.53821e-05
-5.5437e-05
-8.61389e-05
-3.70156e-05
-4.96764e-05
-5.85908e-05
-3.48632e-05
-3.71561e-05
-2.7992e-05
-3.92971e-05
-1.97369e-05
9.76047e-07
-4.96719e-05
-4.67143e-08
2.38107e-05
-6.44168e-05
1.88966e-05
3.69392e-05
-8.12626e-05
3.41568e-05
3.83217e-05
-9.76048e-05
4.33571e-05
2.77886e-05
-0.00011092
4.50653e-05
7.04351e-06
-0.00011917
3.90446e-05
-2.06551e-05
-0.000121113
2.62666e-05
-5.10172e-05
-0.000116504
8.70361e-06
-7.93029e-05
-1.0987e-05
-0.000100618
-0.000106325
-2.12599e-05
-0.000105433
-8.86816e-05
-3.44274e-05
-0.000105885
-7.22941e-05
-4.05246e-05
-9.60182e-05
-5.96155e-05
-3.83126e-05
-7.6611e-05
-5.25532e-05
-2.80137e-05
-5.03267e-05
-5.22046e-05
-1.11351e-05
-2.10448e-05
-5.86634e-05
9.79586e-06
6.75575e-06
-7.09791e-05
3.16071e-05
2.87291e-05
-8.72793e-05
5.09443e-05
4.13962e-05
-0.000105051
6.48042e-05
4.27583e-05
-0.000121537
7.10228e-05
3.26438e-05
-0.000134185
6.86364e-05
1.2712e-05
-0.000141051
5.80391e-05
-1.38639e-05
-0.000141106
4.09006e-05
-4.29263e-05
-0.000134439
1.9883e-05
-6.99113e-05
-1.69026e-06
-9.00655e-05
-0.000107997
-1.426e-05
-8.6307e-05
-9.09088e-05
-2.59878e-05
-8.91079e-05
-7.54105e-05
-2.89195e-05
-8.21463e-05
-6.38222e-05
-2.25327e-05
-6.58391e-05
-5.78723e-05
-7.72893e-06
-4.23793e-05
-5.84882e-05
1.33244e-05
-1.51981e-05
-6.56137e-05
3.74566e-05
1.15592e-05
-7.82076e-05
6.10214e-05
3.36932e-05
-9.43607e-05
8.03762e-05
4.76787e-05
-0.00011158
9.24966e-05
5.1291e-05
-0.000127185
9.54751e-05
4.39998e-05
-0.000138742
8.88452e-05
2.70405e-05
-0.000144465
7.36598e-05
3.15859e-06
-0.000143501
5.2304e-05
-2.389e-05
-0.000136129
2.81338e-05
-4.98408e-05
5.12667e-06
-7.01807e-05
-9.62304e-05
-6.20339e-05
-8.11457e-05
-6.92549e-05
-6.75057e-05
-6.71285e-05
-5.73478e-05
-5.55426e-05
-5.21832e-05
-3.59976e-05
-5.28144e-05
-1.13058e-05
-5.91978e-05
1.48118e-05
-7.0401e-05
3.82901e-05
-8.47341e-05
5.53816e-05
-9.99836e-05
6.33345e-05
-0.000113765
6.09012e-05
-0.00012392
4.85482e-05
-0.000128877
2.83294e-05
-0.000127908
3.49132e-06
-0.000121288
-2.20398e-05
-4.39427e-05
-6.3174e-05
-3.80466e-05
-4.07846e-05
-6.18306e-05
-4.71719e-05
-5.41011e-05
-6.19391e-05
-4.64373e-05
-5.87606e-05
-6.35032e-05
-3.60734e-05
-5.37689e-05
-6.62493e-05
-1.76407e-05
-3.97086e-05
-6.9712e-05
6.12686e-06
-1.86603e-05
-7.33421e-05
3.16566e-05
6.123e-06
-7.66001e-05
5.50966e-05
3.07379e-05
-7.90316e-05
7.28092e-05
5.13158e-05
-8.031e-05
8.20466e-05
6.46674e-05
-8.02597e-05
8.13561e-05
6.88069e-05
-7.88714e-05
7.08399e-05
6.32243e-05
-7.63127e-05
5.21422e-05
4.88886e-05
-7.2929e-05
2.81848e-05
2.80425e-05
-6.92146e-05
2.76523e-06
3.89017e-06
-1.98842e-05
-1.97047e-05
-2.59504e-05
-3.77926e-05
-1.22084e-05
-2.83812e-05
-4.57255e-05
-3.12091e-05
-3.1288e-05
-4.37903e-05
-4.18288e-05
-3.42194e-05
-3.23932e-05
-4.23132e-05
-3.66889e-05
-1.32702e-05
-3.24987e-05
-3.82587e-05
1.07427e-05
-1.38403e-05
-3.86809e-05
3.60806e-05
1.07953e-05
-3.79103e-05
5.89249e-05
3.7593e-05
-3.61386e-05
7.57668e-05
6.2392e-05
-3.37009e-05
8.39668e-05
8.13729e-05
-3.09931e-05
8.21917e-05
9.16621e-05
-2.83993e-05
7.06735e-05
9.17558e-05
-2.62549e-05
5.11997e-05
8.17094e-05
-2.48353e-05
2.68274e-05
6.30907e-05
-2.42944e-05
1.40327e-06
3.8746e-05
-2.10969e-05
1.24584e-05
1.45352e-05
-3.89074e-05
1.05058e-05
8.24329e-06
-4.62032e-05
-1.36674e-05
2.68447e-06
-4.42829e-05
-2.96537e-05
-1.27389e-06
-3.34931e-05
-3.49134e-05
-2.98598e-06
-1.54787e-05
-2.8616e-05
-2.12075e-06
7.0918e-06
-1.17282e-05
1.22619e-06
3.09078e-05
1.31659e-05
6.52678e-06
5.24221e-05
4.22568e-05
1.28926e-05
6.83565e-05
7.11032e-05
1.92717e-05
7.61899e-05
9.53065e-05
2.46466e-05
7.46062e-05
0.000111186
2.82101e-05
6.37665e-05
0.000116336
2.94791e-05
4.53346e-05
0.000109981
2.83276e-05
2.2223e-05
9.30887e-05
2.5036e-05
-1.94994e-06
6.8224e-05
-2.37109e-05
3.91826e-05
5.23005e-05
-4.10321e-05
2.42082e-05
4.26051e-05
-4.84465e-05
-3.81899e-06
3.48862e-05
-4.77707e-05