/*--------------------------------*- C++ -*----------------------------------*\
| =========                 |                                                 |
| \\      /  F ield         | OpenFOAM: The Open Source CFD Toolbox           |
|  \\    /   O peration     | Version:  3.0.0                                 |
|   \\  /    A nd           | Web:      www.OpenFOAM.org                      |
|    \\/     M anipulation  |                                                 |
\*---------------------------------------------------------------------------*/
FoamFile
{
    version     2.0;
    format      ascii;
    class       volVectorField;
    location    "0.25";
    object      U;
}
// * * * * * * * * * * * * * * * * * * * * * * * * * * * * * * * * * * * * * //

dimensions      [0 1 -1 0 0 0 0];

internalField   nonuniform List<vector> 
4096
(
(-0.0250035 0.0132752 -0.000210946)
(-0.0179105 0.0109736 -0.00100915)
(-0.0106841 0.0108269 -0.000771302)
(-0.00393433 0.0127543 0.000482162)
(0.0012642 0.0164237 0.00257237)
(0.00407469 0.0212787 0.00518273)
(0.00404747 0.0265915 0.00789991)
(0.00117932 0.0315587 0.0102848)
(-0.00407757 0.035416 0.0119543)
(-0.0108924 0.0375575 0.0126516)
(-0.0182002 0.0376383 0.0122868)
(-0.0248794 0.035637 0.0109399)
(-0.0299239 0.0318597 0.00883375)
(-0.032609 0.0268876 0.00628802)
(-0.0326192 0.0214956 0.00367264)
(-0.0296405 0.0165349 0.00138016)
(-0.0204169 0.0113239 -0.00015588)
(-0.014445 0.00939611 -0.00239378)
(-0.00802621 0.0097086 -0.00369998)
(-0.001789 0.0121257 -0.00386611)
(0.00330212 0.0162554 -0.00285271)
(0.00644755 0.0214871 -0.000805525)
(0.00715158 0.0270455 0.00195524)
(0.00529241 0.0320892 0.00498735)
(0.00115128 0.0358323 0.00780618)
(-0.00462874 0.037673 0.0099724)
(-0.0111481 0.0373037 0.0111647)
(-0.0173989 0.0347732 0.0112228)
(-0.0224265 0.0304802 0.0101585)
(-0.0254903 0.0251014 0.00813917)
(-0.0261915 0.0194892 0.00546252)
(-0.02423 0.0145492 0.0025453)
(-0.0145825 0.00800651 -0.0011054)
(-0.00982762 0.0063949 -0.00463395)
(-0.0042444 0.00690924 -0.00730521)
(0.00152024 0.00941768 -0.00869558)
(0.00659141 0.013532 -0.00857766)
(0.01019 0.0186508 -0.00696075)
(0.0117632 0.0240185 -0.00409815)
(0.0110625 0.0288223 -0.000445055)
(0.00818714 0.0323099 0.00342139)
(0.00357332 0.0339155 0.00690224)
(-0.00207167 0.0333661 0.00947409)
(-0.00788036 0.0307399 0.0107639)
(-0.0129626 0.0264561 0.0105943)
(-0.016554 0.0211968 0.00899738)
(-0.0181433 0.0157963 0.00620851)
(-0.017385 0.011123 0.00266619)
(-0.00845782 0.00410018 -0.00290013)
(-0.00477796 0.00261188 -0.0073888)
(8.9939e-05 0.00299786 -0.0110442)
(0.0055108 0.00517483 -0.01328)
(0.01067 0.00881817 -0.0137392)
(0.0147884 0.0134015 -0.0123476)
(0.0172472 0.0182565 -0.00932695)
(0.017671 0.022655 -0.00515553)
(0.015986 0.025911 -0.000485561)
(0.0124355 0.0274944 0.00396597)
(0.00755051 0.027131 0.00753002)
(0.00207421 0.0248651 0.00968141)
(-0.0031525 0.0210593 0.0101084)
(-0.00733104 0.0163273 0.00874889)
(-0.00983528 0.0114208 0.00579842)
(-0.0102188 0.00711294 0.00170772)
(-0.00303042 0.000219619 -0.00526359)
(-0.000106596 -0.00136746 -0.0102553)
(0.00428744 -0.00142035 -0.0143702)
(0.00955314 5.18251e-05 -0.0169398)
(0.0148974 0.00283339 -0.0175584)
(0.0195211 0.00652895 -0.0161358)
(0.0227394 0.0106087 -0.0129054)
(0.0240679 0.0144732 -0.00837893)
(0.0232958 0.0175296 -0.00325843)
(0.0205207 0.0192843 0.00167789)
(0.0161453 0.0194324 0.00569411)
(0.0108284 0.0179303 0.00819786)
(0.00538735 0.0150147 0.00881957)
(0.000660667 0.0111626 0.00746048)
(-0.00262778 0.00698918 0.00430479)
(-0.00389956 0.00313414 -0.000191543)
(0.000844603 -0.00305413 -0.00786639)
(0.00343202 -0.00494353 -0.01284)
(0.00767327 -0.00567239 -0.0168185)
(0.0129973 -0.00516328 -0.0191491)
(0.0185967 -0.00349525 -0.0194674)
(0.0236328 -0.000900304 -0.0177398)
(0.0273621 0.00226197 -0.014256)
(0.0292283 0.00554336 -0.00957066)
(0.0289417 0.00845478 -0.00440557)
(0.0265244 0.0105335 0.000463227)
(0.0223208 0.0114243 0.0043209)
(0.0169601 0.0109584 0.00660324)
(0.0112659 0.0092011 0.00697018)
(0.00611613 0.00644635 0.00535177)
(0.00230384 0.00314389 0.00195531)
(0.00052432 -0.000207524 -0.00275668)
(0.00256815 -0.00525243 -0.0103703)
(0.00526417 -0.00758511 -0.0148019)
(0.00970356 -0.00911613 -0.0180591)
(0.0152954 -0.00967377 -0.019601)
(0.0211822 -0.00919171 -0.0191896)
(0.026478 -0.00773129 -0.0169136)
(0.0303985 -0.00547757 -0.0131564)
(0.032359 -0.00273153 -0.00851927)
(0.032058 0.000113306 -0.0037129)
(0.0295239 0.00261395 0.000551527)
(0.0251214 0.00435219 0.00366179)
(0.0195097 0.00502112 0.00517251)
(0.0135489 0.00449875 0.00485739)
(0.0081541 0.002882 0.00273907)
(0.00415574 0.000452852 -0.000913891)
(0.00230341 -0.00241053 -0.00562032)
(0.00188395 -0.00608542 -0.012446)
(0.00509805 -0.00891022 -0.0158739)
(0.0100604 -0.0112399 -0.0179212)
(0.0160913 -0.0128019 -0.0182361)
(0.022261 -0.0133931 -0.0167726)
(0.0276344 -0.0129191 -0.0137877)
(0.0314094 -0.0114174 -0.00978053)
(0.0330201 -0.00906953 -0.00539363)
(0.0322198 -0.00619862 -0.00129569)
(0.0291184 -0.00324238 0.00191853)
(0.0241742 -0.000685289 0.00380492)
(0.0181315 0.00103502 0.00410729)
(0.0119133 0.00162622 0.0027804)
(0.00646895 0.00100676 -8.45212e-06)
(0.00263744 -0.000685921 -0.0038972)
(0.0011369 -0.00316499 -0.00836761)
(-0.00109076 -0.00545723 -0.0137934)
(0.00297374 -0.00873069 -0.0158848)
(0.00870353 -0.0117321 -0.0164082)
(0.0152807 -0.0140852 -0.0152449)
(0.0216909 -0.0154738 -0.0125758)
(0.026957 -0.0156886 -0.0088444)
(0.0302842 -0.0146662 -0.00466619)
(0.0311692 -0.012515 -0.000709201)
(0.029475 -0.00952324 0.00242652)
(0.0254532 -0.00614055 0.00429864)
(0.0197093 -0.00291235 0.00467016)
(0.0131142 -0.000380207 0.00351632)
(0.00667428 0.00103469 0.00100903)
(0.00136912 0.00111842 -0.00250857)
(-0.00198398 -9.63204e-05 -0.00656083)
(-0.00277046 -0.00238226 -0.0105832)
(-0.00589166 -0.00346114 -0.0141778)
(-0.000753761 -0.00707231 -0.0147892)
(0.00586767 -0.0105226 -0.0137072)
(0.0130153 -0.01334 -0.0110493)
(0.019589 -0.0151362 -0.00722162)
(0.0245823 -0.0156447 -0.00284165)
(0.0272326 -0.0147621 0.00138016)
(0.0271328 -0.0125771 0.00477253)
(0.0242939 -0.00938344 0.00682486)
(0.0191451 -0.00565807 0.00726036)
(0.0124705 -0.00199524 0.00605811)
(0.00528886 0.000999608 0.00342991)
(-0.00130374 0.0028331 -0.000229434)
(-0.00630605 0.00322334 -0.00440072)
(-0.00894981 0.00214781 -0.00849647)
(-0.00875486 -0.000192141 -0.0119147)
(-0.0117848 -0.000368304 -0.0134818)
(-0.00548765 -0.00417315 -0.0127007)
(0.00200858 -0.00778985 -0.0101859)
(0.00966294 -0.0106831 -0.00625868)
(0.0162958 -0.0124445 -0.00151172)
(0.0208877 -0.0128168 0.00330464)
(0.0227304 -0.0117216 0.00742106)
(0.0215322 -0.00928334 0.0101887)
(0.0174681 -0.00583665 0.0111927)
(0.0111571 -0.0018968 0.0103121)
(0.00356669 0.00191161 0.00771995)
(-0.00413875 0.00496477 0.00383511)
(-0.0107796 0.00676135 -0.000758867)
(-0.0153497 0.00702135 -0.0053906)
(-0.0171574 0.00572577 -0.00938672)
(-0.0158382 0.00308283 -0.0121345)
(-0.0178821 0.00339514 -0.0117569)
(-0.0104974 -0.000456113 -0.00990509)
(-0.00227983 -0.00393919 -0.00636315)
(0.00573667 -0.00651243 -0.00159469)
(0.0123106 -0.00780753 0.0036875)
(0.0164256 -0.00764142 0.00866068)
(0.0174404 -0.00602068 0.012541)
(0.0151832 -0.00315426 0.0147207)
(0.00998799 0.000555127 0.0148725)
(0.00264933 0.00455029 0.0129981)
(-0.00570149 0.00819935 0.00941363)
(-0.013777 0.0109063 0.00468338)
(-0.0203379 0.0122245 -0.000475742)
(-0.024394 0.0119428 -0.00529704)
(-0.0253541 0.0101068 -0.00906461)
(-0.0229183 0.00697038 -0.0111888)
(-0.0232758 0.00728907 -0.00924908)
(-0.0150406 0.00352708 -0.00683678)
(-0.00636302 0.000454128 -0.00283972)
(0.00181509 -0.00144974 0.00221421)
(0.00821653 -0.00191693 0.00757451)
(0.0118431 -0.000892051 0.0124156)
(0.0121235 0.00148547 0.0159822)
(0.00899335 0.00488848 0.0177153)
(0.00291947 0.00882752 0.017352)
(-0.00516506 0.0127074 0.0149636)
(-0.0140076 0.0159138 0.0109365)
(-0.0222393 0.0179205 0.00589998)
(-0.0285936 0.0183898 0.000623249)
(-0.0321187 0.0172375 -0.0040994)
(-0.0323351 0.0146296 -0.00755967)
(-0.0289545 0.0109089 -0.00921908)
(-0.0271745 0.0107082 -0.00637173)
(-0.0184689 0.00716017 -0.00400784)
(-0.00965414 0.00471867 -0.000196345)
(-0.00153705 0.00373961 0.00455432)
(0.00460408 0.00434313 0.00954147)
(0.0078027 0.00642261 0.0140037)
(0.00754979 0.00967709 0.017248)
(0.00385869 0.0136419 0.0187648)
(-0.00271763 0.0177357 0.0183168)
(-0.0111638 0.0213351 0.0159798)
(-0.0201653 0.0238677 0.0121259)
(-0.0283234 0.0249129 0.00735887)
(-0.0343801 0.0242836 0.00241301)
(-0.0374372 0.0220629 -0.00196016)
(-0.0371182 0.0185773 -0.00510389)
(-0.0331168 0.0142975 -0.00654081)
(-0.0290077 0.0130598 -0.00360551)
(-0.020299 0.00984474 -0.00188998)
(-0.0116807 0.0081765 0.00113102)
(-0.00383443 0.00824924 0.005047)
(0.00200055 0.0100127 0.00928108)
(0.00489979 0.0131869 0.0131917)
(0.00439678 0.0173035 0.0161728)
(0.000539762 0.0217599 0.0177533)
(-0.00609344 0.0258927 0.017679)
(-0.0144759 0.0290669 0.0159606)
(-0.0232974 0.0307752 0.0128718)
(-0.0311812 0.0307279 0.00890145)
(-0.0369086 0.0289103 0.00466839)
(-0.0396369 0.0255894 0.000820253)
(-0.0390626 0.0212668 -0.00206662)
(-0.0348672 0.0165607 -0.00356384)
(-0.0284749 0.0141029 -0.00136275)
(-0.0202432 0.0112648 -0.000791847)
(-0.0121247 0.0103839 0.000955214)
(-0.00472295 0.0114867 0.00363546)
(0.000802773 0.0143627 0.00685514)
(0.00357627 0.0185807 0.0101304)
(0.00314506 0.0235281 0.0129554)
(-0.000460417 0.0284777 0.0148825)
(-0.00670602 0.0326785 0.0156006)
(-0.0146241 0.0354648 0.0149936)
(-0.0229697 0.0363723 0.0131615)
(-0.0304309 0.0352313 0.0104015)
(-0.0358487 0.0322072 0.00715064)
(-0.0384299 0.0277725 0.00390958)
(-0.0379018 0.022628 0.00116292)
(-0.0339661 0.0175639 -0.000679527)
(-0.0232637 0.00575828 -0.00474945)
(-0.0178008 0.00344218 -0.00690592)
(-0.0123297 0.00375248 -0.00726128)
(-0.00725975 0.00657642 -0.00570231)
(-0.00340326 0.0114641 -0.00243474)
(-0.00137905 0.0176797 0.00205282)
(-0.00150802 0.024285 0.00705677)
(-0.00377784 0.0302737 0.0117795)
(-0.00783659 0.0347224 0.0154716)
(-0.0130488 0.0369372 0.0175637)
(-0.0186023 0.0365689 0.0177573)
(-0.0236426 0.0336722 0.0160575)
(-0.0274048 0.0286951 0.0127505)
(-0.0293466 0.0224047 0.00834488)
(-0.0292458 0.0157836 0.00350058)
(-0.0268126 0.00990983 -0.0010137)
(-0.0165399 0.00452793 -0.00216459)
(-0.0122231 0.00258453 -0.00577765)
(-0.00757681 0.00335207 -0.0076799)
(-0.00303995 0.00665451 -0.00754941)
(0.000690045 0.011979 -0.00538181)
(0.00303546 0.0185392 -0.00149501)
(0.00363161 0.0253592 0.00351163)
(0.00237234 0.0314051 0.00885084)
(-0.000562995 0.0357371 0.0136822)
(-0.004729 0.0376631 0.0172557)
(-0.00948109 0.0368634 0.0190345)
(-0.0140797 0.0334543 0.0187719)
(-0.0178123 0.0279716 0.0165324)
(-0.0201214 0.0212776 0.012667)
(-0.0207012 0.014433 0.00776056)
(-0.0192902 0.00855585 0.00258881)
(-0.00880541 0.00193271 -0.00090758)
(-0.00569616 0.000282847 -0.00583013)
(-0.00189509 0.00123452 -0.00910032)
(0.00215761 0.00461018 -0.0101948)
(0.00585406 0.00989614 -0.00893125)
(0.00863918 0.0163161 -0.0054938)
(0.0100947 0.0229212 -0.000410411)
(0.0099905 0.0287149 0.00552936)
(0.00832527 0.0327975 0.0114031)
(0.00533585 0.0345122 0.0163058)
(0.00147126 0.0335661 0.0194938)
(-0.00267269 0.0300937 0.0204962)
(-0.00644978 0.0246413 0.0191764)
(-0.00927991 0.0180722 0.0157421)
(-0.0107461 0.0114265 0.0107126)
(-0.0105303 0.00576889 0.00487271)
(-0.00126769 -0.0014521 -0.00114881)
(0.000792255 -0.00299315 -0.00704303)
(0.00386124 -0.00218186 -0.011297)
(0.00755346 0.000846232 -0.0132335)
(0.0113198 0.00563796 -0.0125494)
(0.0146062 0.0114948 -0.00934933)
(0.0169322 0.0175614 -0.00412612)
(0.0179459 0.0229339 0.00231701)
(0.0174758 0.0267832 0.00899248)
(0.0155663 0.028487 0.0148817)
(0.0124863 0.0277462 0.0190916)
(0.00870096 0.0246542 0.020988)
(0.00480162 0.0196949 0.0202875)
(0.00139839 0.0136605 0.0170965)
(-0.000983455 0.00750626 0.0118917)
(-0.00189292 0.00218653 0.00546176)
(0.00489517 -0.00507093 -0.00283038)
(0.00622672 -0.00672252 -0.00923368)
(0.00879841 -0.00635778 -0.0139452)
(0.0123142 -0.00404693 -0.0162135)
(0.0162442 -0.000135801 -0.0156925)
(0.020015 0.00480948 -0.0124727)
(0.023084 0.0100783 -0.00705476)
(0.0249955 0.0148997 -0.000267004)
(0.0254441 0.01854 0.00686103)
(0.0243295 0.0204118 0.0132523)
(0.0217898 0.0201855 0.0179421)
(0.0181979 0.0178642 0.020219)
(0.0141146 0.0138044 0.0197318)
(0.0101831 0.00866021 0.0165447)
(0.00701708 0.00324718 0.0111227)
(0.00523694 -0.00162262 0.00425146)
(0.00873224 -0.00836905 -0.00570251)
(0.00974454 -0.0103356 -0.0120949)
(0.0121416 -0.0106523 -0.0166733)
(0.0156959 -0.0093147 -0.0187089)
(0.0198616 -0.00653223 -0.0178989)
(0.0240279 -0.00270434 -0.0143898)
(0.0275969 0.00163074 -0.0087314)
(0.0300425 0.00585358 -0.00178825)
(0.0309812 0.00933397 0.0053934)
(0.0302394 0.0115167 0.0117374)
(0.027896 0.0120231 0.0162941)
(0.0242888 0.0107345 0.0183721)
(0.0199794 0.00783833 0.0176432)
(0.0156442 0.00380468 0.0141985)
(0.0119564 -0.000719915 0.00852711)
(0.00967984 -0.00506598 0.0014139)
(0.00965889 -0.0108718 -0.00936918)
(0.0107819 -0.0132926 -0.0152333)
(0.0133635 -0.0144173 -0.0191038)
(0.0171716 -0.0141563 -0.0203699)
(0.0216142 -0.0125721 -0.0188527)
(0.0260333 -0.00988893 -0.0148134)
(0.0297899 -0.00647179 -0.00888959)
(0.0323289 -0.00279531 -0.00198869)
(0.0332548 0.000603519 0.00485152)
(0.0324008 0.00319186 0.0106142)
(0.0298671 0.00452999 0.0144448)
(0.0260219 0.00436748 0.0157659)
(0.0214617 0.00270964 0.0143622)
(0.016896 -0.000171208 0.0104188)
(0.0130284 -0.00379935 0.00448693)
(0.0106776 -0.007623 -0.00263489)
(0.00754314 -0.0122472 -0.0133247)
(0.00917329 -0.015165 -0.0182038)
(0.0122744 -0.0170955 -0.0208875)
(0.0165162 -0.017849 -0.0209555)
(0.0212405 -0.0173471 -0.0184133)
(0.0257399 -0.0156557 -0.0136806)
(0.0293538 -0.012993 -0.00750507)
(0.0315428 -0.00971812 -0.000837213)
(0.0319651 -0.00630202 0.00531859)
(0.0305358 -0.0032714 0.010053)
(0.0274522 -0.00112866 0.0126732)
(0.0231736 -0.000248001 0.0127903)
(0.0183606 -0.000790054 0.0103744)
(0.0137552 -0.00265993 0.00576035)
(0.0100648 -0.00552957 -0.00040511)
(0.00805287 -0.00893261 -0.00728886)
(0.00271568 -0.0123265 -0.0169997)
(0.00517944 -0.0156872 -0.0205583)
(0.00905175 -0.0182961 -0.0217449)
(0.0138415 -0.0198494 -0.0203642)
(0.0188119 -0.0201501 -0.0166374)
(0.0232116 -0.0191466 -0.0111612)
(0.0263824 -0.016958 -0.00479848)
(0.0278422 -0.0138744 0.00146693)
(0.0273592 -0.0103369 0.00668769)
(0.0249932 -0.00688595 0.0100952)
(0.0210939 -0.00408145 0.0112009)
(0.0162534 -0.00239619 0.00985276)
(0.0112184 -0.0021141 0.00624612)
(0.00676007 -0.0032717 0.000900302)
(0.00356162 -0.00564629 -0.00542345)
(0.00224722 -0.00882794 -0.0118377)
(-0.00408578 -0.0111067 -0.0198297)
(-0.00056279 -0.0147865 -0.0219119)
(0.00420611 -0.0178453 -0.021513)
(0.00957154 -0.0198664 -0.0186563)
(0.014713 -0.0205727 -0.0137751)
(0.0188468 -0.0198538 -0.00763412)
(0.0213419 -0.0177909 -0.00119622)
(0.0218095 -0.0146604 0.00453944)
(0.0201666 -0.0109123 0.00869973)
(0.0166557 -0.00711838 0.0106729)
(0.0118115 -0.00388535 0.0101886)
(0.00637986 -0.00174477 0.00734129)
(0.00119654 -0.00105032 0.0025621)
(-0.00294964 -0.00190092 -0.00344546)
(-0.0054265 -0.00412683 -0.0098052)
(-0.00577299 -0.00734427 -0.0155758)
(-0.0118313 -0.00874658 -0.0213437)
(-0.00715499 -0.0125902 -0.0220172)
(-0.00150904 -0.0158077 -0.0201896)
(0.00436766 -0.0178983 -0.0160628)
(0.00957428 -0.0185575 -0.010245)
(0.0133098 -0.0176836 -0.00363275)
(0.0149936 -0.0153862 0.00274247)
(0.0143524 -0.011983 0.0078871)
(0.0114709 -0.00797008 0.0110115)
(0.00678682 -0.0039602 0.0116553)
(0.00102417 -0.000589108 0.00974848)
(-0.00492725 0.00159606 0.00560636)
(-0.01015 0.00223969 -0.000135356)
(-0.0138522 0.00125013 -0.00661637)
(-0.015485 -0.00119532 -0.0128696)
(-0.0147124 -0.00470271 -0.0179182)
(-0.0193525 -0.00555868 -0.0212564)
(-0.0135885 -0.0094134 -0.0208247)
(-0.00722215 -0.0124803 -0.017956)
(-0.000979411 -0.0142333 -0.0129674)
(0.00417171 -0.0144033 -0.00658027)
(0.00742999 -0.0129638 0.000233196)
(0.00828041 -0.0101133 0.00641446)
(0.00657151 -0.0062609 0.0109965)
(0.0025522 -0.00197524 0.0132682)
(-0.00316005 0.00208743 0.012892)
(-0.00967686 0.00528543 0.00995073)
(-0.0159861 0.00710272 0.00491998)
(-0.0211159 0.00724738 -0.00142027)
(-0.0242972 0.00570012 -0.00810755)
(-0.0250825 0.00270853 -0.0141269)
(-0.0231907 -0.0012798 -0.0184978)
(-0.0255178 -0.00198852 -0.019548)
(-0.0189033 -0.0057219 -0.0185122)
(-0.0120776 -0.00835468 -0.0151606)
(-0.00566919 -0.00941225 -0.00985466)
(-0.000687846 -0.00872419 -0.00335059)
(0.00208248 -0.00639396 0.00337063)
(0.00219622 -0.00275948 0.00926785)
(-0.000387903 0.00164756 0.0134144)
(-0.00528373 0.00616762 0.0151583)
(-0.0117346 0.0101061 0.0142356)
(-0.0187327 0.0128418 0.0108091)
(-0.0251878 0.0139344 0.00543123)
(-0.0301056 0.0132048 -0.00105713)
(-0.0327578 0.0107675 -0.0076611)
(-0.0328073 0.00699502 -0.0133687)
(-0.0299652 0.00243695 -0.0172294)
(-0.0294019 0.00142128 -0.0164838)
(-0.0223246 -0.0020786 -0.0154587)
(-0.0153593 -0.00405592 -0.0122619)
(-0.009006 -0.00416146 -0.00722913)
(-0.00427997 -0.00237218 -0.00106944)
(-0.00193401 0.001042 0.00529515)
(-0.00234894 0.00557543 0.0108805)
(-0.00548645 0.0105561 0.0148049)
(-0.0108755 0.0152304 0.0164438)
(-0.017679 0.018877 0.0155419)
(-0.0248303 0.0209202 0.0122557)
(-0.0312125 0.0210298 0.00711842)
(-0.0358408 0.0191804 0.000940977)
(-0.0380381 0.0156572 -0.00532217)
(-0.037564 0.0109971 -0.0107082)
(-0.0340992 0.00589133 -0.0143182)
(-0.0304149 0.00410025 -0.0125594)
(-0.0233569 0.000932781 -0.0121634)
(-0.016583 -0.000257679 -0.00973499)
(-0.0104943 0.00070865 -0.00551818)
(-0.00606753 0.00368074 -0.000100649)
(-0.00401235 0.00820986 0.00571337)
(-0.00466517 0.0136196 0.0110273)
(-0.00795347 0.0190975 0.0150005)
(-0.0133852 0.0238095 0.0169957)
(-0.0201162 0.0270258 0.0166956)
(-0.0270883 0.0282382 0.0141598)
(-0.0332075 0.0272479 0.00980723)
(-0.0375256 0.0242015 0.00433384)
(-0.0394154 0.0195669 -0.0014084)
(-0.0386989 0.0140573 -0.00653635)
(-0.0350483 0.00852171 -0.0102039)
(-0.0283655 0.00567126 -0.00838718)
(-0.0218263 0.0028865 -0.00913953)
(-0.0155512 0.00249543 -0.00797298)
(-0.00990508 0.0045024 -0.00498306)
(-0.00578445 0.00859256 -0.000578885)
(-0.00384829 0.0141668 0.00459627)
(-0.00441667 0.0204056 0.00975395)
(-0.00743506 0.0263729 0.0140824)
(-0.0124582 0.0311477 0.0168869)
(-0.018707 0.0339691 0.0177161)
(-0.0251948 0.0343724 0.0164454)
(-0.030896 0.0322792 0.0132949)
(-0.0349214 0.0280177 0.00877963)
(-0.0366873 0.0222629 0.00361279)
(-0.0360339 0.0159286 -0.00140561)
(-0.0326683 0.0100329 -0.0054567)
(-0.0202728 -0.00241301 -0.00831358)
(-0.0170568 -0.00480503 -0.0114216)
(-0.0140804 -0.00445707 -0.0122617)
(-0.0114651 -0.00145399 -0.0106254)
(-0.00964168 0.00374407 -0.0067185)
(-0.00890226 0.0103569 -0.00112203)
(-0.0093594 0.0173842 0.00529293)
(-0.010947 0.0237522 0.0115111)
(-0.0134264 0.0284792 0.0165506)
(-0.0164191 0.0308322 0.0196325)
(-0.0194649 0.0304464 0.0203064)
(-0.0220937 0.0273841 0.0185068)
(-0.0238992 0.022122 0.0145401)
(-0.0246203 0.0154729 0.0090212)
(-0.0241932 0.00848051 0.00278801)
(-0.0223868 0.00230707 -0.00315822)
(-0.0116096 -0.00283923 -0.00335751)
(-0.00955282 -0.00485999 -0.00793039)
(-0.0074163 -0.00405545 -0.0103148)
(-0.00534517 -0.000585831 -0.0101054)
(-0.00366094 0.00502037 -0.00730502)
(-0.00261724 0.0119347 -0.00232564)
(-0.00236888 0.0191276 0.00406787)
(-0.00296435 0.0255083 0.0108768)
(-0.00432957 0.0300887 0.0170368)
(-0.00626986 0.0321425 0.0215939)
(-0.00849151 0.0313335 0.0238597)
(-0.0106456 0.0277803 0.0235122)
(-0.0123879 0.0220406 0.02063)
(-0.0134523 0.0150164 0.0156646)
(-0.0136969 0.0078219 0.00937272)
(-0.012917 0.00163298 0.00274417)
(-0.002093 -0.00430751 6.73916e-05)
(-0.00121414 -0.00606506 -0.00583042)
(7.15218e-05 -0.00509553 -0.0095895)
(0.00165783 -0.00156644 -0.0106074)
(0.00330847 0.00398817 -0.00871371)
(0.0047867 0.0107505 -0.00418979)
(0.00588061 0.0177194 0.00227231)
(0.00641938 0.0238463 0.00967668)
(0.00630224 0.0281851 0.0168809)
(0.00552316 0.0300441 0.0227783)
(0.00418628 0.0291092 0.0264716)
(0.0024983 0.0255109 0.0274089)
(0.000733001 0.0198114 0.0254606)
(-0.000828979 0.0129107 0.0209302)
(-0.00194642 0.00589805 0.014506)
(-0.00233896 -0.000126713 0.00717677)
(0.00683567 -0.00646396 0.00148471)
(0.00671605 -0.00813588 -0.00539938)
(0.00726023 -0.00732328 -0.0101545)
(0.00848369 -0.00415699 -0.0120226)
(0.0102024 0.000887531 -0.0107152)
(0.0121752 0.00707055 -0.00643566)
(0.0141253 0.013488 0.000161074)
(0.0157607 0.0191867 0.00806968)
(0.0168162 0.0232929 0.0160863)
(0.0171016 0.0251484 0.0229914)
(0.0165478 0.0244305 0.0277343)
(0.0152323 0.0212252 0.0295928)
(0.0133703 0.0160286 0.0282826)
(0.0112633 0.00966766 0.0240007)
(0.00924355 0.00314132 0.0173917)
(0.00776119 -0.00257837 0.00944416)
(0.0138147 -0.00893558 0.000712882)
(0.0130186 -0.0107364 -0.00669612)
(0.013052 -0.0103832 -0.0119239)
(0.0140918 -0.00794816 -0.0141371)
(0.0159685 -0.00379954 -0.0130045)
(0.0184164 0.00145706 -0.00871547)
(0.0210945 0.00706483 -0.00192963)
(0.0236088 0.0122048 0.00632602)
(0.0255654 0.0160979 0.0148088)
(0.026637 0.018121 0.0222411)
(0.0266285 0.0179199 0.0274955)
(0.025526 0.0154901 0.0297653)
(0.0235097 0.0112002 0.0286904)
(0.020904 0.00573694 0.024421)
(0.0181112 -4.3957e-05 0.0175884)
(0.0157925 -0.00531835 0.00917426)
(0.0177853 -0.0113325 -0.00212468)
(0.0167054 -0.0134637 -0.00954297)
(0.0165512 -0.0138025 -0.0146547)
(0.0176209 -0.0123535 -0.0166519)
(0.0197254 -0.00934785 -0.015246)
(0.0225589 -0.00522137 -0.01068)
(0.0257248 -0.000556708 -0.00366052)
(0.0287595 0.00397789 0.00475264)
(0.0311959 0.00770472 0.0133019)
(0.0326382 0.0100323 0.0207113)
(0.0328351 0.0105584 0.0258624)
(0.0317372 0.00915955 0.027962)
(0.0295209 0.00603773 0.0266668)
(0.0265358 0.00169454 0.0221501)
(0.0232295 -0.00318586 0.0150647)
(0.0204338 -0.00791465 0.00638402)
(0.0181502 -0.0133069 -0.00662554)
(0.0171891 -0.0159054 -0.0135396)
(0.0172125 -0.0170606 -0.0179608)
(0.0185284 -0.0167004 -0.0192054)
(0.0209024 -0.0149067 -0.0171087)
(0.0239805 -0.0119355 -0.0120264)
(0.0273257 -0.00819577 -0.00474914)
(0.0304463 -0.00421295 0.00362293)
(0.0328661 -0.000574666 0.0118416)
(0.0341986 0.00214858 0.0186881)
(0.0342141 0.00349681 0.0231354)
(0.0328928 0.00321843 0.0244992)
(0.0304424 0.0013376 0.0225456)
(0.0272405 -0.00184183 0.0175391)
(0.0237586 -0.00580746 0.0101912)
(0.0208865 -0.00997522 0.00147887)
(0.0148592 -0.0146001 -0.0121531)
(0.0143881 -0.0177037 -0.0181048)
(0.0149325 -0.0196721 -0.0213535)
(0.0166775 -0.0203377 -0.0214144)
(0.0193269 -0.0196381 -0.0183074)
(0.0224788 -0.0176666 -0.0125435)
(0.0256763 -0.0146852 -0.0050209)
(0.0284447 -0.011107 0.003119)
(0.0303621 -0.00745563 0.0106606)
(0.0311246 -0.00429886 0.016489)
(0.030597 -0.00215646 0.0197374)
(0.0288483 -0.00139797 0.0199085)
(0.0261497 -0.0021623 0.0169491)
(0.0229102 -0.00432017 0.0112762)
(0.0196065 -0.00750672 0.00369346)
(0.0170502 -0.0112117 -0.00479458)
(0.00841199 -0.0150566 -0.0179056)
(0.00874338 -0.018602 -0.0225489)
(0.0100671 -0.0212542 -0.0243077)
(0.0123581 -0.0227287 -0.0229289)
(0.0152478 -0.0228396 -0.0186472)
(0.0182942 -0.0215592 -0.0121473)
(0.0210453 -0.0190505 -0.00444018)
(0.0230867 -0.0156614 0.00329913)
(0.0241048 -0.0118889 0.00990975)
(0.0239366 -0.00831714 0.0144133)
(0.0225981 -0.00552222 0.0161461)
(0.0202867 -0.00396657 0.0148473)
(0.0173599 -0.00390773 0.0106952)
(0.0142602 -0.00534501 0.00428939)
(0.0114475 -0.0080178 -0.00344996)
(0.00955538 -0.0114677 -0.0114644)
(-0.000217663 -0.0146255 -0.023015)
(0.001142 -0.018475 -0.0261752)
(0.00337235 -0.0215777 -0.0263464)
(0.00623779 -0.0235238 -0.0234937)
(0.00929251 -0.0240413 -0.0180611)
(0.0120672 -0.0230412 -0.0108973)
(0.0141412 -0.0206501 -0.00311224)
(0.0151951 -0.0172057 0.00410135)
(0.0150626 -0.0132196 0.00965286)
(0.0137585 -0.00930759 0.0127169)
(0.0114792 -0.00609185 0.0128478)
(0.0085729 -0.00409086 0.0100349)
(0.00548698 -0.0036227 0.00469608)
(0.00268693 -0.00474911 -0.00237846)
(0.000592023 -0.0072599 -0.0101506)
(-0.000362979 -0.0107248 -0.0174902)
(-0.00972597 -0.0133551 -0.0266739)
(-0.00723372 -0.0173405 -0.0283979)
(-0.0041201 -0.020595 -0.0271296)
(-0.000745768 -0.0226058 -0.023002)
(0.0023675 -0.0230677 -0.0166293)
(0.00473878 -0.0219 -0.00898855)
(0.00600193 -0.0192602 -0.00125828)
(0.00595526 -0.0155314 0.00537071)
(0.0045976 -0.0112747 0.00988574)
(0.00213303 -0.00714849 0.0116095)
(-0.00105945 -0.00380251 0.0102974)
(-0.00448785 -0.00176688 0.00616416)
(-0.00762416 -0.00135832 -0.00015658)
(-0.00999589 -0.00262647 -0.0077143)
(-0.0112538 -0.00535095 -0.0153719)
(-0.0111086 -0.00909318 -0.0219366)
(-0.0186718 -0.0114002 -0.028275)
(-0.0151035 -0.0153601 -0.0288513)
(-0.0112683 -0.0184478 -0.026524)
(-0.00753156 -0.0201062 -0.0215246)
(-0.00447983 -0.0200612 -0.0145732)
(-0.00258892 -0.0183083 -0.00671988)
(-0.00215501 -0.0150983 0.000827955)
(-0.00325648 -0.0109078 0.0069014)
(-0.00573399 -0.00637369 0.0105608)
(-0.00921014 -0.00219769 0.0112492)
(-0.0131474 0.00096626 0.00887711)
(-0.0169361 0.00262247 0.00382753)
(-0.0199918 0.00251871 -0.0031152)
(-0.0218578 0.000684415 -0.0108896)
(-0.0222779 -0.00258688 -0.0183019)
(-0.0210187 -0.00679855 -0.0241258)
(-0.0256936 -0.00902074 -0.0275349)
(-0.0212842 -0.0128206 -0.0274623)
(-0.0169933 -0.0154501 -0.0246314)
(-0.0130947 -0.0163904 -0.0193009)
(-0.0102162 -0.0154636 -0.0122194)
(-0.00881258 -0.0127984 -0.0044442)
(-0.00910611 -0.00878754 0.00283107)
(-0.011065 -0.00403417 0.00847437)
(-0.0143979 0.00073471 0.0116001)
(-0.0185942 0.00478036 0.0117236)
(-0.0230034 0.0074715 0.00883965)
(-0.0269405 0.0083897 0.00341507)
(-0.0297965 0.00739867 -0.00369723)
(-0.0311493 0.00466355 -0.0113966)
(-0.030846 0.000606889 -0.0184849)
(-0.0286348 -0.00416017 -0.0237427)
(-0.0297188 -0.00656806 -0.024558)
(-0.0248635 -0.0101038 -0.0244621)
(-0.0204385 -0.0120527 -0.0217666)
(-0.0165976 -0.0120156 -0.0166944)
(-0.0139741 -0.00996389 -0.00994327)
(-0.0129879 -0.00619573 -0.00251214)
(-0.0137964 -0.00127433 0.00446015)
(-0.0162893 0.00405545 0.0098813)
(-0.020094 0.00897527 0.0128915)
(-0.0246259 0.0127222 0.0130163)
(-0.0291807 0.0147127 0.0102481)
(-0.0330484 0.0146386 0.00504097)
(-0.0356276 0.0125175 -0.00177638)
(-0.0365421 0.0086858 -0.00913938)
(-0.0357279 0.00373446 -0.0158958)
(-0.0328951 -0.00156776 -0.0208689)
(-0.0301219 -0.0044475 -0.019822)
(-0.0253168 -0.00763974 -0.0203387)
(-0.0210879 -0.00878444 -0.0183964)
(-0.0175109 -0.00765488 -0.0141262)
(-0.0151811 -0.00440013 -0.00810546)
(-0.0144745 0.000498677 -0.00121692)
(-0.0155051 0.00630519 0.0054863)
(-0.01813 0.0121357 0.0109509)
(-0.0219588 0.0170937 0.0143047)
(-0.0264042 0.0204107 0.0150135)
(-0.0307733 0.0215707 0.0129767)
(-0.034381 0.0203952 0.00853815)
(-0.0366615 0.0170705 0.00241462)
(-0.0372852 0.0121153 -0.0044297)
(-0.0362425 0.00629994 -0.0109229)
(-0.0332357 0.0005635 -0.0159474)
(-0.0268119 -0.00297619 -0.0140904)
(-0.0225629 -0.00577107 -0.0157497)
(-0.0188322 -0.00610214 -0.0150552)
(-0.0156897 -0.00392667 -0.0120003)
(-0.013655 0.000439606 -0.00698603)
(-0.0130562 0.00636358 -0.000733499)
(-0.0139925 0.0129685 0.00581337)
(-0.0163377 0.019254 0.0116322)
(-0.0197454 0.0242448 0.0157926)
(-0.0236939 0.0271488 0.0176239)
(-0.0275658 0.0274962 0.0168397)
(-0.03075 0.025228 0.013586)
(-0.0327437 0.0207071 0.00840266)
(-0.033261 0.0146538 0.00211984)
(-0.0323012 0.00803413 -0.00427169)
(-0.0296075 0.00195014 -0.00969806)
(-0.0165198 -0.00998477 -0.0103282)
(-0.0158259 -0.0125096 -0.0138409)
(-0.0157067 -0.0125561 -0.0149889)
(-0.0159417 -0.0101279 -0.0135171)
(-0.0165226 -0.0055873 -0.00960249)
(-0.0173599 0.000387971 -0.00382526)
(-0.0183141 0.00689256 0.00292002)
(-0.0192408 0.0129298 0.00957075)
(-0.0200087 0.0175709 0.01508)
(-0.0205133 0.0201003 0.0185949)
(-0.0206852 0.020131 0.0195949)
(-0.0204957 0.0176647 0.0179615)
(-0.0199608 0.013088 0.013976)
(-0.0191622 0.00711047 0.00826013)
(-0.0182415 0.000675946 0.001689)
(-0.0170548 -0.00513169 -0.00468213)
(-0.00639451 -0.00963584 -0.00353231)
(-0.00685197 -0.0117884 -0.00850726)
(-0.00758024 -0.0113718 -0.0111895)
(-0.00836159 -0.00848052 -0.0111316)
(-0.00908633 -0.00355384 -0.00831547)
(-0.00963414 0.00267948 -0.00315689)
(-0.00990982 0.00929003 0.00355201)
(-0.00987464 0.0152782 0.0107696)
(-0.00954934 0.0197225 0.0173737)
(-0.00900367 0.0219264 0.0223452)
(-0.00833237 0.0215356 0.0249307)
(-0.00763443 0.0186037 0.0247552)
(-0.00700017 0.0135882 0.0218665)
(-0.00651866 0.00727675 0.0167164)
(-0.00626214 0.000671581 0.0100923)
(-0.0060969 -0.00515869 0.00302751)
(0.00453709 -0.00975061 0.0016917)
(0.00294393 -0.0116679 -0.00461281)
(0.00135866 -0.0111013 -0.00867168)
(9.30656e-05 -0.00815925 -0.00983902)
(-0.000665245 -0.00329059 -0.00792689)
(-0.000786475 0.00278365 -0.00322422)
(-0.000235658 0.00916464 0.00354986)
(0.000903762 0.0148979 0.011358)
(0.00244325 0.0191053 0.0190038)
(0.00412458 0.0211237 0.0253181)
(0.00567282 0.0206188 0.0293392)
(0.00684983 0.0176523 0.0304598)
(0.00749045 0.0126827 0.0285148)
(0.00750923 0.00649236 0.0238039)
(0.00691515 5.41187e-05 0.0170435)
(0.00594351 -0.00566202 0.00926647)
(0.014643 -0.0101707 0.00461911)
(0.0121142 -0.0120201 -0.00267672)
(0.00977866 -0.0116242 -0.00773857)
(0.00814844 -0.00905576 -0.00976086)
(0.00745639 -0.00470638 -0.00843848)
(0.00782087 0.000781071 -0.00398362)
(0.0092082 0.00660565 0.00292253)
(0.0114141 0.0119078 0.0112351)
(0.0140918 0.0158825 0.0196983)
(0.01681 0.0178998 0.0270321)
(0.0191316 0.0176159 0.03212)
(0.020694 0.0150476 0.0341803)
(0.0212697 0.0105861 0.0328878)
(0.0207827 0.00493833 0.0284311)
(0.0193111 -0.00101854 0.0214833)
(0.0172979 -0.00645682 0.0130826)
(0.0224095 -0.0107949 0.00484663)
(0.0192687 -0.012783 -0.00298011)
(0.0164113 -0.0128578 -0.00852529)
(0.0145927 -0.0110312 -0.0109028)
(0.0140542 -0.00758577 -0.00976433)
(0.0148839 -0.00302862 -0.0053077)
(0.0169809 0.00198643 0.0017829)
(0.0200392 0.00673178 0.0104431)
(0.0235897 0.0104944 0.0193809)
(0.0270734 0.0126783 0.0272579)