/*--------------------------------*- C++ -*----------------------------------*\
| =========                 |                                                 |
| \\      /  F ield         | OpenFOAM: The Open Source CFD Toolbox           |
|  \\    /   O peration     | Version:  3.0.0                                 |
|   \\  /    A nd           | Web:      www.OpenFOAM.org                      |
|    \\/     M anipulation  |                                                 |
\*---------------------------------------------------------------------------*/
FoamFile
{
    version     2.0;
    format      ascii;
    class       volScalarField;
    location    "6";
    object      k;
}
// * * * * * * * * * * * * * * * * * * * * * * * * * * * * * * * * * * * * * //

dimensions      [0 2 -2 0 0 0 0];

internalField   nonuniform List<scalar> 
400
(
8.91199e-07
1.70629e-06
5.23374e-06
5.92966e-05
0.000236014
0.000427351
0.000520707
0.000573446
0.000591572
0.000595487
0.000566885
0.000534204
0.000482875
0.000432656
0.000376155
0.000319381
0.000264746
0.000207411
0.000145072
8.67503e-05
2.79971e-06
1.02617e-05
3.89353e-05
0.00013194
0.000236438
0.000284849
0.000302194
0.000308272
0.000310556
0.000318453
0.000330027
0.000353696
0.000380606
0.00040753
0.000437042
0.00045861
0.000468656
0.000471063
0.000432558
0.000402123
7.73914e-06
4.52573e-05
0.000110159
0.000179413
0.000244817
0.000284693
0.000309559
0.000346935
0.000396917
0.000438256
0.00047725
0.000503223
0.000524267
0.000551287
0.000580587
0.000618154
0.000639958
0.000649433
0.000683541
0.000808038
2.54392e-05
8.59873e-05
0.000142892
0.000204996
0.000265914
0.000312549
0.000375947
0.000434939
0.000466828
0.000499064
0.000517469
0.00053595
0.000551638
0.000579397
0.000617624
0.00067465
0.00074561
0.000777519
0.000807503
0.00107316
5.3028e-05
0.000113917
0.000170873
0.000235533
0.000300383
0.000351297
0.000396082
0.000421362
0.000430933
0.000433238
0.000430772
0.000441756
0.000469045
0.000511419
0.000579392
0.000671646
0.000783147
0.000888236
0.000932375
0.00127989
8.4727e-05
0.000130256
0.000185712
0.000254612
0.000316468
0.000351944
0.000370461
0.000356917
0.000318868
0.000300759
0.00029543
0.000305969
0.000339329
0.000390287
0.000474727
0.000602605
0.000783806
0.000950036
0.00103881
0.00143796
0.000120339
0.000135173
0.000197715
0.00026656
0.000315289
0.00033399
0.000308858
0.000251737
0.000214209
0.00019828
0.000194578
0.000211653
0.000245891
0.000297093
0.000378297
0.000507985
0.000725272
0.000977657
0.00114564
0.00157512
0.000160085
0.000134098
0.000197889
0.000269799
0.000304978
0.000298645
0.000244068
0.000179459
0.000149904
0.000140094
0.000140802
0.000166151
0.000199327
0.000243817
0.000313015
0.000430006
0.000659872
0.000984762
0.00124689
0.00169263
0.00019722
0.000131193
0.000195793
0.000265784
0.000287806
0.000267232
0.000196823
0.000138428
0.000116057
0.000110654
0.000119393
0.000146871
0.000178751
0.000216812
0.000267927
0.00036187
0.000580035
0.000966393
0.00134569
0.00180519
0.00023999
0.000123929
0.000189829
0.00025767
0.000276971
0.000246344
0.000174413
0.00012396
0.000105422
0.00010281
0.000114848
0.000141071
0.000172026
0.000204927
0.000244092
0.000319274
0.000510525
0.000931172
0.00144215
0.00191355
0.000272734
0.000121612
0.000178066
0.000243731
0.000264875
0.000236709
0.000174952
0.000125948
0.000106374
0.000105521
0.00012137
0.000147044
0.000173436
0.000201002
0.000230653
0.000289422
0.000448628
0.00089246
0.00152915
0.00202819
0.000296085
0.000123874
0.000159273
0.000228479
0.000255125
0.000235071
0.000181342
0.00013495
0.000114779
0.000117477
0.000133205
0.000156485
0.000178473
0.000201272
0.000224266
0.000273869
0.000406744
0.000852265
0.00161414
0.00215253
0.000292601
0.000129384
0.00014216
0.000204138
0.000237295
0.000230264
0.000197567
0.000156999
0.000137485
0.000139516
0.000149139
0.000167487
0.000184866
0.000203691
0.00022134
0.000263765
0.000382432
0.00082471
0.00168816
0.00229806
0.000270451
0.0001348
0.000133919
0.000172075
0.000220714
0.000220676
0.000206141
0.000177656
0.000161
0.000160938
0.000165124
0.000176422
0.000189163
0.000204775
0.000219916
0.000259258
0.000371155
0.000813086
0.00177902
0.00247377
0.000215445
0.000130544
0.000124839
0.000141475
0.000184392
0.000199523
0.00019798
0.000186853
0.000174482
0.000173391
0.00017522
0.00018154
0.000191085
0.000204906
0.000218326
0.000257867
0.000368256
0.000812705
0.00189087
0.00270142
0.000108922
0.000111463
0.000113868
0.000126967
0.000161196
0.000182096
0.000184714
0.000181987
0.000174961
0.000174598
0.000176003
0.000181899
0.000187921
0.000196052
0.000213757
0.000262975
0.00039148
0.000876305
0.00206269
0.00300254
2.54541e-05
6.79234e-05
8.8004e-05
9.71949e-05
0.000116993
0.000139379
0.000148879
0.000153458
0.000153706
0.000154722
0.000156438
0.000160202
0.000167281
0.000183292
0.000215251
0.000295288
0.000471561
0.00101792
0.00232042
0.00343011
2.39692e-05
5.13736e-05
7.76463e-05
9.5775e-05
0.000114155
0.000134485
0.000145974
0.000154423
0.000157593
0.000163455
0.000170694
0.00018652
0.000207501
0.000252439
0.000329288
0.000507099
0.000775294
0.00143717
0.00290011
0.00409197
0.000141964
0.000315358
0.000377374
0.000409216
0.000436801
0.00047212
0.000504707
0.000556409
0.000604844
0.000685979
0.000761721
0.000894218
0.00101206
0.00122752
0.00139776
0.00177809
0.00217999
0.00299582
0.00456089
0.00531011
0.00301627
0.00592532
0.00686509
0.00693741
0.00688181
0.00677468
0.00670777
0.00668116
0.00668395
0.00669721
0.00672528
0.00677007
0.00682689
0.00689093
0.00698678
0.00706859
0.00716195
0.00729406
0.00778976
0.00677789
)
;

boundaryField
{
    movingWall
    {
        type            kqRWallFunction;
        value           nonuniform List<scalar> 
20
(
0.00301627
0.00592532
0.00686509
0.00693741
0.00688181
0.00677468
0.00670777
0.00668116
0.00668395
0.00669721
0.00672528
0.00677007
0.00682689
0.00689093
0.00698678
0.00706859
0.00716195
0.00729406
0.00778976
0.00677789
)
;
    }
    fixedWalls
    {
        type            kqRWallFunction;
        value           nonuniform List<scalar> 
60
(
8.91199e-07
2.79971e-06
7.73914e-06
2.54392e-05
5.3028e-05
8.4727e-05
0.000120339
0.000160085
0.00019722
0.00023999
0.000272734
0.000296085
0.000292601
0.000270451
0.000215445
0.000108922
2.54541e-05
2.39692e-05
0.000141964
0.00301627
8.67503e-05
0.000402123
0.000808038
0.00107316
0.00127989
0.00143796
0.00157512
0.00169263
0.00180519
0.00191355
0.00202819
0.00215253
0.00229806
0.00247377
0.00270142
0.00300254
0.00343011
0.00409197
0.00531011
0.00677789
8.91199e-07
1.70629e-06
5.23374e-06
5.92966e-05
0.000236014
0.000427351
0.000520707
0.000573446
0.000591572
0.000595487
0.000566885
0.000534204
0.000482875
0.000432656
0.000376155
0.000319381
0.000264746
0.000207411
0.000145072
8.67503e-05
)
;
    }
    frontAndBack
    {
        type            empty;
    }
}


// ************************************************************************* //
