/*--------------------------------*- C++ -*----------------------------------*\
| =========                 |                                                 |
| \\      /  F ield         | OpenFOAM: The Open Source CFD Toolbox           |
|  \\    /   O peration     | Version:  3.0.0                                 |
|   \\  /    A nd           | Web:      www.OpenFOAM.org                      |
|    \\/     M anipulation  |                                                 |
\*---------------------------------------------------------------------------*/
FoamFile
{
    version     2.0;
    format      ascii;
    class       volScalarField;
    location    "6";
    object      nut;
}
// * * * * * * * * * * * * * * * * * * * * * * * * * * * * * * * * * * * * * //

dimensions      [0 2 -1 0 0 0 0];

internalField   nonuniform List<scalar> 
400
(
6.96189e-09
1.33282e-08
4.08679e-08
4.60621e-07
1.80314e-06
3.2086e-06
3.8773e-06
4.25034e-06
4.37779e-06
4.40527e-06
4.20413e-06
3.9731e-06
3.60763e-06
3.2469e-06
2.83724e-06
2.42144e-06
2.01729e-06
1.58882e-06
1.11779e-06
6.72118e-07
2.18669e-08
2.35132e-07
5.7026e-07
1.63826e-06
2.88585e-06
3.92795e-06
4.85657e-06
5.87727e-06
7.03159e-06
8.1757e-06
9.22134e-06
1.01756e-05
1.09015e-05
1.07289e-05
1.07415e-05
9.9104e-06
8.68151e-06
7.03049e-06
4.73969e-06
3.02604e-06
6.04169e-08
9.97328e-07
2.01915e-06
3.21654e-06
5.2095e-06
7.86922e-06
1.04364e-05
1.38464e-05
1.73238e-05
1.99459e-05
2.1978e-05
2.27141e-05
2.23057e-05
2.16276e-05
2.00474e-05
1.79982e-05
1.47237e-05
1.1024e-05
7.63759e-06
5.87038e-06
1.98257e-07
1.95141e-06
3.20183e-06
5.20994e-06
9.23137e-06
1.40287e-05
2.00279e-05
2.64618e-05
3.04899e-05
3.39608e-05
3.57478e-05
3.7008e-05
3.59553e-05
3.47477e-05
3.18968e-05
2.82319e-05
2.32491e-05
1.64003e-05
9.97768e-06
7.62906e-06
4.12172e-07
2.79999e-06
4.69896e-06
8.2919e-06
1.51537e-05
2.21892e-05
2.98207e-05
3.64981e-05
4.08015e-05
4.36103e-05
4.44636e-05
4.57191e-05
4.52164e-05
4.40359e-05
4.14549e-05
3.71251e-05
3.07029e-05
2.23586e-05
1.27077e-05
8.95151e-06
6.5657e-07
3.53506e-06
6.20316e-06
1.18015e-05
2.10681e-05
2.92013e-05
3.7699e-05
4.28064e-05
4.33141e-05
4.42307e-05
4.49408e-05
4.67459e-05
4.76687e-05
4.7742e-05
4.669e-05
4.37634e-05
3.81377e-05
2.80602e-05
1.56123e-05
9.93595e-06
9.29387e-07
4.0213e-06
7.7582e-06
1.53292e-05
2.59885e-05
3.46077e-05
4.06133e-05
4.01444e-05
3.92922e-05
3.91325e-05
3.94158e-05
4.24373e-05
4.48656e-05
4.68925e-05
4.7166e-05
4.5537e-05
4.17555e-05
3.28363e-05
1.86241e-05
1.07724e-05
1.23173e-06
4.27519e-06
8.91339e-06
1.82051e-05
2.92758e-05
3.65391e-05
3.91433e-05
3.549e-05
3.35038e-05
3.30696e-05
3.36959e-05
3.84241e-05
4.22032e-05
4.50844e-05
4.67805e-05
4.63513e-05
4.41467e-05
3.66773e-05
2.18313e-05
1.14764e-05
1.51219e-06
4.40265e-06
9.69183e-06
1.97667e-05
3.0675e-05
3.69838e-05
3.63811e-05
3.10345e-05
2.86679e-05
2.82552e-05
3.05492e-05
3.59336e-05
4.03932e-05
4.33443e-05
4.43254e-05
4.43144e-05
4.38384e-05
3.91426e-05
2.47165e-05
1.21403e-05
1.83284e-06
4.27136e-06
1.01294e-05
2.05799e-05
3.11064e-05
3.58368e-05
3.30528e-05
2.82564e-05
2.63729e-05
2.65117e-05
2.95965e-05
3.49533e-05
3.96043e-05
4.21522e-05
4.24434e-05
4.21828e-05
4.2716e-05
4.04426e-05
2.79464e-05
1.27701e-05
2.07663e-06
3.97533e-06
9.7747e-06
1.95959e-05
2.96013e-05
3.41684e-05
3.25262e-05
2.80939e-05
2.60704e-05
2.66059e-05
3.02189e-05
3.53359e-05
3.92954e-05
4.1452e-05
4.07491e-05
3.95524e-05
4.00922e-05
4.07681e-05
3.05125e-05
1.34269e-05
2.24961e-06
3.5562e-06
8.58686e-06
1.80948e-05
2.7801e-05
3.28847e-05
3.2052e-05
2.83677e-05
2.64381e-05
2.77078e-05
3.10432e-05
3.54191e-05
3.8303e-05
3.95661e-05
3.88151e-05
3.77117e-05
3.75005e-05
4.00955e-05
3.32931e-05
1.41284e-05
2.22385e-06
3.0264e-06
7.1791e-06
1.55056e-05
2.43288e-05
2.9986e-05
3.15832e-05
2.92633e-05
2.80323e-05
2.95391e-05
3.1558e-05
3.47455e-05
3.66312e-05
3.72216e-05
3.60375e-05
3.50511e-05
3.55268e-05
3.92515e-05
3.52431e-05
1.49357e-05
2.0597e-06
2.54147e-06
5.86942e-06
1.20307e-05
2.09919e-05
2.63731e-05
2.96502e-05
2.93786e-05
2.90736e-05
3.03008e-05
3.11332e-05
3.26926e-05
3.36421e-05
3.37514e-05
3.27899e-05
3.22025e-05
3.33326e-05
3.8449e-05
3.66347e-05
1.58916e-05
1.64917e-06
2.04957e-06
4.45118e-06
8.46586e-06
1.53129e-05
2.08237e-05
2.45522e-05
2.62556e-05
2.66627e-05
2.77005e-05
2.82932e-05
2.89581e-05
2.95429e-05
2.97593e-05
2.90423e-05
2.89979e-05
3.06729e-05
3.62673e-05
3.68422e-05
1.71009e-05
8.42142e-07
1.56213e-06
3.15288e-06
6.24066e-06
1.13416e-05
1.63297e-05
1.97729e-05
2.21191e-05
2.30556e-05
2.39301e-05
2.43168e-05
2.48708e-05
2.50383e-05
2.47596e-05
2.48103e-05
2.58452e-05
2.88281e-05
3.55104e-05
3.7478e-05
1.86533e-05
1.98374e-07
9.90684e-07
2.08662e-06
3.51347e-06
6.04042e-06
9.41726e-06
1.2311e-05
1.46911e-05
1.63551e-05
1.74154e-05
1.81065e-05
1.84247e-05
1.88019e-05
1.95016e-05
2.07268e-05
2.36062e-05
2.81226e-05
3.44007e-05
3.71161e-05
2.07726e-05
1.86826e-07
9.14362e-07
1.85527e-06
3.04954e-06
4.6856e-06
6.79896e-06
8.74211e-06
1.05313e-05
1.18995e-05
1.31437e-05
1.41767e-05
1.53509e-05
1.65452e-05
1.8659e-05
2.15097e-05
2.64781e-05
3.06963e-05
3.45837e-05
3.74217e-05
2.38783e-05
1.09416e-06
6.36337e-06
8.33427e-06
1.00313e-05
1.18491e-05
1.39901e-05
1.59339e-05
1.82903e-05
1.98886e-05
2.22663e-05
2.39623e-05
2.63798e-05
2.80613e-05
3.05967e-05
3.23164e-05
3.5216e-05
3.61432e-05
3.5769e-05
3.82958e-05
2.9129e-05
1.87233e-05
3.15902e-05
3.5141e-05
3.54042e-05
3.52012e-05
3.48083e-05
3.45615e-05
3.4463e-05
3.44733e-05
3.45223e-05
3.46259e-05
3.47911e-05
3.49999e-05
3.52344e-05
3.55835e-05
3.58796e-05
3.62155e-05
3.66875e-05
3.84239e-05
3.48206e-05
)
;

boundaryField
{
    movingWall
    {
        type            nutkWallFunction;
        Cmu             0.09;
        kappa           0.41;
        E               9.8;
        value           nonuniform List<scalar> 
20
(
0
0
0
0
0
0
0
0
0
0
0
0
0
0
0
0
3.97139e-08
1.12363e-07
3.78371e-07
0
)
;
    }
    fixedWalls
    {
        type            nutkWallFunction;
        Cmu             0.09;
        kappa           0.41;
        E               9.8;
        value           uniform 0;
    }
    frontAndBack
    {
        type            empty;
    }
}


// ************************************************************************* //
