/*--------------------------------*- C++ -*----------------------------------*\
| =========                 |                                                 |
| \\      /  F ield         | OpenFOAM: The Open Source CFD Toolbox           |
|  \\    /   O peration     | Version:  3.0.0                                 |
|   \\  /    A nd           | Web:      www.OpenFOAM.org                      |
|    \\/     M anipulation  |                                                 |
\*---------------------------------------------------------------------------*/
FoamFile
{
    version     2.0;
    format      ascii;
    class       volScalarField;
    location    "6";
    object      omega;
}
// * * * * * * * * * * * * * * * * * * * * * * * * * * * * * * * * * * * * * //

dimensions      [0 0 -1 0 0 0 0];

internalField   nonuniform List<scalar> 
400
(
128.011
128.021
128.065
128.732
130.89
133.189
134.296
134.918
135.13
135.176
134.84
134.455
133.848
133.252
132.578
131.897
131.238
130.544
129.784
129.07
128.035
43.6422
68.2764
80.5366
81.93
72.5185
62.2237
52.4515
44.1658
38.9512
35.7895
34.7592
34.9131
37.9844
40.6873
46.2756
53.9833
67.0029
91.2631
132.888
128.096
45.3786
54.5573
55.7783
46.9944
36.1781
29.6614
25.056
22.9117
21.9723
21.7149
22.1546
23.5038
25.4899
28.9607
34.3452
43.4644
58.911
89.4969
137.647
128.314
44.0641
44.6282
39.3471
28.8054
22.2792
18.7712
16.4365
15.3109
14.6953
14.4755
14.482
15.3423
16.6744
19.3632
23.8967
32.0705
47.4089
80.9309
140.668
128.655
40.6847
36.3641
28.4052
19.8224
15.8319
13.2821
11.5448
10.5617
9.93429
9.6882
9.6624
10.3733
11.6137
13.9764
18.0914
25.5073
39.7268
73.3708
142.98
129.045
36.847
29.9383
21.5745
15.0212
12.0523
9.8268
8.33793
7.36175
6.79977
6.57377
6.54537
7.11849
8.17494
10.1676
13.7696
20.552
33.857
66.538
144.723
129.482
33.6142
25.4846
17.3891
12.1319
9.65073
7.60486
6.2708
5.4517
5.06688
4.93654
4.98742
5.48061
6.33561
8.02054
11.1554
17.3695
29.7737
61.5139
146.218
129.968
31.3665
22.2013
14.82
10.4174
8.17331
6.23525
5.05662
4.47425
4.23635
4.17863
4.32413
4.72303
5.40801
6.69114
9.2771
14.9473
26.8494
57.1145
147.488
130.42
29.7987
20.2018
13.4461
9.38242
7.22565
5.41002
4.46044
4.04834
3.91624
3.90823
4.0873
4.42526
5.00209
6.04455
8.16595
13.2312
24.689
54.4449
148.694
130.939
29.0139
18.7404
12.5204
8.90399
6.87405
5.2768
4.38695
3.99736
3.8779
3.88046
4.03599
4.34361
4.86161
5.75099
7.56882
11.9516
23.0245
51.6043
149.845
131.335
30.5917
18.2171
12.4379
8.9481
6.92771
5.37879
4.48309
4.08026
3.96606
4.01635
4.16132
4.41364
4.84904
5.66031
7.31744
11.1899
21.8911
50.1155
151.055
131.616
34.8332
18.5484
12.6268
9.17683
7.14833
5.65776
4.75716
4.34143
4.23983
4.29095
4.4181
4.6595
5.087
5.7778
7.26216
10.8464
21.2559
48.4827
152.355
131.574
42.7517
19.802
13.1654
9.75367
7.67906
6.25544
5.36504
4.90452
4.7231
4.72586
4.8204
5.04668
5.47237
6.14194
7.52515
10.7646
21.0109
47.9004
153.864
131.306
53.0403
22.8163
14.303
10.5142
8.36748
6.95244
6.04714
5.53766
5.31136
5.30381
5.39638
5.62281
6.06716
6.70682
8.05086
11.1349
21.1472
48.561
155.666
130.639
63.6933
28.0463
16.7112
12.0416
9.58153
8.06363
7.11672
6.54404
6.25951
6.19301
6.26905
6.46805
6.88544
7.51751
8.89262
12.0059
22.4088
51.3236
157.969
129.34
71.3534
36.1154
20.3451
14.2128
11.1513
9.34175
8.22761
7.58868
7.29617
7.23791
7.31377
7.50534
7.91821
8.61568
10.175
13.5798
24.6774
55.0375
160.966
128.314
68.5621
42.1754
27.6635
19.3684
14.8004
12.0932
10.4456
9.39806
8.88421
8.6399
8.69498
8.89704
9.39882
10.3852
12.5089
16.7681
29.5901
62.518
165.126
128.297
56.1851
41.8518
31.4064
24.363
19.7803
16.6978
14.6633
13.2436
12.4359
12.0405
12.1504
12.5415
13.529
15.3089
19.1516
25.2569
41.5562
77.4982
171.367
129.747
49.5583
45.2798
40.7941
36.8635
33.7466
31.675
30.4209
30.4116
30.808
31.7884
33.8979
36.066
40.1193
43.2524
50.4909
60.3153
83.7548
119.096
182.296
161.098
187.568
195.358
195.949
195.499
194.628
194.082
193.865
193.888
193.997
194.227
194.592
195.055
195.574
196.349
197.008
197.759
198.816
202.732
194.652
)
;

boundaryField
{
    movingWall
    {
        Cmu             0.09;
        kappa           0.41;
        E               9.8;
        beta1           0.075;
        type            omegaWallFunction;
        value           nonuniform List<scalar> 
20
(
161.098
187.568
195.358
195.949
195.499
194.628
194.082
193.865
193.888
193.997
194.227
194.592
195.055
195.574
196.349
197.008
197.759
198.816
202.732
194.652
)
;
    }
    fixedWalls
    {
        Cmu             0.09;
        kappa           0.41;
        E               9.8;
        beta1           0.075;
        type            omegaWallFunction;
        value           nonuniform List<scalar> 
60
(
128.011
128.035
128.096
128.314
128.655
129.045
129.482
129.968
130.42
130.939
131.335
131.616
131.574
131.306
130.639
129.34
128.314
128.297
129.747
161.098
129.07
132.888
137.647
140.668
142.98
144.723
146.218
147.488
148.694
149.845
151.055
152.355
153.864
155.666
157.969
160.966
165.126
171.367
182.296
194.652
128.011
128.021
128.065
128.732
130.89
133.189
134.296
134.918
135.13
135.176
134.84
134.455
133.848
133.252
132.578
131.897
131.238
130.544
129.784
129.07
)
;
    }
    frontAndBack
    {
        type            empty;
    }
}


// ************************************************************************* //
