/*--------------------------------*- C++ -*----------------------------------*\
| =========                 |                                                 |
| \\      /  F ield         | OpenFOAM: The Open Source CFD Toolbox           |
|  \\    /   O peration     | Version:  3.0.0                                 |
|   \\  /    A nd           | Web:      www.OpenFOAM.org                      |
|    \\/     M anipulation  |                                                 |
\*---------------------------------------------------------------------------*/
FoamFile
{
    version     2.0;
    format      ascii;
    class       volScalarField;
    location    "6";
    object      p;
}
// * * * * * * * * * * * * * * * * * * * * * * * * * * * * * * * * * * * * * //

dimensions      [0 2 -2 0 0 0 0];

internalField   nonuniform List<scalar> 
400
(
1.06277e-07
-8.00463e-05
-0.000156824
-0.000216533
-0.000435799
-0.00142107
-0.00302015
-0.0046843
-0.00608836
-0.00707414
-0.00755822
-0.00744698
-0.00668315
-0.00521737
-0.00302146
-0.000161666
0.00311712
0.00617256
0.00812198
0.0085894
1.59188e-05
-5.68586e-05
-0.000113166
-0.000418273
-0.00122332
-0.00253327
-0.00409959
-0.00561461
-0.00691762
-0.00782645
-0.008266
-0.00817673
-0.0075304
-0.00624515
-0.00428163
-0.0016539
0.00144979
0.00454724
0.00684586
0.00798447
0.000218019
5.23364e-06
-0.000451066
-0.00130732
-0.00261473
-0.0041792
-0.00574868
-0.00720247
-0.00839352
-0.00917127
-0.00951511
-0.00940441
-0.00882052
-0.00773617
-0.00611814
-0.00395126
-0.00129499
0.00163469
0.0043039
0.00593653
0.000302406
-0.000168866
-0.00114753
-0.00260782
-0.00431298
-0.00602168
-0.0075684
-0.00884118
-0.00976827
-0.0103577
-0.010603
-0.01049
-0.0100043
-0.0091319
-0.00785285
-0.00614685
-0.00400275
-0.001474
0.00109914
0.0028114
-0.000144944
-0.00085101
-0.00226571
-0.00412123
-0.00599878
-0.00768143
-0.00907544
-0.01015
-0.0109058
-0.0113703
-0.0115471
-0.0114358
-0.0110295
-0.010326
-0.00931937
-0.00799805
-0.00633326
-0.00430045
-0.00207917
-0.000504743
-0.00118201
-0.00202108
-0.00367617
-0.00562754
-0.00748359
-0.0090394
-0.0102678
-0.0111882
-0.0118281
-0.0122106
-0.0123447
-0.0122384
-0.0118938
-0.0113166
-0.0105113
-0.00947641
-0.0081958
-0.00662577
-0.00494483
-0.00350701
-0.00259167
-0.00347037
-0.00513896
-0.00699703
-0.008724
-0.0101243
-0.0112129
-0.0120188
-0.0125732
-0.0128965
-0.0130019
-0.012902
-0.0126046
-0.0121201
-0.0114591
-0.010628
-0.00963526
-0.00842774
-0.00721138
-0.00599193
-0.00403352
-0.00485606
-0.00641735
-0.0081369
-0.009711
-0.0109692
-0.0119483
-0.0126695
-0.0131612
-0.0134425
-0.0135291
-0.0134357
-0.0131729
-0.0127532
-0.0121915
-0.011498
-0.0107107
-0.00976103
-0.00889925
-0.00788064
-0.0051942
-0.00595472
-0.00738799
-0.00898801
-0.0104319
-0.0115807
-0.0124814
-0.0131453
-0.0135959
-0.0138509
-0.0139269
-0.013839
-0.0135986
-0.0132184
-0.0127181
-0.0121052
-0.0114572
-0.01065
-0.0100507
-0.00919331
-0.00595338
-0.00664163
-0.00797745
-0.0095035
-0.0108609
-0.0119456
-0.0128047
-0.0134407
-0.0138719
-0.0141149
-0.0141871
-0.0141027
-0.0138729
-0.0135084
-0.0130379
-0.0124463
-0.0119055
-0.0111198
-0.0107501
-0.00993513
-0.00624338
-0.006891
-0.00816463
-0.00966049
-0.0109836
-0.0120548
-0.0129091
-0.013546
-0.0139793
-0.0142246
-0.0142986
-0.014214
-0.0139833
-0.0136084
-0.0131423
-0.012511
-0.0120573
-0.0111733
-0.011038
-0.0101196
-0.0060595
-0.00670659
-0.00794307
-0.00944708
-0.0107867
-0.0118927
-0.0127797
-0.0134486
-0.0139079
-0.0141705
-0.0142511
-0.0141615
-0.0139136
-0.0135148
-0.0130006
-0.0123378
-0.0118537
-0.0108637
-0.0109406
-0.00974388
-0.00547853
-0.006163
-0.00738613
-0.00886929
-0.0102757
-0.011451
-0.0124048
-0.0131365
-0.0136465
-0.0139416
-0.0140345
-0.0139357
-0.0136582
-0.0132083
-0.0126222
-0.0118978
-0.0112894
-0.0102496
-0.0103956
-0.00886582
-0.00471948
-0.00540367
-0.00656332
-0.00795159
-0.00941751
-0.0106924
-0.0117553
-0.0125887
-0.01318
-0.0135279
-0.0136429
-0.013533
-0.0132132
-0.0126883
-0.0120026
-0.0111665
-0.0103917
-0.0093171
-0.009388
-0.00758613
-0.00404397
-0.00461329
-0.00558818
-0.00679216
-0.0082077
-0.00959217
-0.0108079
-0.0117875
-0.0124969
-0.0129238
-0.0130759
-0.012958
-0.0125864
-0.0119662
-0.011149
-0.0101516
-0.00917847
-0.0080193
-0.00794081
-0.00591943
-0.00373658
-0.00396499
-0.00450858
-0.00539755
-0.00666914
-0.00813962
-0.00953972
-0.0107119
-0.0115849
-0.0121276
-0.0123417
-0.0122284
-0.0118089
-0.0110829
-0.0101072
-0.00890546
-0.00768241
-0.00632781
-0.0060081
-0.00356882
-0.00382079
-0.00353353
-0.00340118
-0.00384083
-0.00491013
-0.0064129
-0.00798903
-0.00938104
-0.0104616
-0.0111667
-0.0114856
-0.0114115
-0.0109626
-0.0101361
-0.00898994
-0.00754328
-0.00597941
-0.00420968
-0.00328103
0.00065435
-0.00324396
-0.00286134
-0.00217552
-0.00219191
-0.00309135
-0.00462126
-0.00633834
-0.00791352
-0.00919238
-0.0100775
-0.0105294
-0.0105274
-0.0100923
-0.00922174
-0.00793904
-0.0062286
-0.00418637
-0.00158662
0.00096952
0.00907963
-0.00399012
-0.00265981
-0.00123008
-0.000908639
-0.0017383
-0.00329088
-0.00510409
-0.00682384
-0.0082519
-0.00927799
-0.00984673
-0.00994045
-0.00954466
-0.00865141
-0.00722408
-0.00517514
-0.00240409
0.00177052
0.00766244
0.0223825
-0.00197836
0.000881518
0.00100369
0.000365522
-0.000806603
-0.00244286
-0.00431711
-0.00613687
-0.00766069
-0.00875952
-0.00937317
-0.0094781
-0.00905707
-0.00808982
-0.00652339
-0.0041911
-0.000259174
0.00634578
0.0170096
0.0347862
)
;

boundaryField
{
    movingWall
    {
        type            zeroGradient;
    }
    fixedWalls
    {
        type            zeroGradient;
    }
    frontAndBack
    {
        type            empty;
    }
}


// ************************************************************************* //
