/*--------------------------------*- C++ -*----------------------------------*\
| =========                 |                                                 |
| \\      /  F ield         | OpenFOAM: The Open Source CFD Toolbox           |
|  \\    /   O peration     | Version:  3.0.0                                 |
|   \\  /    A nd           | Web:      www.OpenFOAM.org                      |
|    \\/     M anipulation  |                                                 |
\*---------------------------------------------------------------------------*/
FoamFile
{
    version     2.0;
    format      ascii;
    class       surfaceScalarField;
    location    "6";
    object      phi;
}
// * * * * * * * * * * * * * * * * * * * * * * * * * * * * * * * * * * * * * //

dimensions      [0 3 -1 0 0 0 0];

internalField   nonuniform List<scalar> 
760
(
2.34518e-07
-2.34529e-07
1.94287e-07
4.02312e-08
-1.96552e-07
3.90838e-07
-1.22218e-06
1.02563e-06
-2.76002e-06
1.53784e-06
-4.24974e-06
1.48972e-06
-5.4846e-06
1.23487e-06
-6.47952e-06
9.9492e-07
-7.18259e-06
7.03065e-07
-7.6877e-06
5.05115e-07
-7.95533e-06
2.67623e-07
-8.05317e-06
9.78433e-08
-7.92364e-06
-1.29535e-07
-7.59455e-06
-3.29087e-07
-6.98005e-06
-6.14497e-07
-6.04368e-06
-9.36367e-07
-4.69533e-06
-1.34835e-06
-2.97229e-06
-1.72305e-06
-1.09432e-06
-1.87797e-06
-1.09432e-06
-8.29212e-08
-1.51608e-07
-7.1521e-07
6.7252e-07
-2.06773e-06
1.74336e-06
-3.7414e-06
2.6993e-06
-5.01656e-06
2.813e-06
-5.99595e-06
2.46911e-06
-6.82788e-06
2.06679e-06
-7.43633e-06
1.60337e-06
-7.92604e-06
1.19277e-06
-8.21392e-06
7.92999e-07
-8.35847e-06
4.1217e-07
-8.28927e-06
2.86414e-08
-8.1123e-06
-3.065e-07
-7.75551e-06
-6.85883e-07
-7.21189e-06
-1.15811e-06
-6.4049e-06
-1.74336e-06
-5.27455e-06
-2.4787e-06
-3.71638e-06
-3.28122e-06
-1.81378e-06
-3.78057e-06
-2.9081e-06
-7.10568e-07
5.58961e-07
-1.97877e-06
1.94072e-06
-3.47746e-06
3.24205e-06
-4.59124e-06
3.81308e-06
-5.39133e-06
3.61309e-06
-6.03358e-06
3.11137e-06
-6.49475e-06
2.52796e-06
-6.78094e-06
1.88955e-06
-6.93461e-06
1.34645e-06
-6.96093e-06
8.19311e-07
-6.92432e-06
3.75566e-07
-6.83682e-06
-5.88583e-08
-6.66069e-06
-4.8263e-07
-6.37914e-06
-9.67435e-07
-5.98844e-06
-1.54881e-06
-5.43524e-06
-2.29656e-06
-4.65703e-06
-3.25691e-06
-3.5391e-06
-4.39915e-06
-1.99527e-06
-5.32439e-06
-4.90337e-06
-1.10757e-06
1.66653e-06
-2.52344e-06
3.35659e-06
-3.69455e-06
4.41315e-06
-4.45644e-06
4.57498e-06
-4.94592e-06
4.10256e-06
-5.24289e-06
3.40833e-06
-5.37615e-06
2.66122e-06
-5.43983e-06
1.95324e-06
-5.45533e-06
1.36196e-06
-5.44929e-06
8.13267e-07
-5.39814e-06
3.24412e-07
-5.29848e-06
-1.58514e-07
-5.13372e-06
-6.47385e-07
-4.90394e-06
-1.19722e-06
-4.60038e-06
-1.85237e-06
-4.21325e-06
-2.68369e-06
-3.70089e-06
-3.76927e-06
-2.93452e-06
-5.16553e-06
-1.71566e-06
-6.54326e-06
-6.61903e-06
-1.2343e-06
2.90082e-06
-2.44543e-06
4.56772e-06
-3.27913e-06
5.24685e-06
-3.7972e-06
5.09305e-06
-4.06099e-06
4.36636e-06
-4.18614e-06
3.53348e-06
-4.24423e-06
2.71931e-06
-4.2805e-06
1.9895e-06
-4.27854e-06
1.36e-06
-4.24763e-06
7.82357e-07
-4.17724e-06
2.54021e-07
-4.06675e-06
-2.69003e-07
-3.90769e-06
-8.06444e-07
-3.70254e-06
-1.40237e-06
-3.45069e-06
-2.10422e-06
-3.15206e-06
-2.98231e-06
-2.79085e-06
-4.13048e-06
-2.27936e-06
-5.67702e-06
-1.40279e-06
-7.41983e-06
-8.02181e-06
-1.07984e-06
3.98067e-06
-2.01994e-06
5.50782e-06
-2.63823e-06
5.86514e-06
-2.99503e-06
5.44985e-06
-3.16308e-06
4.53441e-06
-3.25067e-06
3.62107e-06
-3.29759e-06
2.76624e-06
-3.32335e-06
2.01526e-06
-3.31679e-06
1.35344e-06
-3.28027e-06
7.45836e-07
-3.20823e-06
1.81974e-07
-3.10165e-06
-3.75578e-07
-2.95643e-06
-9.51667e-07
-2.77449e-06
-1.58431e-06
-2.5609e-06
-2.31781e-06
-2.32343e-06
-3.21978e-06
-2.07157e-06
-4.38234e-06
-1.74499e-06
-6.0036e-06
-1.08586e-06
-8.07897e-06
-9.10768e-06
-8.37145e-07
4.81781e-06
-1.50755e-06
6.17823e-06
-1.96236e-06
6.31995e-06
-2.21517e-06
5.70266e-06
-2.35098e-06
4.67022e-06
-2.4319e-06
3.70198e-06
-2.4834e-06
2.81773e-06
-2.51019e-06
2.04205e-06
-2.50719e-06
1.35044e-06
-2.47673e-06
7.15382e-07
-2.41602e-06
1.21258e-07
-2.3262e-06
-4.65394e-07
-2.20414e-06
-1.07373e-06
-2.05104e-06
-1.73741e-06
-1.87361e-06
-2.49524e-06
-1.67961e-06
-3.41378e-06
-1.48382e-06
-4.57813e-06
-1.24742e-06
-6.23999e-06
-8.72149e-07
-8.45424e-06
-9.97982e-06
-5.36919e-07
5.35473e-06
-9.9647e-07
6.63778e-06
-1.32498e-06
6.64847e-06
-1.51055e-06
5.88823e-06
-1.62622e-06
4.78589e-06
-1.70465e-06
3.78041e-06
-1.76068e-06
2.87376e-06
-1.79265e-06
2.07402e-06
-1.79873e-06
1.35652e-06
-1.78178e-06
6.98428e-07
-1.7408e-06
8.02815e-08
-1.67581e-06
-5.30392e-07
-1.58383e-06
-1.1657e-06
-1.46518e-06
-1.85606e-06
-1.32775e-06
-2.63267e-06
-1.18172e-06
-3.55981e-06
-1.04713e-06
-4.71271e-06
-8.91581e-07
-6.39555e-06
-6.46375e-07
-8.69945e-06
-1.06262e-05
-2.77273e-07
5.632e-06
-5.40787e-07
6.9013e-06
-7.38819e-07
6.8465e-06
-8.64179e-07
6.01359e-06
-9.61593e-07
4.88331e-06
-1.03562e-06
3.85444e-06
-1.09344e-06
2.93158e-06
-1.1307e-06
2.11128e-06
-1.14755e-06
1.37338e-06
-1.14741e-06
6.98284e-07
-1.13005e-06
6.29175e-08
-1.09398e-06
-5.66453e-07
-1.03708e-06
-1.22261e-06
-9.58538e-07
-1.9346e-06
-8.64817e-07
-2.72639e-06
-7.65486e-07
-3.65915e-06
-6.90752e-07
-4.78744e-06
-6.17592e-07
-6.46871e-06
-5.1529e-07
-8.80175e-06
-1.11415e-05
-2.42472e-09
5.63443e-06
-1.12042e-07
7.01091e-06
-1.93488e-07
6.92794e-06
-2.72259e-07
6.09236e-06
-3.41582e-07
4.95263e-06
-4.04094e-07
3.91695e-06
-4.56468e-07
2.98395e-06
-4.94933e-07
2.14975e-06
-5.2082e-07
1.39926e-06
-5.37094e-07
7.14558e-07
-5.42863e-07
6.86871e-08
-5.36642e-07
-5.72674e-07
-5.18006e-07
-1.24124e-06
-4.82206e-07
-1.9704e-06
-4.46136e-07
-2.76246e-06
-4.01126e-07
-3.70416e-06
-3.99265e-07
-4.78931e-06
-4.01378e-07
-6.46659e-06
-3.78735e-07
-8.82439e-06
-1.15202e-05
2.38978e-07
5.39545e-06
3.20188e-07
6.9297e-06
3.63147e-07
6.88498e-06
3.26033e-07
6.12947e-06
2.77407e-07
5.00126e-06
2.26242e-07
3.96812e-06
1.80235e-07
3.02996e-06
1.41277e-07
2.18871e-06
1.07543e-07
1.433e-06
7.71784e-08
7.44922e-07
5.05773e-08
9.52884e-08
2.82073e-08
-5.50304e-07
1.11513e-08
-1.22419e-06
-1.10663e-08
-1.94818e-06
-9.27018e-09
-2.76426e-06
-7.15335e-08
-3.64189e-06
-1.06258e-07
-4.75458e-06
-2.15423e-07
-6.35743e-06
-3.03538e-07
-8.73627e-06
-1.18238e-05
4.8977e-07
4.90568e-06
7.57099e-07
6.66238e-06
9.12319e-07
6.72976e-06
9.14203e-07
6.12759e-06
8.83658e-07
5.0318e-06
8.53545e-07
3.99823e-06
8.23047e-07
3.06046e-06
7.91463e-07
2.22029e-06
7.56446e-07
1.46802e-06
7.16682e-07
7.84686e-07
6.71307e-07
1.40663e-07
6.20225e-07
-4.99221e-07
5.59798e-07
-1.16376e-06
4.94782e-07
-1.88317e-06
4.04293e-07
-2.67377e-06
2.99449e-07
-3.53705e-06
1.61066e-07
-4.6162e-06
-6.23938e-08
-6.13397e-06
-1.92376e-07
-8.60629e-06
-1.20161e-05
7.34718e-07
4.17096e-06
1.15453e-06
6.24256e-06
1.44286e-06
6.44144e-06
1.54679e-06
6.02366e-06
1.54813e-06
5.03046e-06
1.5434e-06
4.00296e-06
1.53009e-06
3.07376e-06
1.50567e-06
2.24472e-06
1.46827e-06
1.50541e-06
1.41808e-06
8.34873e-07
1.35326e-06
2.0549e-07
1.27165e-06
-4.17614e-07
1.16839e-06
-1.0605e-06
1.0403e-06
-1.75507e-06
8.79679e-07
-2.51314e-06
6.99183e-07
-3.35655e-06
4.37159e-07
-4.35417e-06
1.43124e-07
-5.83993e-06
-5.65036e-08
-8.40666e-06
-1.20726e-05
9.63688e-07
3.20727e-06
1.56247e-06
5.64378e-06
1.92958e-06
6.07432e-06
2.14506e-06
5.80818e-06
2.21573e-06
4.9598e-06
2.25394e-06
3.96475e-06
2.27273e-06
3.05497e-06
2.27119e-06
2.24626e-06
2.24654e-06
1.53006e-06
2.19768e-06
8.83724e-07
2.11964e-06
2.83532e-07
2.00821e-06
-3.06184e-07
1.8586e-06
-9.10887e-07
1.66585e-06
-1.56233e-06
1.42504e-06
-2.27233e-06
1.14056e-06
-3.07208e-06
7.61447e-07
-3.97506e-06
3.92077e-07
-5.47056e-06
9.22829e-08
-8.10687e-06
-1.19804e-05
1.12199e-06
2.08528e-06
1.83422e-06
4.93155e-06
2.34529e-06
5.56326e-06
2.75356e-06
5.3999e-06
2.97187e-06
4.74149e-06
3.08915e-06
3.84746e-06
3.15299e-06
2.99114e-06
3.17744e-06
2.2218e-06
3.16387e-06
1.54363e-06
3.11172e-06
9.35875e-07
3.0146e-06
3.80653e-07
2.86572e-06
-1.57305e-07
2.66316e-06
-7.08321e-07
2.39856e-06
-1.29773e-06
2.06059e-06
-1.93436e-06
1.64931e-06
-2.6608e-06
1.14053e-06
-3.46628e-06
6.50986e-07
-4.98101e-06
2.26489e-07
-7.68237e-06
-1.17539e-05
1.06662e-06
1.01866e-06
1.91689e-06
4.08128e-06
2.5739e-06
4.90625e-06
3.16234e-06
4.81146e-06
3.59425e-06
4.30958e-06
3.8705e-06
3.57122e-06
4.04016e-06
2.82148e-06
4.13288e-06
2.12908e-06
4.15954e-06
1.51698e-06
4.12501e-06
9.70398e-07
4.02639e-06
4.79274e-07
3.85557e-06
1.35175e-08
3.60492e-06
-4.57669e-07
3.26481e-06
-9.57621e-07
2.81325e-06
-1.4828e-06
2.25337e-06
-2.10091e-06
1.59607e-06
-2.80898e-06
9.55823e-07
-4.34077e-06
4.04944e-07
-7.13149e-06
-1.13489e-05
4.95009e-07
5.23654e-07
1.61912e-06
2.95717e-06
2.60391e-06
3.92145e-06
3.46292e-06
3.95246e-06
4.16664e-06
3.60585e-06
4.67396e-06
3.06391e-06
5.01881e-06
2.47663e-06
5.22895e-06
1.91894e-06
5.32724e-06
1.41868e-06
5.32846e-06
9.6918e-07
5.23231e-06
5.75421e-07
5.03774e-06
2.08092e-07
4.72072e-06
-1.40649e-07
4.29348e-06
-5.30391e-07
3.71394e-06
-9.03255e-07
3.0115e-06
-1.39848e-06
2.20405e-06
-2.00152e-06
1.38701e-06
-3.52373e-06
6.20283e-07
-6.36477e-06
-1.07286e-05
-7.51175e-08
5.98772e-07
8.50721e-07
2.03133e-06
1.97843e-06
2.79375e-06
3.14452e-06
2.78637e-06
4.1637e-06
2.58667e-06
4.97206e-06
2.25555e-06
5.56902e-06
1.87966e-06
5.97764e-06
1.51033e-06
6.21735e-06
1.17897e-06
6.31103e-06
8.75503e-07
6.26448e-06
6.21973e-07
6.10486e-06
3.67713e-07
5.8108e-06
1.53411e-07
5.3881e-06
-1.0769e-07
4.79749e-06
-3.1265e-07
4.09508e-06
-6.96064e-07
3.24987e-06
-1.15631e-06
2.30378e-06
-2.57764e-06
1.11263e-06
-5.17362e-06
-9.61601e-06
-1.11197e-06
1.71074e-06
-3.22058e-07
1.24142e-06
1.19341e-06
1.27827e-06
2.68613e-06
1.29365e-06
3.98072e-06
1.29207e-06
5.04432e-06
1.19196e-06
5.88322e-06
1.04075e-06
6.51856e-06
8.74991e-07
6.97118e-06
7.26347e-07
7.25845e-06
5.88238e-07
7.41343e-06
4.66988e-07
7.43191e-06
3.49235e-07
7.33797e-06
2.47356e-07
7.10084e-06
1.29441e-07
6.76422e-06
2.39632e-08
6.28502e-06
-2.16859e-07
5.64287e-06
-5.14162e-07
4.62356e-06
-1.55834e-06
2.61935e-06
-3.16941e-06
-6.99665e-06
1.71074e-06
2.95216e-06
4.23043e-06
5.52409e-06
6.81616e-06
8.00812e-06
9.04887e-06
9.92386e-06
1.06502e-05
1.12384e-05
1.17054e-05
1.20547e-05
1.2302e-05
1.24315e-05
1.24554e-05
1.22386e-05
1.17244e-05
1.01661e-05
6.99665e-06
)
;

boundaryField
{
    movingWall
    {
        type            calculated;
        value           uniform 0;
    }
    fixedWalls
    {
        type            calculated;
        value           uniform 0;
    }
    frontAndBack
    {
        type            empty;
        value           nonuniform 0();
    }
}


// ************************************************************************* //
