/*--------------------------------*- C++ -*----------------------------------*\
| =========                 |                                                 |
| \\      /  F ield         | OpenFOAM: The Open Source CFD Toolbox           |
|  \\    /   O peration     | Version:  3.0.0                                 |
|   \\  /    A nd           | Web:      www.OpenFOAM.org                      |
|    \\/     M anipulation  |                                                 |
\*---------------------------------------------------------------------------*/
FoamFile
{
    version     2.0;
    format      ascii;
    class       volVectorField;
    location    "6";
    object      U;
}
// * * * * * * * * * * * * * * * * * * * * * * * * * * * * * * * * * * * * * //

dimensions      [0 1 -1 0 0 0 0];

internalField   nonuniform List<vector> 
400
(
(0.00280878 -0.0031752 0)
(0.00601022 -0.00131427 0)
(0.00168127 0.000675019 0)
(-0.00877866 0.00530951 0)
(-0.0365429 0.014343 0)
(-0.0761008 0.0162883 0)
(-0.0997819 0.0122377 0)
(-0.124365 0.0111761 0)
(-0.137947 0.00800674 0)
(-0.151251 0.00654788 0)
(-0.157556 0.00375425 0)
(-0.16126 0.00255634 0)
(-0.161702 -0.000610941 0)
(-0.155961 -0.00287719 0)
(-0.146303 -0.00647348 0)
(-0.129072 -0.00949372 0)
(-0.105629 -0.01343 0)
(-0.0742539 -0.0156833 0)
(-0.0405245 -0.0162807 0)
(-0.00769714 -0.00330849 0)
(0.00129968 -0.00703489 0)
(-0.00497998 0.00282142 0)
(-0.0218537 0.0166687 0)
(-0.0581067 0.03862 0)
(-0.0909912 0.0451204 0)
(-0.113617 0.039485 0)
(-0.131105 0.0339007 0)
(-0.144587 0.0266175 0)
(-0.155445 0.0187332 0)
(-0.162841 0.0125383 0)
(-0.166886 0.00617258 0)
(-0.167921 0.000764211 0)
(-0.165321 -0.00554091 0)
(-0.159924 -0.0121014 0)
(-0.150003 -0.02078 0)
(-0.135547 -0.0312169 0)
(-0.11496 -0.0440831 0)
(-0.0883959 -0.0562524 0)
(-0.0559141 -0.0592381 0)
(-0.0171461 -0.0364511 0)
(-0.00454688 0.0018945 0)
(-0.023301 0.025851 0)
(-0.0537517 0.0526971 0)
(-0.0839723 0.06607 0)
(-0.102924 0.0639058 0)
(-0.116619 0.0558328 0)
(-0.126827 0.0453578 0)
(-0.134866 0.0340602 0)
(-0.138137 0.0254157 0)
(-0.139522 0.0161453 0)
(-0.139223 0.00810758 0)
(-0.138011 -0.000208955 0)
(-0.13584 -0.00842417 0)
(-0.131091 -0.0178023 0)
(-0.124353 -0.0290031 0)
(-0.114188 -0.0434232 0)
(-0.100261 -0.0616037 0)
(-0.0805368 -0.0825145 0)
(-0.0546359 -0.0978245 0)
(-0.0208227 -0.0838043 0)
(-0.00799515 0.0224908 0)
(-0.0355209 0.0546186 0)
(-0.0658839 0.0783653 0)
(-0.0851411 0.0834208 0)
(-0.0966084 0.0767213 0)
(-0.103846 0.0648874 0)
(-0.107485 0.0520032 0)
(-0.108565 0.038862 0)
(-0.108896 0.0272433 0)
(-0.109395 0.0164511 0)
(-0.108726 0.00711803 0)
(-0.107346 -0.00210242 0)
(-0.104726 -0.0113427 0)
(-0.100837 -0.0218466 0)
(-0.0955805 -0.0344757 0)
(-0.0886388 -0.0507448 0)
(-0.0791937 -0.0720675 0)
(-0.0653595 -0.0984346 0)
(-0.0457607 -0.12222 0)
(-0.0179674 -0.120349 0)
(-0.00967896 0.0453153 0)
(-0.0394659 0.0791226 0)
(-0.0611749 0.0959949 0)
(-0.0741798 0.0963243 0)
(-0.080628 0.0846687 0)
(-0.0833105 0.0698165 0)
(-0.0845789 0.0543859 0)
(-0.085178 0.0399408 0)
(-0.0856733 0.0274792 0)
(-0.0854073 0.0160706 0)
(-0.0844664 0.00580723 0)
(-0.0826704 -0.00428965 0)
(-0.0799842 -0.0146008 0)
(-0.0763505 -0.0260769 0)
(-0.0718658 -0.0397028 0)
(-0.0665208 -0.0569567 0)
(-0.0599505 -0.0798725 0)
(-0.0498861 -0.11094 0)
(-0.036455 -0.143028 0)
(-0.0153825 -0.150125 0)
(-0.00860185 0.0678564 0)
(-0.0350293 0.100651 0)
(-0.049555 0.110616 0)
(-0.0596196 0.105128 0)
(-0.0626694 0.0891223 0)
(-0.0642888 0.0719227 0)
(-0.0654235 0.0551583 0)
(-0.0661409 0.0402754 0)
(-0.066505 0.0272767 0)
(-0.066045 0.0153691 0)
(-0.0650345 0.0043866 0)
(-0.0632302 -0.00644442 0)
(-0.0607332 -0.0175918 0)
(-0.0574439 -0.0298581 0)
(-0.053529 -0.0441486 0)
(-0.049096 -0.0618197 0)
(-0.0443471 -0.0847528 0)
(-0.0369317 -0.116463 0)
(-0.0303092 -0.156934 0)
(-0.00863603 -0.173471 0)
(-0.0071519 0.087143 0)
(-0.0272805 0.115549 0)
(-0.0366323 0.120734 0)
(-0.0446786 0.111062 0)
(-0.0460008 0.0920098 0)
(-0.0478049 0.07332 0)
(-0.0490693 0.0558919 0)
(-0.0499004 0.0406016 0)
(-0.0502397 0.027038 0)
(-0.0498647 0.0145764 0)
(-0.0490055 0.00295812 0)
(-0.0474857 -0.00851698 0)
(-0.0453944 -0.0203818 0)
(-0.0426265 -0.0333559 0)
(-0.039326 -0.0482799 0)
(-0.035543 -0.0665056 0)
(-0.0321751 -0.089869 0)
(-0.0256162 -0.122909 0)
(-0.0242888 -0.165878 0)
(-0.00645599 -0.192127 0)
(-0.00389426 0.101322 0)
(-0.0183683 0.128258 0)
(-0.024559 0.129856 0)
(-0.0307952 0.115893 0)
(-0.0312621 0.0945369 0)
(-0.0332952 0.074805 0)
(-0.0345841 0.0568744 0)
(-0.0355036 0.0411089 0)
(-0.0359309 0.0269922 0)
(-0.0357857 0.014026 0)
(-0.035245 0.00187042 0)
(-0.0341868 -0.0101383 0)
(-0.0326429 -0.022593 0)
(-0.0305208 -0.0361279 0)
(-0.0279656 -0.0514391 0)
(-0.0247954 -0.0698523 0)
(-0.0230782 -0.0928616 0)
(-0.0172237 -0.126353 0)
(-0.020007 -0.171669 0)
(-0.00229632 -0.206653 0)
(-0.00156063 0.110443 0)
(-0.0101504 0.134809 0)
(-0.0136642 0.134505 0)
(-0.0178051 0.118672 0)
(-0.0179255 0.0964883 0)
(-0.0200006 0.0762517 0)
(-0.0212406 0.0579986 0)
(-0.0222119 0.0418005 0)
(-0.0227545 0.0272231 0)
(-0.022891 0.0138536 0)
(-0.0227588 0.00127702 0)
(-0.0222366 -0.0111714 0)
(-0.0213227 -0.0241283 0)
(-0.0199332 -0.0381918 0)
(-0.0183218 -0.0538758 0)
(-0.0156573 -0.0725725 0)
(-0.0158273 -0.0952946 0)
(-0.0100509 -0.129118 0)
(-0.0166519 -0.175131 0)
(-0.00084683 -0.218223 0)
(0.00226251 0.113644 0)
(-0.00239725 0.140516 0)
(-0.0030671 0.138817 0)
(-0.00577343 0.121519 0)
(-0.00574077 0.0986473 0)
(-0.00752076 0.077855 0)
(-0.00857498 0.0592018 0)
(-0.00947635 0.042594 0)
(-0.0100985 0.0276697 0)
(-0.0105049 0.01403 0)
(-0.0107674 0.00117608 0)
(-0.0107732 -0.0115852 0)
(-0.0105369 -0.0248892 0)
(-0.00990932 -0.0393344 0)
(-0.00953405 -0.0552441 0)
(-0.00739758 -0.0739033 0)
(-0.00988557 -0.0961608 0)
(-0.00409272 -0.129568 0)
(-0.014314 -0.17633 0)
(0.00204818 -0.227065 0)
(0.00509983 0.111636 0)
(0.00436906 0.140247 0)
(0.00693531 0.138575 0)
(0.00605747 0.121908 0)
(0.00641157 0.0993476 0)
(0.00499923 0.0786626 0)
(0.0040933 0.0600167 0)
(0.00326168 0.0432997 0)
(0.00254573 0.0282389 0)
(0.00190291 0.0144898 0)
(0.00130135 0.00150997 0)
(0.000817144 -0.0114148 0)
(0.000346503 -0.0248941 0)
(0.000206514 -0.0394898 0)
(-0.000762328 -0.0556187 0)
(0.000629634 -0.0737699 0)
(-0.00436494 -0.0960555 0)
(0.00161354 -0.128437 0)
(-0.0126445 -0.176223 0)
(0.00354752 -0.23371 0)
(0.00720676 0.105464 0)
(0.0117558 0.138734 0)
(0.0166217 0.13807 0)
(0.0175543 0.123599 0)
(0.0181955 0.100841 0)
(0.017407 0.079958 0)
(0.0168338 0.0610391 0)
(0.0162516 0.0441063 0)
(0.0156108 0.0289479 0)
(0.0148672 0.0151929 0)
(0.0139862 0.00222904 0)
(0.0130455 -0.0106742 0)
(0.0118908 -0.0241167 0)
(0.0108274 -0.0386249 0)
(0.00867235 -0.0547428 0)
(0.00884481 -0.0722706 0)
(0.00132224 -0.0941279 0)
(0.00724888 -0.125163 0)
(-0.0114088 -0.173973 0)
(0.00668859 -0.238068 0)
(0.0102557 0.0941359 0)
(0.0178076 0.130825 0)
(0.0261861 0.132288 0)
(0.0291948 0.122016 0)
(0.0311064 0.0999005 0)
(0.0310212 0.0794275 0)
(0.0308093 0.060977 0)
(0.0304767 0.0444188 0)
(0.0298991 0.0295825 0)
(0.0290436 0.0160859 0)
(0.0278584 0.00335204 0)
(0.0264728 -0.00931223 0)
(0.0245161 -0.0224463 0)
(0.022609 -0.0366629 0)
(0.0190161 -0.0522401 0)
(0.0177221 -0.0694396 0)
(0.00794053 -0.0901545 0)
(0.0129864 -0.120297 0)
(-0.0100159 -0.170473 0)
(0.0096305 -0.240675 0)
(0.0124409 0.0765166 0)
(0.0243145 0.122629 0)
(0.0358391 0.127228 0)
(0.0398833 0.120189 0)
(0.0435096 0.101385 0)
(0.044677 0.0803456 0)
(0.0452637 0.061631 0)
(0.0455434 0.0451068 0)
(0.0453636 0.0304674 0)
(0.0446957 0.017233 0)
(0.0433688 0.00486676 0)
(0.0416512 -0.00732761 0)
(0.0387991 -0.0198569 0)
(0.03606 -0.0333766 0)
(0.0307384 -0.048161 0)
(0.0278938 -0.0646808 0)
(0.0155279 -0.0837695 0)
(0.0190887 -0.11383 0)
(-0.00798339 -0.165499 0)
(0.0142236 -0.241744 0)
(0.0150535 0.055266 0)
(0.0281824 0.106343 0)
(0.0430119 0.116784 0)
(0.0507095 0.11222 0)
(0.0566876 0.0975272 0)
(0.0602843 0.078148 0)
(0.06227 0.0602403 0)
(0.0633805 0.0444465 0)
(0.0636187 0.0305724 0)
(0.0631215 0.0181134 0)
(0.061486 0.00657765 0)
(0.0593776 -0.00472137 0)
(0.0553909 -0.0162161 0)
(0.0517957 -0.0286279 0)
(0.0444021 -0.0421631 0)
(0.0398443 -0.0575467 0)
(0.0243021 -0.0748197 0)
(0.0259385 -0.105365 0)
(-0.00570144 -0.159363 0)
(0.018864 -0.242111 0)
(0.0128537 0.0284693 0)
(0.0309792 0.0924225 0)
(0.0464648 0.107364 0)
(0.0573996 0.10534 0)
(0.0665656 0.0940261 0)
(0.0738597 0.0771366 0)
(0.0787232 0.0601398 0)
(0.0817606 0.0448205 0)
(0.0831113 0.0314939 0)
(0.0833921 0.0196985 0)
(0.0817373 0.00904833 0)
(0.0796763 -0.00119132 0)
(0.074657 -0.0113939 0)
(0.0703546 -0.0223156 0)
(0.0605939 -0.0340319 0)
(0.053995 -0.0476283 0)
(0.0347634 -0.062974 0)
(0.034161 -0.0943602 0)
(-0.00299332 -0.151172 0)
(0.0250207 -0.240224 0)
(-0.00153576 0.00794549 0)
(0.0232614 0.0657948 0)
(0.0447027 0.087084 0)
(0.0606608 0.0885981 0)
(0.0750498 0.0809822 0)
(0.0871764 0.0685126 0)
(0.0961706 0.0550073 0)
(0.102431 0.0418798 0)
(0.105579 0.0300922 0)
(0.107384 0.0196362 0)
(0.105772 0.0104231 0)
(0.10397 0.0017907 0)
(0.0975538 -0.00646289 0)
(0.0922479 -0.0150705 0)
(0.0797567 -0.0239328 0)
(0.0708999 -0.0348176 0)
(0.0482466 -0.0481954 0)
(0.0452997 -0.0802504 0)
(0.000909366 -0.140142 0)
(0.0327865 -0.23188 0)
(-0.0105429 0.0173534 0)
(0.00786013 0.0580818 0)
(0.0299867 0.0742402 0)
(0.0512382 0.0743695 0)
(0.0716021 0.0683203 0)
(0.0903023 0.0586848 0)
(0.104531 0.0482268 0)
(0.115682 0.0386259 0)
(0.121649 0.0297841 0)
(0.126307 0.0215862 0)
(0.125835 0.0144211 0)
(0.125278 0.00766854 0)
(0.11893 0.00176108 0)
(0.113991 -0.00458184 0)
(0.101128 -0.0104442 0)
(0.091996 -0.0194228 0)
(0.0693932 -0.0309073 0)
(0.0647384 -0.0627332 0)
(0.0133361 -0.121056 0)
(0.0478066 -0.204798 0)
(-0.0200494 -5.42095e-05 0)
(-0.0199487 0.0118424 0)
(0.00963326 0.0295698 0)
(0.0386251 0.0338122 0)
(0.0656633 0.0342649 0)
(0.089781 0.0315542 0)
(0.108597 0.0271897 0)
(0.124363 0.0219356 0)
(0.13487 0.0174364 0)
(0.143194 0.0131101 0)
(0.146944 0.00976285 0)
(0.149443 0.00607079 0)
(0.147741 0.00354949 0)
(0.145322 -0.000510027 0)
(0.137699 -0.00328775 0)
(0.131737 -0.0096185 0)
(0.114688 -0.0174039 0)
(0.108841 -0.0432241 0)
(0.0557562 -0.0872059 0)
(0.0815738 -0.152304 0)
(0.0402877 0.0798331 0)
(0.0402273 0.0497771 0)
(0.0696565 0.0300819 0)
(0.0974792 0.0227214 0)
(0.122774 0.0201673 0)
(0.147568 0.0182953 0)
(0.169677 0.016443 0)
(0.189523 0.0147789 0)
(0.205765 0.0130781 0)
(0.219452 0.0117595 0)
(0.229803 0.0102269 0)
(0.238232 0.00923644 0)
(0.243658 0.00765612 0)
(0.247641 0.00680201 0)
(0.248574 0.00478454 0)
(0.246414 0.00253593 0)
(0.238483 0.00118363 0)
(0.223864 -0.00787603 0)
(0.171255 -0.0171424 0)
(0.157102 -0.0941385 0)
)
;

boundaryField
{
    movingWall
    {
        type            fixedValue;
        value           uniform (1 0 0);
    }
    fixedWalls
    {
        type            fixedValue;
        value           uniform (0 0 0);
    }
    frontAndBack
    {
        type            empty;
    }
}


// ************************************************************************* //
