/*--------------------------------*- C++ -*----------------------------------*\
| =========                 |                                                 |
| \\      /  F ield         | OpenFOAM: The Open Source CFD Toolbox           |
|  \\    /   O peration     | Version:  3.0.0                                 |
|   \\  /    A nd           | Web:      www.OpenFOAM.org                      |
|    \\/     M anipulation  |                                                 |
\*---------------------------------------------------------------------------*/
FoamFile
{
    version     2.0;
    format      ascii;
    class       volScalarField;
    location    "8.25";
    object      p;
}
// * * * * * * * * * * * * * * * * * * * * * * * * * * * * * * * * * * * * * //

dimensions      [0 2 -2 0 0 0 0];

internalField   nonuniform List<scalar> 
4096
(
0.00300049
-0.0190968
-0.0288162
-0.0341993
-0.0364006
-0.0375263
-0.0395119
-0.0417851
-0.0397968
-0.0320793
-0.0187313
-0.00304662
0.0106098
0.0175887
0.0161941
0.0147237
0.0108541
-0.0121141
-0.0177834
-0.0197622
-0.019309
-0.0183621
-0.0189976
-0.0207808
-0.0214275
-0.0170028
-0.00678256
0.00648056
0.018071
0.0232795
0.0206747
0.0235364
0.0307218
0.00589732
0.00273456
0.0022389
0.00348263
0.00510558
0.00507514
0.00305714
0.000826938
0.00178907
0.00827278
0.0189732
0.0295056
0.0345191
0.0325685
0.0416364
0.0446581
0.0210408
0.0215472
0.0237335
0.0266035
0.0290702
0.02919
0.0263174
0.0218659
0.0189108
0.0206793
0.0275126
0.0357418
0.0398111
0.0383262
0.0526309
0.0486869
0.0296208
0.0347481
0.0407518
0.0463524
0.0504518
0.0509554
0.0469973
0.0397641
0.032362
0.0286112
0.0303206
0.0349488
0.0372259
0.0357883
0.0526497
0.0416211
0.0297158
0.0391812
0.049364
0.0585807
0.0653146
0.0672708
0.0631744
0.0538348
0.0423417
0.0329376
0.0286935
0.0285485
0.0280561
0.0258958
0.0414406
0.0247324
0.0207593
0.0331285
0.0467959
0.0596954
0.0698141
0.0744717
0.0718932
0.062374
0.0485778
0.03486
0.0249446
0.0193862
0.015221
0.0113281
0.0217336
0.00294937
0.00501597
0.0180226
0.0334105
0.0489529
0.0622665
0.0702817
0.0705376
0.062768
0.0493463
0.0341043
0.0206847
0.0105873
0.0025527
-0.00381963
-0.00040818
-0.016279
-0.0127722
-0.00154153
0.0131285
0.0292921
0.044502
0.0554222
0.059056
0.0544242
0.0434415
0.029795
0.0164307
0.00458203
-0.00603395
-0.014886
-0.0172902
-0.0270065
-0.027619
-0.0201551
-0.00857089
0.00580431
0.0209024
0.0334397
0.0400783
0.0392638
0.0323443
0.0226254
0.0126288
0.00265103
-0.00798701
-0.0185212
-0.0237363
-0.0293951
-0.0373058
-0.0345424
-0.0275577
-0.0166804
-0.00369168
0.00871804
0.0173812
0.0204238
0.0185375
0.0142565
0.00950624
0.00385294
-0.00454654
-0.0157535
-0.0214385
-0.0286421
-0.0426625
-0.0442132
-0.0414868
-0.0351236
-0.0256506
-0.0150732
-0.00579634
0.000418685
0.00355352
0.00501466
0.00571229
0.0046896
-0.000666487
-0.0114062
-0.0172127
-0.0289285
-0.0454471
-0.0502495
-0.0507721
-0.0480618
-0.0428144
-0.0352826
-0.0270017
-0.019041
-0.0119501
-0.00559152
-0.000378968
0.00229324
-0.000293657
-0.00945732
-0.0158286
-0.0304735
-0.046653
-0.0534916
-0.055836
-0.0553611
-0.053293
-0.0496288
-0.0437892
-0.0358379
-0.0264925
-0.0166419
-0.00798955
-0.00252182
-0.00282202
-0.0099159
-0.0173294
-0.0297148
-0.0450963
-0.0529378
-0.055998
-0.0563052
-0.055981
-0.0552621
-0.0524495
-0.0460555
-0.0361971
-0.0244609
-0.0133997
-0.00578754
-0.00408152
-0.00924706
-0.0173642
-0.0122383
-0.029965
-0.0401104
-0.0453848
-0.0472653
-0.0479622
-0.0488556
-0.0484797
-0.0449086
-0.0365458
-0.0241872
-0.0106779
0.000454161
0.00578773
0.00375073
-0.00204334
0.00732339
-0.0158712
-0.0240548
-0.0285485
-0.0302256
-0.030697
-0.031453
-0.0317099
-0.0287705
-0.0207701
-0.00808397
0.00592495
0.0173366
0.0223328
0.0196976
0.0206698
0.0225746
-0.00130976
-0.0065475
-0.0095739
-0.0110388
-0.0119793
-0.0136466
-0.0153056
-0.0145186
-0.0088158
0.00186075
0.0146888
0.0255129
0.0303391
0.0282706
0.0352522
0.0401875
0.0165837
0.0143902
0.0132938
0.0126295
0.0116401
0.00911587
0.0055647
0.00344206
0.00576481
0.0136063
0.0247156
0.0348263
0.0395425
0.0382712
0.050554
0.0483653
0.0281172
0.0302656
0.0329191
0.0349264
0.0354587
0.033192
0.0280817
0.022477
0.0199861
0.0230246
0.0304686
0.0382163
0.0416797
0.0405188
0.0559045
0.0445681
0.0303417
0.0374817
0.04472
0.0508026
0.0544804
0.0538855
0.0484907
0.0400652
0.0324339
0.0292417
0.0311079
0.0347443
0.0356975
0.033726
0.0490394
0.029886
0.0229393
0.0340832
0.0458392
0.0563326
0.0638751
0.0661848
0.0621021
0.0526988
0.0413697
0.0322834
0.027695
0.0259709
0.0233412
0.0195969
0.0314346
0.0082564
0.00807899
0.0214705
0.036348
0.0504078
0.0615198
0.0670266
0.0652643
0.0565835
0.0440523
0.0314619
0.0215434
0.0144058
0.00774716
0.00155797
0.00746422
-0.0141571
-0.0100529
0.00345774
0.0194238
0.0353252
0.0488777
0.0568674
0.0574608
0.0505331
0.0386019
0.0255135
0.013444
0.00281919
-0.0071578
-0.0157865
-0.0160729
-0.0309107
-0.0268813
-0.0150875
-9.39067e-05
0.0157119
0.0297962
0.0391411
0.0415248
0.0365752
0.0264544
0.0149284
0.00413736
-0.0063996
-0.0174153
-0.027651
-0.031886
-0.0384001
-0.0391888
-0.0306101
-0.0182501
-0.0042933
0.00886765
0.0182944
0.0218118
0.0189938
0.0116622
0.00319966
-0.00416673
-0.0114263
-0.0206285
-0.0312228
-0.0361591
-0.0385989
-0.0466645
-0.0421572
-0.0332124
-0.0220592
-0.0107792
-0.00215965
0.00202724
0.00155474
-0.00208296
-0.00627597
-0.00922347
-0.0120188
-0.0178874
-0.0279292
-0.0321659
-0.0374711
-0.0509314
-0.0505924
-0.0451461
-0.0366201
-0.0275177
-0.0201886
-0.0157034
-0.0138646
-0.013498
-0.0130151
-0.0116507
-0.0107212
-0.0136779
-0.0227722
-0.0274125
-0.0379308
-0.053116
-0.0563048
-0.0536827
-0.0474498
-0.0404154
-0.0346038
-0.0302724
-0.0266559
-0.0228343
-0.0182692
-0.0134281
-0.00999935
-0.0112417
-0.0191174
-0.0256103
-0.0378054
-0.0526426
-0.0583238
-0.0578756
-0.053542
-0.0483791
-0.0441732
-0.0404959
-0.0359812
-0.0298064
-0.0222344
-0.0147487
-0.00967161
-0.00965658
-0.0161958
-0.0245444
-0.0324819
-0.0474587
-0.0545285
-0.0558723
-0.0533204
-0.0498718
-0.0471749
-0.0444636
-0.0399453
-0.0326299
-0.0231818
-0.0137165
-0.00699929
-0.00563003
-0.0107511
-0.0191192
-0.0139389
-0.0316849
-0.0403953
-0.0441113
-0.0441753
-0.0428262
-0.0417006
-0.0402048
-0.0363585
-0.0287073
-0.0177173
-0.00586417
0.00350838
0.00720276
0.00393906
-0.00133212
0.0173012
-0.00450729
-0.0113603
-0.0152705
-0.0169558
-0.0177825
-0.0188867
-0.0192751
-0.0165828
-0.00919605
0.00226036
0.0148603
0.0250204
0.0294213
0.0271478
0.0300177
0.0350715
0.0126372
0.00741005
0.00357105
0.000901613
-0.00122093
-0.00371171
-0.00578096
-0.00528108
-0.000229549
0.00942095
0.0213273
0.03193
0.037512
0.0371907
0.0462196
0.0484431
0.0281079
0.0258831
0.0238558
0.0217964
0.019414
0.0158897
0.0119085
0.00955304
0.011259
0.0178258
0.0276298
0.0372098
0.042768
0.0436452
0.0569848
0.0511757
0.0358029
0.0380018
0.0397478
0.0404483
0.0396344
0.036402
0.0309434
0.0253653
0.0224679
0.0240786
0.0296492
0.0363045
0.0403576
0.0413854
0.0564945
0.0420716
0.0334338
0.040507
0.0470977
0.0520698
0.0544912
0.0528197
0.0470742
0.0389389
0.0314664
0.0272637
0.0270881
0.0291433
0.0302563
0.0301402
0.0440638
0.0228621
0.0211784
0.0323329
0.0436503
0.0532793
0.0595843
0.0606708
0.0558689
0.0465161
0.0357851
0.0266795
0.0206594
0.0173343
0.014507
0.0120103
0.0219365
-0.00199653
0.00190059
0.0154954
0.0303387
0.043865
0.0538621
0.057883
0.0547096
0.0452681
0.0328718
0.0210495
0.0110778
0.00308279
-0.0037786
-0.00925218
-0.00500967
-0.0259242
-0.0193292
-0.00519384
0.0112078
0.0271576
0.0397044
0.0460034
0.0444209
0.0355214
0.0225462
0.00987936
-0.00100842
-0.0110604
-0.0207071
-0.0287392
-0.0297758
-0.0421785
-0.037036
-0.024057
-0.0080085
0.00823446
0.0216609
0.0291204
0.0286964
0.0207317
0.00822724
-0.00417334
-0.0138581
-0.0225616
-0.0321202
-0.0414565
-0.0450502
-0.0474248
-0.0478187
-0.0374723
-0.0235839
-0.00880441
0.00395839
0.0114641
0.0118074
0.00528837
-0.00541345
-0.0160511
-0.0234724
-0.0288187
-0.0356538
-0.0445497
-0.0473699
-0.0449378
-0.0520659
-0.0454297
-0.0347297
-0.0223862
-0.0112219
-0.00436518
-0.0033902
-0.00784087
-0.0153913
-0.0226312
-0.0268932
-0.0286735
-0.0320792
-0.0397072
-0.0408936
-0.0413854
-0.0525969
-0.0500465
-0.0426882
-0.0328163
-0.0234741
-0.0174985
-0.0158764
-0.017843
-0.0214514
-0.0243964
-0.0251258
-0.0242846
-0.0254427
-0.0317756
-0.0334158
-0.0391342
-0.0511916
-0.0523878
-0.0479824
-0.0403209
-0.0327103
-0.027663
-0.0254896
-0.0250458
-0.0247636
-0.0234595
-0.0209194
-0.0183682
-0.0186429
-0.0240916
-0.0283266
-0.0350443
-0.0471534
-0.0512587
-0.0494646
-0.043979
-0.0381287
-0.0341251
-0.0317506
-0.0294477
-0.0259851
-0.0210861
-0.0156557
-0.0115576
-0.0112008
-0.0160439
-0.0227255
-0.0245886
-0.0380878
-0.044217
-0.0449483
-0.0419895
-0.0382368
-0.0355468
-0.0334436
-0.0301858
-0.0246145
-0.0169946
-0.00897877
-0.0029346
-0.0013296
-0.00530668
-0.0117719
-0.00466504
-0.0214568
-0.0288515
-0.032033
-0.0321017
-0.031056
-0.0302845
-0.0290922
-0.0256219
-0.0186339
-0.00864298
0.00208518
0.0105453
0.0138701
0.0109925
0.00795669
0.0291904
0.00970959
0.00210862
-0.0028976
-0.00582051
-0.00789625
-0.009905
-0.010688
-0.00803155
-0.000705531
0.0103917
0.0226736
0.0329733
0.0383337
0.037746
0.0405788
0.0449846
0.0258001
0.0190556
0.0132319
0.00861088
0.00483053
0.00124083
-0.00137226
-0.00107494
0.00373587
0.0129849
0.0247203
0.0359065
0.0432444
0.0456515
0.0542617
0.0526758
0.0375755
0.0344096
0.0306336
0.026554
0.0222033
0.0172068
0.0123494
0.00948742
0.0107057
0.0164677
0.0255436
0.0352557
0.0425455
0.0463928
0.0587799
0.0490172
0.0400305
0.0418846
0.0424026
0.0414003
0.0386876
0.0337958
0.0273697
0.0212775
0.0177546
0.0182685
0.022584
0.0287992
0.0341704
0.0380463
0.0517238
0.0343028
0.0320468
0.0391673
0.0450541
0.0487433
0.0493967
0.046109
0.0391404
0.0303661
0.0224491
0.0174455
0.0159923
0.0172922
0.0192813
0.0214948
0.0337712
0.0110503
0.0147595
0.0262428
0.0373151
0.0461141
0.0508856
0.0501795
0.0437657
0.0333239
0.0220987
0.0128206
0.00625016
0.00239089
0.000309019
-0.000774256
0.00783449
-0.0158086
-0.00810927
0.00610524
0.0211488
0.0342591
0.042987
0.045053
0.0397359
0.0284897
0.0149795
0.00313523
-0.00628752
-0.0139775
-0.0202023
-0.0242279
-0.0208363
-0.0394701
-0.0307688
-0.015553
0.00165114
0.0175923
0.0290869
0.0333195
0.0290983
0.0176458
0.0027265
-0.0106566
-0.0207108
-0.0293313
-0.0377047
-0.0445159
-0.0453125
-0.0534272
-0.0473682
-0.0327942
-0.0154084
0.00133323
0.0139891
0.0193524
0.0159663
0.00490659
-0.0102297
-0.0243914
-0.0339988
-0.0409798
-0.0485827
-0.0565029
-0.0585263
-0.0552651
-0.0549818
-0.0425141
-0.0267808
-0.0110753
0.00121143
0.0067227
0.00401303
-0.00586421
-0.0195993
-0.0326005
-0.0411407
-0.0456487
-0.0504654
-0.0575769
-0.0576936
-0.0494337
-0.0550823
-0.0459742
-0.033075
-0.01942
-0.00838685
-0.0032463
-0.00514705
-0.0129295
-0.0236544
-0.0336004
-0.0397467
-0.0418813
-0.0439027
-0.0494848
-0.0475908
-0.0427818
-0.0515267
-0.0464888
-0.0368662
-0.0254102
-0.0157909
-0.0110416
-0.0118109
-0.0167595
-0.0233494
-0.0289726
-0.0318181
-0.0320219
-0.0326039
-0.0369723
-0.0360662
-0.0368236
-0.0463298
-0.0456868
-0.0392889
-0.0300148
-0.0217921
-0.0173735
-0.0168562
-0.0186561
-0.020784
-0.0217367
-0.0209902
-0.0194847
-0.0196014
-0.0236297
-0.0263692
-0.0281064
-0.0389343
-0.0420639
-0.0390697
-0.0324439
-0.0258327
-0.0219941
-0.0204124
-0.0194296
-0.0175064
-0.0140813
-0.00978579
-0.00623789
-0.00568304
-0.00957025
-0.0154475
-0.0126649
-0.0264299
-0.0329216
-0.0336956
-0.0304874
-0.0264376
-0.0236302
-0.021651
-0.0188324
-0.0139021
-0.00690254
0.000726637
0.00697528
0.00919654
0.00608109
0.000350497
0.00988488
-0.00667811
-0.014637
-0.0186929
-0.019705
-0.0196119
-0.0195867
-0.0187174
-0.0152705
-0.00823748
0.00171315
0.012447
0.0212244
0.0253688
0.0236931
0.0218557
0.0422078
0.0256181
0.0160484
0.00883549
0.00369435
-0.000552358
-0.00427992
-0.00597943
-0.00355628
0.00383596
0.0151845
0.028048
0.039621
0.0472467
0.0495493
0.0515974
0.0517326
0.0367854
0.0278194
0.019338
0.0122308
0.00637919
0.00140402
-0.00189236
-0.00182931
0.00290683
0.0120448
0.0239537
0.0361705
0.0459146
0.0516161
0.0588831
0.052686
0.043591
0.0393777
0.0337145
0.0273694
0.0206585
0.0136972
0.00750426
0.00390873
0.0046013
0.0097655
0.018405
0.0285723
0.0378703
0.0450967
0.0560948
0.0425566
0.0401135
0.0418348
0.0413079
0.0385944
0.0336815
0.0266141
0.0183875
0.0112156
0.00685355
0.00657362
0.010126
0.0163104
0.0232446
0.030123
0.0424675
0.0228835
0.0265581
0.0340498
0.0395171
0.042031
0.0407804
0.0353151
0.0263965
0.0160851
0.00719073
0.00158677
-0.000407888
0.000759483
0.00392681
0.0085858
0.0197658
-0.00316982
0.00512047
0.0172321
0.0283102
0.0363315
0.0394729
0.0365665
0.0279013
0.015575
0.00311848
-0.00651074
-0.0128667
-0.0164414
-0.0176855
-0.0164101
-0.00861559
-0.0304411
-0.0197794
-0.00470394
0.0107089
0.0234292
0.030692
0.0305328
0.0227209
0.00925195
-0.00585107
-0.0182904
-0.0269336
-0.0334553
-0.0384711
-0.0409277
-0.0374729
-0.0522261
-0.0419603
-0.0255326
-0.00750633
0.00836274
0.0186313
0.0206558
0.0137928
-8.2454e-05
-0.0168416
-0.0313575
-0.0409955
-0.0479615
-0.0547108
-0.06026
-0.0599834
-0.0626535
-0.0557941
-0.0394744
-0.0207678
-0.00369703
0.00798655
0.0112299
0.00518253
-0.00836551
-0.025395
-0.0408145
-0.0509877
-0.0569734
-0.0629215
-0.0696832
-0.0698003
-0.0603469
-0.0590778
-0.0443418
-0.0268125
-0.0103655
0.00123762
0.00481311
-0.00043724
-0.0127351
-0.0283446
-0.0427349
-0.0523792
-0.0570845
-0.0609396
-0.067009
-0.0648267
-0.0506018
-0.054413
-0.0427177
-0.0276898
-0.0129361
-0.00226475
0.00124598
-0.0029174
-0.0129246
-0.0254328
-0.036784
-0.0442584
-0.0474146
-0.0494154
-0.054023
-0.0499476
-0.0398728
-0.0464269
-0.0390888
-0.0272638
-0.0144988
-0.00491193
-0.0013576
-0.00394499
-0.0106939
-0.0188146
-0.0256771
-0.0296912
-0.0309769
-0.0319787
-0.0355529
-0.0331295
-0.0290881
-0.0372912
-0.0352151
-0.0271697
-0.0167163
-0.00833622
-0.00464367
-0.00529802
-0.00830751
-0.0114452
-0.0131509
-0.0130614
-0.012076
-0.0123583
-0.0157872
-0.0180005
-0.0153425
-0.0263361
-0.0297233
-0.026261
-0.0190008
-0.0123506
-0.00878971
-0.00767493
-0.0071429
-0.00553387
-0.00222283
0.00217666
0.00600514
0.00705879
0.00376154
-0.00233269
0.00328946
-0.011648
-0.0200283
-0.021954
-0.0192218
-0.0153475
-0.0124307
-0.0102261
-0.00713887
-0.0018915
0.00558045
0.0140717
0.0211783
0.0246096
0.0225611
0.0165063
0.0273244
0.011044
0.001229
-0.00462641
-0.00730196
-0.00875676
-0.00992228
-0.00969398
-0.00625094
0.00117971
0.0117592
0.0233876
0.0334373
0.0393148
0.0396715
0.0379088
0.054195
0.0404819
0.029286
0.0199538
0.0123361
0.00538813
-0.000780207
-0.00420416
-0.0025782
0.00438728
0.0159556
0.0297044
0.0430494
0.0534898
0.0591292
0.0612176
0.0549994
0.043993
0.0333001
0.0223856
0.0128005
0.00478007
-0.00173553
-0.00594454
-0.00647403
-0.00194558
0.00693573
0.0189387
0.0321312
0.0441664
0.0530874
0.0599156
0.0486606
0.0446519
0.040103
0.0332695
0.0251774
0.0163527
0.00742304
-0.000444703
-0.00510262
-0.00525724
-0.000812629
0.00740877
0.0179874
0.0290444
0.0391401
0.049552
0.0329967
0.0355902
0.0377137
0.0368485
0.0330361
0.0262832
0.0170897
0.00693542
-0.00186254
-0.00734448
-0.00843751
-0.00538931
0.000926967
0.00919863
0.0185093
0.0302954
0.0100558
0.0178694
0.025953
0.03142
0.0331824
0.0303292
0.02275
0.0116817
-0.000407417
-0.0105482
-0.0167415
-0.0187934
-0.0173031
-0.0130397
-0.00631049
0.00448999
-0.0167654
-0.00561763
0.00706591
0.0182169
0.0255764
0.0271899
0.0221653
0.0112731
-0.00292651
-0.0166668
-0.0267229
-0.032495
-0.0351046
-0.0351475
-0.0321615
-0.0243909
-0.0423721
-0.0301798
-0.0144867
0.00105615
0.0130942
0.0188447
0.0165595
0.00652154
-0.00875487
-0.0250198
-0.037912
-0.0458373
-0.050771
-0.0542518
-0.0553686
-0.0512529
-0.0605815
-0.0497092
-0.0324978
-0.0141916
0.0011463
0.00995753
0.00990011
0.000902294
-0.0146062
-0.032232
-0.0471043
-0.0564552
-0.0619802
-0.0670103
-0.0714254
-0.0698768
-0.0664719
-0.0592641
-0.0418179
-0.0224903
-0.00570611
0.00468504
0.00598506
-0.0020187
-0.0169494
-0.0345602
-0.0500768
-0.0602723
-0.0657023
-0.0703935
-0.0762714
-0.0748423
-0.0598002
-0.0575953
-0.0413699
-0.0228407
-0.0063432
0.00422164
0.00608374
-0.000882728
-0.0143304
-0.0303268
-0.0446412
-0.0543524
-0.0592922
-0.0628424
-0.0683191
-0.064794
-0.0459529
-0.0481122
-0.0347713
-0.018498
-0.0034316
0.00645662
0.00853926
0.00293354
-0.00797001
-0.0207338
-0.0319498
-0.0394512
-0.0431744
-0.0454661
-0.0497671
-0.0447535
-0.0306916
-0.0357901
-0.0271686
-0.0142153
-0.00111749
0.00783985
0.0102415
0.00658142
-0.000794762
-0.00899805
-0.0156113
-0.0194447
-0.0209407
-0.0222526
-0.0256453
-0.0228519
-0.0149403
-0.0229133
-0.0205232
-0.0120007
-0.00155198
0.00615161
0.00891094
0.00751979
0.00423719
0.00131167
0.000136325
0.000833719
0.00228296
0.00232698
-0.000727053
-0.00307154
0.00273243
-0.0092976
-0.0138364
-0.0110718
-0.00454055
0.00116956
0.00400581
0.0047516
0.00544838
0.00764764
0.0118416
0.0173106
0.0223016
0.0245001
0.0220779
0.01585
0.0221446
0.00581923
-0.00526817
-0.00944722
-0.00837323
-0.00557538
-0.00311906
-0.000657712
0.00310305
0.00924225
0.0177632
0.0274697
0.0362181
0.0414741
0.041044
0.0348836
0.04389
0.0286251
0.0170115
0.00928065
0.00471655
0.0012988
-0.00161246
-0.00252793
0.000529364
0.00820265
0.0195249
0.0323207
0.0440495
0.0522372
0.0548362
0.0529491
0.0615569
0.0501554
0.0388639
0.0286159
0.0192575
0.00984375
0.00104093
-0.00464129
-0.00474466
0.00144854
0.0128489
0.027234
0.04215
0.0550357
0.0635173
0.0669558
0.0538898
0.0455744
0.0344445
0.0220743
0.0105646
0.000644568
-0.00733469
-0.0124397
-0.0134277
-0.00955035
-0.00114315
0.0107086
0.0244602
0.0380304
0.0491827
0.0568992
0.0408624
0.0398145
0.0357859
0.028934
0.0201908
0.0100747
-0.000449952
-0.0096484
-0.0155015
-0.0166936
-0.013041
-0.00524121
0.00552228
0.0176098
0.029323
0.0400278
0.0215422
0.0266149
0.0294173
0.0290241
0.0251292
0.0174842
0.00681324
-0.00494391
-0.0152166
-0.0218055
-0.023603
-0.0208068
-0.014282
-0.00521471
0.00533311
0.016883
-0.00230756
0.00712728
0.0155737
0.0213
0.0228913
0.0191722
0.0101738
-0.00248689
-0.0159367
-0.0270106
-0.0335358
-0.0352683
-0.0331229
-0.0279892
-0.0202348
-0.00981804
-0.0274627
-0.015639
-0.00297474
0.0079976
0.0147681
0.0152265
0.00868964
-0.00369986
-0.0189979
-0.0332885
-0.043282
-0.048197
-0.0494842
-0.0483114
-0.0444106
-0.0366807
-0.0492753
-0.0371476
-0.021735
-0.00669879
0.00422826
0.00851596
0.00458926
-0.00683088
-0.0228434
-0.0391328
-0.0515614
-0.0584951
-0.0617522
-0.0636048
-0.0637395
-0.0591675
-0.0623739
-0.0519249
-0.0350491
-0.0175514
-0.00339421
0.00375884
0.00200215
-0.00822557
-0.0241108
-0.0412591
-0.0552051
-0.0635728
-0.0677063
-0.071037
-0.0743298
-0.0719489
-0.0631127
-0.0560465
-0.038843
-0.0201742
-0.00458511
0.0041652
0.00385147
-0.00518869
-0.020207
-0.0370191
-0.0512567
-0.0603595
-0.064921
-0.0683963
-0.0731229
-0.0708416
-0.0522552
-0.0493839
-0.0332404
-0.0151366
0.000388417
0.00950719
0.00996211
0.00217056
-0.0111788
-0.0262094
-0.0391377
-0.0476878
-0.0520457
-0.0550884
-0.0596217
-0.0556518
-0.0348846
-0.0358394
-0.0225302
-0.00652197
0.00777012
0.016419
0.0173124
0.0111295
0.000446605
-0.0113463
-0.0212426
-0.0275922
-0.0307137
-0.0329118
-0.0366733
-0.0318135
-0.0158958
-0.0202946
-0.0119393
0.000625218
0.012857
0.0205971
0.0219707
0.0178931
0.0108393
0.00358477
-0.00177696
-0.00441899
-0.00515347
-0.00612983
-0.009124
-0.00690097
0.00343124
-0.00500725
-0.00342849
0.00419461
0.0133788
0.0196461
0.0213316
0.0195806
0.0166817
0.0147177
0.0148167
0.0168476
0.01946
0.0204126
0.0179741
0.0153995
0.0228234
0.00964574
0.00356164
0.00459314
0.00917377
0.0130145
0.0146173
0.0150743
0.0162419
0.0194584
0.0249676
0.0318915
0.0384102
0.0421171
0.0409256
0.0353161
0.0402757
0.02309
0.00967372
0.00262512
0.000957155
0.00166062
0.00310758
0.00559976
0.0101733
0.0174401
0.0271765
0.0381941
0.0485032
0.0555879
0.0570032
0.051989
0.0559012
0.0414833
0.0292473
0.0204591
0.0144957
0.00931108
0.00452929
0.002092
0.00427793
0.0118281
0.0236229
0.0374166
0.0506332
0.0606755
0.0652736
0.0640266
0.0623404
0.0516683
0.041595
0.0321691
0.0226382
0.0118924
0.00103705
-0.00677539
-0.00874017
-0.00390889
0.00682654
0.0213432
0.0372416
0.0516839
0.0617376
0.0672134
0.0478515
0.0404427
0.0300804
0.0176256
0.00523652
-0.00586659
-0.0148537
-0.0205833
-0.021933
-0.0184517
-0.010444
0.0011072
0.0149083
0.0289317
0.0407184
0.0495517
0.0303596
0.029472
0.0261255
0.0202008
0.0121067
0.00200579
-0.00907564
-0.0190434
-0.0256683
-0.0275479
-0.0244569
-0.0169711
-0.00623422
0.00602536
0.01781
0.0282501
0.0096844
0.0144002
0.0173916
0.0178326
0.0148484
0.00760056
-0.00334464
-0.015772
-0.0267782
-0.0339339
-0.0360026
-0.0331244
-0.0263306
-0.0170458
-0.00667864
0.00394272
-0.0127069
-0.00412215
0.00386171
0.00966607
0.0115154
0.00785663
-0.00143088
-0.014563
-0.0283643
-0.0395038
-0.0457188
-0.0467187
-0.0437031
-0.038013
-0.0303758
-0.02101
-0.0340731
-0.0234988
-0.0118421
-0.00165149
0.00444654
0.00428349
-0.00284838
-0.0155774
-0.0307687
-0.0444729
-0.0535307
-0.0571699
-0.0569787
-0.0547032
-0.0505821
-0.0435923
-0.0505119
-0.039736
-0.0257301
-0.0122056
-0.0026047
0.000363872
-0.0045097
-0.0162284
-0.0317346
-0.0468218
-0.0577441
-0.0631272
-0.0646664
-0.0649296
-0.0643005
-0.0599866
-0.0578048
-0.04841
-0.0331128
-0.0173225
-0.00509326
0.000346324
-0.00255919
-0.0130382
-0.0281474
-0.0436802
-0.0556968
-0.0623569
-0.0649361
-0.0665631
-0.0685129
-0.0660264
-0.0536756
-0.0469032
-0.0313446
-0.0144974
-0.00082717
0.00617017
0.00472539
-0.00446836
-0.0185716
-0.033582
-0.0457315
-0.0530541
-0.0562858
-0.0583882
-0.0614647
-0.0591153
-0.039589
-0.0361188
-0.0215808
-0.00516282
0.00864018
0.016195
0.0157124
0.00793553
-0.00441975
-0.0177142
-0.0286495
-0.0354899
-0.0387115
-0.0407743
-0.0438542
-0.0403688
-0.0200489
-0.0200869
-0.00833109
0.00613862
0.0188726
0.0261488
0.026329
0.020309
0.0106397
0.000446264
-0.00766761
-0.0124875
-0.014591
-0.0161089
-0.0187608
-0.0152543
0.000928822
-0.00316018
0.00365879
0.014597
0.0251711
0.0315101
0.0322084
0.0283433
0.0222642
0.0164634
0.0127127
0.0114503
0.0117562
0.011531
0.00918546
0.0101071
0.0216314
0.0126333
0.0127144
0.0184459
0.02559
0.0301382
0.0309205
0.0292179
0.0271423
0.0264444
0.0279737
0.031375
0.0351805
0.037156
0.0354621
0.0327687
0.0402966
0.0264073
0.0190276
0.0178137
0.0197909
0.0213626
0.0216183
0.0218537
0.0237283
0.0280126
0.0348086
0.0430349
0.05085
0.0558452
0.0557967
0.0515968
0.0535827
0.0362638
0.0218689
0.0121447
0.0071676
0.00516752
0.00520916
0.00761327
0.0129242
0.0214153
0.0323086
0.0443853
0.0557962
0.0641255
0.0668879
0.064217
0.061164
0.0466833
0.0347508
0.0259731
0.0196396
0.0135622
0.00740544
0.0035425
0.00467414
0.0117877
0.0236611
0.0380777
0.0523717
0.0636781
0.0693402
0.0696749
0.0565191
0.0443137
0.035504
0.0280828
0.02025
0.00995958
-0.00160646
-0.0107995
-0.0142717
-0.0107817
-0.00102094
0.0132582
0.0295933
0.0446695
0.0549244
0.062
0.0371828
0.0288407
0.0196125
0.00825669
-0.00371401
-0.0149504
-0.0241797
-0.0299656
-0.0311774
-0.0275524
-0.0195731
-0.00815519
0.00542051
0.0189497
0.0297283
0.0386224
0.0181279
0.015271
0.0118662
0.00708136
0.000630007
-0.0081054
-0.0184438
-0.0281482
-0.0347216
-0.0366179
-0.0335015
-0.0259517
-0.0152372
-0.00342979
0.00705259
0.0160632
-0.00125287
0.00101366
0.00300642
0.00389717
0.00232761
-0.00337647
-0.0132307
-0.0250609
-0.0357167
-0.0425547
-0.0441932
-0.0407373
-0.0334708
-0.0243163
-0.0151957
-0.00669755
-0.0200738
-0.0141059
-0.0077661
-0.00251398
-0.000335528
-0.00321216
-0.0116505
-0.0240059
-0.0369832
-0.0471866
-0.0523308
-0.0521151
-0.0479892
-0.0418731
-0.0350726
-0.0277791
-0.0362622
-0.0281654
-0.018587
-0.00984474
-0.00453852
-0.00493252
-0.0118005
-0.0237762
-0.0377732
-0.0499557
-0.0573713
-0.0593458
-0.0575578
-0.054227
-0.0502408
-0.0447622
-0.0468814
-0.0381285
-0.0263389
-0.0148399
-0.00681392
-0.00491593
-0.010062
-0.021188
-0.0353137
-0.0484957
-0.0574058
-0.0609609
-0.0608068
-0.0595965
-0.0582772
-0.0547924
-0.0489638
-0.0407504
-0.0276994
-0.0141757
-0.00392701
7.41207e-05
-0.00336984
-0.0133494
-0.0270187
-0.0405103
-0.0503955
-0.0552567
-0.0563667
-0.0565169
-0.057097
-0.0550649
-0.0413436
-0.0347236
-0.0213769
-0.00679465
0.00491505
0.0105012
0.00856342
-7.56322e-05
-0.0127271
-0.025747
-0.0358686
-0.0415519
-0.043628
-0.0445815
-0.0460853
-0.0444666
-0.0256621
-0.0215914
-0.00928698
0.00505339
0.0171238
0.0235179
0.0227871
0.0157359
0.00485899
-0.006571
-0.0157054
-0.021158
-0.0235174
-0.0248452
-0.026617
-0.024492
-0.00567184
-0.00505013
0.0045172
0.0170024
0.0281371
0.0344463
0.0345995
0.029465
0.0213031
0.0128388
0.00629607
0.00263183
0.00119155
0.00014466
-0.00180021
-0.000416034
0.0154339
0.0113971
0.0161714
0.025024
0.0338173
0.0390835
0.0397305
0.036743
0.0321118
0.0279053
0.0255467
0.0253282
0.0262629
0.026462
0.024499
0.0237337
0.0354396
0.0259669
0.0244171
0.0279042
0.0328862
0.0359828
0.0363735
0.0352474
0.0343481
0.0350308
0.0378164
0.0421976
0.0467253
0.0492516
0.0479528
0.0452688
0.051363
0.0371696
0.029122
0.0257171
0.0250989
0.0246179
0.0238585
0.0241385
0.0267766
0.0322593
0.0401728
0.049327
0.057892
0.063511
0.0639886
0.0615784
0.0592745
0.0420288
0.0282379
0.0167301
0.00866466
0.00390162
0.00245481
0.00478073
0.0109969
0.0206305
0.0326337
0.0455222
0.057499
0.0662208
0.0692894
0.0693485
0.0598524
0.0433833
0.0318673
0.0236427
0.0179624
0.0122586
0.00579444
0.00115963
0.00149918
0.00806741
0.0199074
0.0346461
0.0496369
0.0616316
0.0674696
0.0697161
0.0455515
0.0300555
0.0207474
0.0152099
0.0104208
0.0025117
-0.00811235
-0.0174378
-0.0216298
-0.0189996
-0.00989223
0.00413052
0.0206238
0.0357557
0.0452278
0.0525578
0.0234406
0.012659
0.00379248
-0.00597465
-0.0163844
-0.0266665
-0.0353159
-0.0405189
-0.0410035
-0.0365874
-0.0279314
-0.0161075
-0.00261727
0.00995095
0.0185744
0.0255592
0.00605965
-0.000132905
-0.00489234
-0.00914306
-0.0137082
-0.0201843
-0.0286716
-0.0370653
-0.0426725
-0.0437424
-0.0398181
-0.0315635
-0.020542
-0.00936068
-0.0009414
0.00507134
-0.0095969
-0.0110573
-0.011327
-0.0109254
-0.0113499
-0.014963
-0.0227391
-0.032891
-0.0422008
-0.0478493
-0.0482921
-0.0436194
-0.0354646
-0.0264019
-0.0189761
-0.0136643
-0.0233148
-0.0210076
-0.0172694
-0.0133484
-0.0111897
-0.0130173
-0.0199091
-0.0306519
-0.042007
-0.0505992
-0.0541048
-0.0522063
-0.0466333
-0.0399654
-0.0341942
-0.0294635
-0.0338645
-0.028982
-0.0219615
-0.0150572
-0.0107414
-0.0111292
-0.0172558
-0.0278989
-0.0402378
-0.0506073
-0.0561852
-0.0563401
-0.0528669
-0.0484606
-0.044658
-0.0406804
-0.0393162
-0.0329705
-0.0234814
-0.0139976
-0.00750298
-0.00618727
-0.0111203
-0.021267
-0.0338721
-0.0452799
-0.0524316
-0.0543843
-0.0527621
-0.0503361
-0.0484577
-0.0455219
-0.0378464
-0.0309666
-0.0198833
-0.00828545
0.000413502
0.00360382
0.000203676
-0.00891893
-0.0211738
-0.0330431
-0.0414222
-0.0450823
-0.0452545
-0.0444985
-0.044154
-0.0422698
-0.0288903
-0.022554
-0.0109745
0.00186835
0.0122332
0.0171843
0.015483
0.00785158
-0.00334991
-0.0148655
-0.0237637
-0.0286745
-0.0303692
-0.0309669
-0.0316999
-0.0306354
-0.0137736
-0.00935207
0.00118984
0.0139264
0.0248868
0.0309445
0.0307974
0.0250584
0.015776
0.00587267
-0.00222255
-0.00721723
-0.00961772
-0.0110752
-0.0126181
-0.0122946
0.00490351
0.00577226
0.0134567
0.0242753
0.0343286
0.0404283
0.0413955
0.0378314
0.0314804
0.0245808
0.0190257
0.0156847
0.0140272
0.0125884
0.0104022
0.0095035
0.024494
0.0202021
0.0231336
0.0300646
0.0374454
0.0422886
0.0436575
0.0422346
0.0394568
0.0368551
0.0354991
0.0356787
0.0364619
0.0362695
0.0338978
0.0315832
0.0422192
0.0321874
0.0293126
0.030704
0.0338389
0.0360715
0.0367689
0.0368513
0.0375437
0.0397049
0.0435507
0.0483953
0.0529502
0.0552406
0.0535873
0.0510081
0.0541066
0.0394999
0.0314545
0.0263409
0.0235728
0.0216514
0.020497
0.0213215
0.0250636
0.031788
0.0407306
0.0504904
0.0592265
0.0646575
0.0647304
0.0639134
0.0563722
0.038759
0.0265378
0.0145366
0.00424286
-0.0027929
-0.00548031
-0.003101
0.00411873
0.0151031
0.0282951
0.0419122
0.0540834
0.0624337
0.0647016
0.0667018
0.0529842
0.0330031
0.0210195
0.0129963
0.00837887
0.00417455
-0.00126976
-0.00563818
-0.00540637
0.000978397
0.0128167
0.0278735
0.0433337
0.0556271
0.0610672
0.064702
0.0317883
0.0117708
0.000389221
-0.00504504
-0.00684029
-0.0110609
-0.0191849
-0.0273583
-0.0312307
-0.0285819
-0.0194036
-0.00518129
0.0116957
0.0266597
0.0348902
0.0407096
0.00897969
-0.00494539
-0.0148642
-0.0233568
-0.0316143
-0.0401765
-0.0476773
-0.0518924
-0.0512357
-0.0454401
-0.0353189
-0.0223007
-0.00839227
0.00324664
0.00928652
0.0125047
-0.00366562
-0.0136878
-0.0208792
-0.025561
-0.0287645
-0.0329517
-0.0391649
-0.0456598
-0.0496561
-0.0491632
-0.0435586
-0.0338416
-0.0219606
-0.0112178
-0.00500264
-0.00295111
-0.0135682
-0.0192862
-0.0224738
-0.0234562
-0.023513
-0.0253841
-0.0309244
-0.038985
-0.0464509
-0.0503313
-0.0489006
-0.042329
-0.0327687
-0.0235507
-0.0177806
-0.0157428
-0.0213725
-0.0232291
-0.0222496
-0.0200368
-0.0183385
-0.0194264
-0.0248257
-0.0338469
-0.0435037
-0.0503713
-0.0519818
-0.0480318
-0.0406908
-0.0333038
-0.0284591
-0.0256639
-0.0266993
-0.0254526
-0.020617
-0.0153558
-0.0118653
-0.0122124
-0.0175751
-0.027075
-0.0381099
-0.0471144
-0.05117
-0.0496056
-0.0444702
-0.0390654
-0.03545
-0.0318382
-0.0285422
-0.0249159
-0.016915
-0.00874554
-0.00303574
-0.0019209
-0.00641594
-0.0157491
-0.0274308
-0.037945
-0.0441869
-0.0451316
-0.0424742
-0.0392583
-0.0371278
-0.0334692
-0.0257972
-0.0205387
-0.0103897
0.000276594
0.00838805
0.0115829
0.00875062
0.000503031
-0.0109092
-0.0221872
-0.030227
-0.033687
-0.0336963
-0.0327849
-0.0322481
-0.0294933
-0.0179593
-0.0122653
-0.00141075
0.0107334
0.020778
0.02607
0.0253518
0.0190028
0.00893989
-0.00197507
-0.010854
-0.0162074
-0.0185146
-0.019718
-0.0207256
-0.019564
-0.00552112
-0.00123186
0.0084665
0.0204341
0.0311704
0.0378436
0.0391197
0.0352001
0.0276199
0.0185552
0.0105067
0.00485763
0.00130047
-0.00132583
-0.00376154
-0.00448442
0.0100712
0.0107605
0.0172658
0.0270098
0.0366185
0.0433348
0.0459383
0.0445793
0.040283
0.034706
0.0294885
0.025559
0.0226855
0.0198512
0.0164428
0.0139511
0.0266422
0.0218366
0.0234716