/*--------------------------------*- C++ -*----------------------------------*\
| =========                 |                                                 |
| \\      /  F ield         | OpenFOAM: The Open Source CFD Toolbox           |
|  \\    /   O peration     | Version:  3.0.0                                 |
|   \\  /    A nd           | Web:      www.OpenFOAM.org                      |
|    \\/     M anipulation  |                                                 |
\*---------------------------------------------------------------------------*/
FoamFile
{
    version     2.0;
    format      ascii;
    class       surfaceScalarField;
    location    "8.25";
    object      phi;
}
// * * * * * * * * * * * * * * * * * * * * * * * * * * * * * * * * * * * * * //

dimensions      [0 3 -1 0 0 0 0];

internalField   nonuniform List<scalar> 
11520
(
-0.000365399
-0.000503095
0.000249842
-0.000371363
-0.000430418
0.000319892
-0.00033452
-0.000360604
0.000376042
-0.000254609
-0.000279478
0.000410373
-0.000141632
-0.000190313
0.000417853
-1.70463e-05
-0.000103337
0.000394808
9.0777e-05
-3.13605e-05
0.000340476
0.000156258
1.37348e-05
0.000260294
0.000172057
1.813e-05
0.000168681
0.000144346
-2.21132e-05
8.28825e-05
8.67596e-05
-0.000100077
1.82672e-05
1.17328e-05
-0.000197658
-1.5254e-05
-7.3295e-05
-0.000292633
-1.43925e-05
-0.000162246
-0.000368779
1.78823e-05
-0.000248953
-0.000420052
7.24476e-05
-0.000441986
0.000130333
-0.000521367
-0.000429916
6.66072e-05
-0.000544352
-0.000377529
0.000139274
-0.00051283
-0.000332934
0.000213729
-0.00042796
-0.000276614
0.000284193
-0.00029747
-0.000208087
0.000344099
-0.000139254
-0.000133117
0.000385622
1.88647e-05
-6.02964e-05
0.000400134
0.000145438
-2.79408e-07
0.000379726
0.000213724
3.27611e-05
0.000320601
0.000214181
2.51031e-05
0.000231012
0.000155281
-2.71924e-05
0.000131937
5.43762e-05
-0.000110177
4.61062e-05
-7.08941e-05
-0.000198668
-1.12652e-05
-0.00020449
-0.0002728
-3.52278e-05
-0.000333094
-0.000325527
-2.93085e-05
-0.000352519
-4.88467e-06
-0.000653135
-0.000296747
-0.000122539
-0.000682175
-0.00028405
-5.22276e-05
-0.000649084
-0.00027649
3.00156e-05
-0.000558188
-0.000255033
0.00012172
-0.000416995
-0.000215804
0.00021678
-0.000240667
-0.000160018
0.000306864
-5.25633e-05
-9.18427e-05
0.00038098
0.000116537
-1.86793e-05
0.000424388
0.00023135
4.61078e-05
0.00041866
0.000264347
8.19541e-05
0.000352492
0.000211276
7.19019e-05
0.000239299
9.01877e-05
2.02856e-05
0.000112101
-7.08252e-05
-4.99908e-05
1.1466e-06
-0.000244425
-0.000117168
-7.71042e-05
-0.000409164
-0.000172228
-0.000119143
-0.000209661
-0.000125143
-0.000735346
-0.000124607
-0.00030541
-0.000762019
-0.00016479
-0.00024386
-0.000723942
-0.00020158
-0.000165707
-0.000627637
-0.000220359
-6.86321e-05
-0.000481597
-0.000214995
4.25438e-05
-0.000299633
-0.000182772
0.000160711
-0.000101418
-0.000123673
0.000275679
8.64168e-05
-4.1509e-05
0.000372482
0.000228955
5.28708e-05
0.000426588
0.00028845
0.000136238
0.000408298
0.000245866
0.000179693
0.000310349
0.000114777
0.000172925
0.000164494
-7.00969e-05
0.000131295
1.46393e-05
-0.000271317
7.59214e-05
-0.000109346
-0.000460033
1.85265e-05
-0.000194702
-3.34981e-05
-0.000228817
-0.000752032
5.79023e-05
-0.000454279
-0.000770507
-4.07601e-05
-0.000408622
-0.000725213
-0.000123837
-0.000344746
-0.000625014
-0.000183937
-0.000257069
-0.000479536
-0.0002136
-0.000149061
-0.000301461
-0.000206579
-2.55549e-05
-0.000107961
-0.000159502
0.000106635
7.83347e-05
-7.24769e-05
0.000235978
0.000226559
4.71324e-05
0.000340008
0.000297966
0.000176826
0.000380334
0.000264293
0.000278913
0.000325294
0.000131837
0.000326224
0.000189741
-6.32239e-05
0.000321436
2.3248e-05
-0.00027686
0.000282037
-0.000130966
-0.000474615
0.000222523
-0.000249511
0.000153438
-0.000308168
-0.000691922
0.000217496
-0.000534216
-0.000698332
6.4847e-05
-0.00051047
-0.0006462
-6.14315e-05
-0.000467699
-0.000546144
-0.000159297
-0.000401542
-0.000407969
-0.000220699
-0.000313928
-0.000243101
-0.00023749
-0.000206501
-6.57564e-05
-0.000203278
-8.16282e-05
0.000105068
-0.000114548
5.48791e-05
0.000242849
2.54342e-05
0.000187519
0.000312006
0.000197418
0.000279585
0.000281512
0.000358169
0.000282603
0.000152186
0.000463416
0.000184143
-4.11885e-05
0.00049946
2.63653e-05
-0.000252314
0.000477604
-0.000137832
-0.000443659
0.000414781
-0.000274173
0.000326583
-0.000351263
-0.000551203
0.00032353
-0.000517729
-0.000545071
0.000131635
-0.000519232
-0.000490092
-2.84567e-05
-0.000501531
-0.000397471
-0.000154761
-0.000465948
-0.000276255
-0.000239906
-0.000412997
-0.000135256
-0.000275614
-0.000340028
1.49998e-05
-0.000253609
-0.000243515
0.000159884
-0.000166371
-0.000123002
0.00027845
-1.23243e-05
1.24405e-05
0.000339175
0.000193739
0.000137012
0.000310783
0.000408514
0.000196383
0.000189073
0.000571414
0.000152853
6.93953e-06
0.000648233
2.768e-05
-0.000188855
0.000641963
-0.000124189
-0.000359934
0.000571931
-0.00025932
0.000460713
-0.000345295
-0.000340887
0.000358616
-0.000403253
-0.000325676
0.000148612
-0.000426589
-0.000275255
-2.96275e-05
-0.000435099
-0.000199686
-0.000169423
-0.000436491
-0.000106142
-0.000265762
-0.000429148
1.25955e-07
-0.000312505
-0.00040461
0.000112293
-0.000300558
-0.000351658
0.000221577
-0.000219269
-0.000264114
0.000313674
-6.17918e-05
-0.00014454
0.000365857
0.000163829
-1.27489e-05
0.00034771
0.000418609
8.71388e-05
0.000246577
0.000633424
0.000103467
8.83876e-05
0.000750097
3.04992e-05
-8.05895e-05
0.000756833
-8.68354e-05
-0.000221094
0.000674679
-0.000200618
0.00053436
-0.000281946
-9.18741e-05
0.00032635
-0.000224825
-7.39284e-05
0.000117916
-0.000255562
-3.62043e-05
-5.93448e-05
-0.000285857
1.39692e-05
-0.000194541
-0.000325733
7.17996e-05
-0.000286836
-0.000369836
0.000135
-0.000334647
-0.000401507
0.000201032
-0.000329644
-0.000401026
0.000265973
-0.000258502
-0.000355406
0.000323753
-0.000110242
-0.000263909
0.000362957
0.000112937
-0.000141583
0.000362566
0.000381087
-2.34763e-05
0.000302389
0.000628257
4.26215e-05
0.000190649
0.0007796
3.17325e-05
6.46574e-05
0.000800528
-3.20461e-05
-3.6814e-05
0.000706578
-0.000105671
0.000535155
-0.000165354
0.00014867
0.000245298
-3.37938e-05
0.00016358
5.23526e-05
-5.12702e-05
0.00018388
-0.000105649
-9.17534e-05
0.000205454
-0.000218876
-0.000163747
0.000226106
-0.000292853
-0.000257006
0.000244984
-0.000331365
-0.000345719
0.000261949
-0.000328651
-0.000399746
0.000277704
-0.000270515
-0.00039878
0.000293755
-0.00014311
-0.000339376
0.000310204
5.55547e-05
-0.000235163
0.00032033
0.000303727
-0.000115419
0.00030855
0.000547393
-1.9223e-05
0.00026557
0.000712269
2.5436e-05
0.000205733
0.000746029
2.36839e-05
0.000156437
0.000649307
4.15256e-06
0.000459998
-1.61579e-05
0.00032925
0.000131202
0.0001351
0.000340405
-3.40247e-05
0.00014381
0.000345389
-0.000157058
0.000106215
0.000342908
-0.00023525
1.54994e-05
0.000332774
-0.000279301
-0.000116392
0.000313727
-0.000299732
-0.000254467
0.000286475
-0.000294082
-0.000358708
0.000255327
-0.000249686
-0.000400746
0.000228309
-0.000151677
-0.000373794
0.000214802
4.81791e-06
-0.000290681
0.000220497
0.000204471
-0.000177851
0.000241435
0.000406281
-6.76263e-05
0.000264878
0.000549917
1.51734e-05
0.000282452
0.000582714
6.75746e-05
0.000297392
0.00049265
0.000105439
0.000312763
0.000138648
0.000412686
-7.83317e-06
0.000270763
0.000423976
-0.00013151
0.000304267
0.000421628
-0.000207009
0.000277685
0.000407542
-0.000241512
0.000182127
0.000379629
-0.000250436
3.00882e-05
0.000336751
-0.000246048
-0.000142214
0.000278311
-0.000232765
-0.000286297
0.000211362
-0.000201046
-0.000366506
0.000149409
-0.000137115
-0.000371374
0.000108711
-3.4066e-05
-0.000311504
0.000102769
9.88429e-05
-0.000210632
0.0001359
0.000233338
-9.6395e-05
0.000199053
0.000327095
9.54077e-06
0.000273555
0.000340514
0.000100544
0.000341738
0.000260232
0.000184212
0.000114211
0.000267558
0.000391148
-0.000160536
0.000367939
0.000404915
-0.000231692
0.000416767
0.000404214
-0.000254153
0.000403451
0.000392499
-0.000242625
0.000316955
0.00036651
-0.00021434
0.000164821
0.000319343
-0.000184317
-1.97614e-05
0.000250208
-0.00015982
-0.00018791
0.000166646
-0.000138055
-0.00029852
8.60961e-05
-0.000108132
-0.000334232
2.92532e-05
-6.16659e-05
-0.00030085
1.33311e-05
-1.34835e-06
-0.000217773
4.5016e-05
5.83049e-05
-0.000108347
0.00011737
9.21925e-05
8.09193e-06
0.000209657
7.75106e-05
0.000121889
0.000296503
6.86441e-06
0.000233245
-9.68245e-05
0.000347306
0.000282977
-0.000306822
0.000416305
0.000295831
-0.0003232
0.000472125
0.000301273
-0.000297513
0.00047252
0.00030416
-0.000245674
0.000406471
0.000298277
-0.000184641
0.000275893
0.000271317
-0.000130224
0.000104045
0.000216381
-9.34699e-05
-6.74915e-05
0.000139838
-7.68482e-05
-0.000197164
5.99464e-05
-7.46954e-05
-0.000261306
-6.57213e-07
-7.83092e-05
-0.000258274
-2.47208e-05
-8.28789e-05
-0.000200882
-4.71304e-06
-9.10428e-05
-0.000107514
5.20566e-05
-0.00011091
4.97711e-06
0.000127017
-0.000151268
0.000124308
0.000197074
-0.000212753
0.000244383
-0.000279789
0.000364534
0.000117635
-0.00042437
0.000409194
0.000123915
-0.000393716
0.000467849
0.000135267
-0.000333821
0.000482929
0.000158146
-0.000254749
0.00044592
0.000185352
-0.000170423
0.000354798
0.000199152
-9.6552e-05
0.000220719
0.00018383
-4.62668e-05
7.02039e-05
0.000137868
-2.76583e-05
-6.22812e-05
7.57355e-05
-4.07532e-05
-0.000149318
1.89349e-05
-7.89904e-05
-0.000179722
-1.44762e-05
-0.000132181
-0.000157149
-1.71239e-05
-0.000191471
-9.3276e-05
6.29313e-06
-0.000251834
-1.6583e-06
4.1449e-05
-0.000310725
0.000105267
7.28164e-05
-0.000365103
0.000216691
-0.000406866
0.000323665
-6.16283e-05
0.000351686
-6.64378e-05
0.000410472
-5.35474e-05
0.000440408
-1.53674e-05
0.000436126
4.35949e-05
0.000394796
0.000105994
0.000317448
0.000147242
0.000212481
0.000151772
9.82427e-05
0.000120976
-1.55118e-06
7.19523e-05
-6.62388e-05
2.45767e-05
-8.64464e-05
-9.37294e-06
-6.40223e-05
-2.87936e-05
-7.33263e-06
-4.08217e-05
7.23844e-05
-5.35378e-05
0.000162163
0.000246188
-0.0004911
-0.000316406
0.000245078
-0.000500143
-0.000250899
0.000280509
-0.000469603
-0.00020119
0.000304973
-0.000398085
-0.000153975
0.000308598
-0.000293081
-0.000110363
0.000291034
-0.000173183
-7.57364e-05
0.000255845
-6.47549e-05
-5.49687e-05
0.000207943
6.67772e-06
-5.1661e-05
0.000152478
2.76117e-05
-6.87176e-05
9.56904e-05
9.9688e-07
-0.000107381
4.55331e-05
-5.88958e-05
-0.000161685
1.06551e-05
-0.000135076
-0.000218364
-2.53726e-06
-0.000216003
-0.000263087
8.89769e-06
-0.000295466
-0.000288964
4.30677e-05
-0.000370431
-0.000298047
9.31122e-05
-0.000292168
0.000143049
-0.000613081
-0.000203534
3.22296e-05
-0.000635894
-0.000164872
7.60604e-05
-0.00060773
-0.000140508
0.000124883
-0.000529403
-0.000117939
0.000169829
-0.000407347
-9.50851e-05
0.000206765
-0.000257944
-7.26154e-05
0.000233098
-0.000107003
-5.13745e-05
0.000245599
1.46662e-05
-3.31433e-05
0.000239539
8.00289e-05
-2.36965e-05
0.000210217
7.78384e-05
-3.27568e-05
0.000158578
1.74199e-05
-6.4421e-05
9.50911e-05
-8.13861e-05
-0.000108282
3.48303e-05
-0.000197961
-0.000147707
-1.0071e-05
-0.000317209
-0.000172084
-3.28602e-05
-0.000430278
-0.000182112
-3.21734e-05
-0.00018097
-1.17743e-05
-0.000693399
-4.92734e-05
-0.000179974
-0.00072186
-5.28996e-05
-0.000135739
-0.000692169
-6.44652e-05
-7.57181e-05
-0.000607504
-7.59051e-05
-4.97958e-06
-0.000474272
-8.22368e-05
7.06998e-05
-0.000306915
-7.94223e-05
0.000146314
-0.00012841
-6.37507e-05
0.00021485
3.03721e-05
-3.31626e-05
0.000265625
0.000134627
7.19444e-06
0.000283514
0.00015828
4.10231e-05
0.000255059
0.000100052
5.02889e-05
0.000182817
-1.7998e-05
3.48482e-05
8.70209e-05
-0.000166903
1.07641e-05
-8.4194e-06
-0.000321646
-8.35621e-06
-8.6089e-05
-0.000466679
-2.07326e-05
-0.00013549
-2.99389e-05
-0.000146279
-0.000720101
0.000119743
-0.000370234
-0.000747209
6.55891e-05
-0.00033524
-0.000712568
1.27012e-05
-0.000277515
-0.000621742
-3.72656e-05
-0.000198097
-0.000482268
-7.65966e-05
-0.000102571
-0.0003075
-9.74167e-05
3.93695e-06
-0.000116979
-9.14282e-05
0.000112836
6.12956e-05
-5.27568e-05
0.000213802
0.000191165
1.71537e-05
0.00028676
0.000236165
0.000100279
0.000304043
0.00018264
0.000164626
0.000249537
5.07273e-05
0.000192225
0.00013903
-0.00012315
0.000192711
6.56966e-06
-0.000304842
0.000181677
-0.000117688
-0.000472366
0.000165213
-0.000213124
0.000141015
-0.000256228
-0.000688495
0.00027544
-0.000510059
-0.000708214
0.0001691
-0.000492414
-0.000665533
7.25253e-05
-0.000447251
-0.000569426
-1.62841e-05
-0.000374158
-0.000428632
-8.852e-05
-0.000277932
-0.000255535
-0.000132895
-0.000163173
-6.69192e-05
-0.000138136
-3.5273e-05
0.000114073
-9.47163e-05
9.69449e-05
0.00025431
5.61287e-07
0.000216364
0.000312842
0.000132948
0.000289132
0.000264325
0.000261218
0.000277219
0.000124041
0.000344377
0.000177873
-6.61389e-05
0.000377696
2.84424e-05
-0.00026461
0.000377177
-0.000127994
-0.000443613
0.000354489
-0.000259784
0.000311561
-0.000333748
-0.000595898
0.000393183
-0.000568128
-0.000603576
0.000239514
-0.000573206
-0.00055273
0.00010116
-0.000547179
-0.000454548
-2.38876e-05
-0.000492121
-0.000319281
-0.000125427
-0.000412288
-0.000158137
-0.00019049
-0.00031005
1.55929e-05
-0.000205989
-0.000187504
0.000184443
-0.000160018
-4.8669e-05
0.00032191
-4.48797e-05
9.54929e-05
0.000387937
0.000131029
0.000215477
0.000346646
0.000325413
0.000259698
0.000204381
0.0004739
0.000196884
6.60854e-06
0.000547515
5.43189e-05
-0.000198154
0.000559071
-0.000114963
-0.000377257
0.000527353
-0.000267935
0.000461968
-0.000366861
-0.000442615
0.000456853
-0.000523493
-0.000436898
0.000267189
-0.000552624
-0.000381222
9.38437e-05
-0.000549891
-0.000288134
-6.00201e-05
-0.000522903
-0.000168415
-0.000183481
-0.000474662
-3.11975e-05
-0.000263995
-0.000403741
0.000114229
-0.00028781
-0.000307121
0.000256897
-0.00024187
-0.000183818
0.000379023
-0.000115398
-3.91676e-05
0.00044914
9.1574e-05
0.00010635
0.000424218
0.000343888
0.00020283
0.000293319
0.000562845
0.000194808
9.92456e-05
0.000685336
8.39329e-05
-0.000101432
0.000711197
-7.56375e-05
-0.00027014
0.000667189
-0.000230448
0.000574346
-0.000343105
-0.00023705
0.000462178
-0.000379678
-0.000221165
0.00025225
-0.000427534
-0.000168044
5.64457e-05
-0.000450822
-9.00858e-05
-0.000113599
-0.00046087
3.17547e-06
-0.000247927
-0.000457963
0.000104136
-0.000336075
-0.00043349
0.000208735
-0.000366164
-0.000377904
0.000311815
-0.000323998
-0.000285065
0.000405738
-0.00019673
-0.000157131
0.000472382
2.10046e-05
-8.82388e-06
0.000474559
0.000307572
0.000121278
0.000380611
0.000587928
0.000172331
0.000212529
0.000768089
0.000115828
2.96501e-05
0.000816381
-9.14082e-06
-0.000119773
0.000760434
-0.00014444
0.000634732
-0.000253955
-2.13277e-06
0.000416369
-0.000171057
1.63768e-05
0.000201609
-0.00022343
5.71856e-05
8.98046e-07
-0.000271119
0.000110127
-0.000168395
-0.000323878
0.000167335
-0.000299656
-0.000375316
0.00022465
-0.000387225
-0.000407672
0.000280293
-0.000420861
-0.000401971
0.000334578
-0.00038646
-0.000347229
0.000388209
-0.000269909
-0.00024436
0.000437333
-6.30516e-05
-0.000106652
0.000462518
0.000222978
3.59336e-05
0.000428225
0.000531409
0.000133433
0.000322769
0.00076216
0.000143118
0.000185021
0.000845374
7.67094e-05
6.74839e-05
0.000788416
-1.61164e-05
0.00063248
-0.000101444
0.00022077
0.000330352
5.15834e-05
0.000233543
0.00012473
1.28363e-05
0.000254675
-6.11234e-05
-5.08645e-05
0.000277574
-0.00021129
-0.000143751
0.000296912
-0.000325351
-0.000250649
0.000309457
-0.000403352
-0.000342137
0.0003152
-0.000437572
-0.000388778
0.000318273
-0.000414126
-0.000374187
0.000325723
-0.000318103
-0.000298632
0.000343922
-0.000140159
-0.000176255
0.000371414
0.000113466
-3.33989e-05
0.000388706
0.000403587
9.13077e-05
0.000368806
0.000648165
0.000159331
0.000312802
0.000761802
0.000163259
0.000252936
0.00071977
0.000132665
0.000554978
9.41487e-05
0.000375842
0.000210136
0.000248886
0.000381446
2.95256e-05
0.000233411
0.000382839
-0.000121572
0.000165269
0.00037943
-0.000236054
4.36733e-05
0.000367886
-0.000321073
-0.000109125
0.000344255
-0.000381555
-0.000252634
0.000308193
-0.00041298
-0.000347237
0.000266272
-0.000402121
-0.000370831
0.000230406
-0.000333586
-0.000322445
0.000213859
-0.000197469
-0.000216823
0.000226097
2.28263e-06
-7.89056e-05
0.000264984
0.000237544
5.95302e-05
0.000311732
0.00044898
0.00016761
0.000345733
0.00056294
0.000232436
0.00036389
0.000538896
0.000268155
0.000396927
0.000291177
0.000419821
6.00958e-05
0.000401711
0.000422937
-7.57994e-05
0.000406476
0.000412893
-0.000176036
0.000342193
0.000395185
-0.000244095
0.000207876
0.000368267
-0.00029219
2.81229e-05
0.000325394
-0.000329538
-0.000151358
0.000264259
-0.000354845
-0.000283296
0.000192341
-0.0003564
-0.000340309
0.000125179
-0.000318914
-0.000318885
8.08871e-05
-0.000231997
-0.000232685
7.47713e-05
-9.75024e-05
-0.000104731
0.000113548
6.4621e-05
3.77508e-05
0.000188926
0.000213745
0.000169398
0.000278264
0.000298167
0.000275979
0.000356566
0.000282474
0.000362332
0.000181004
0.000439318
0.000348156
-0.000101851
0.000498759
0.000351929
-0.000177838
0.000515033
0.000340748
-0.000220647
0.000459242
0.000324371
-0.000239787
0.000329024
0.000301015
-0.000249616
0.000145602
0.00026056
-0.000261784
-4.70619e-05
0.000196894
-0.000278347
-0.000200742
0.000116338
-0.000290208
-0.000284156
3.61529e-05
-0.000283185
-0.000289777
-2.25718e-05
-0.000246321
-0.000227801
-4.1814e-05
-0.000178369
-0.000117665
-1.22197e-05
-9.11675e-05
1.78474e-05
6.1555e-05
-9.51363e-06
0.000157576
0.000160005
3.52745e-05
0.000286331
0.000253827
2.09387e-05
0.000400958
-4.11002e-05
0.000506207
0.000190984
-0.000244958
0.000529383
0.000193297
-0.000258888
0.000550863
0.000187642
-0.000250467
0.000507996
0.000184875
-0.000227921
0.000397372
0.00018192
-0.000204937
0.000234169
0.000164949
-0.000194084
5.33161e-05
0.000122396
-0.000200318
-0.000102967
5.618e-05
-0.000218192
-0.000202964
-1.78983e-05
-0.000235952
-0.00023446
-7.82423e-05
-0.000242477
-0.000201775
-0.000106175
-0.000232512
-0.000118807
-9.22809e-05
-0.000209361
-3.21404e-06
-3.98731e-05
-0.000184492
0.000127548
3.44187e-05
-0.000173508
0.000258799
0.000106403
-0.00018733
0.000380667
-0.000219332
0.000488213
-9.97221e-06
-0.000338728
0.000490224
-1.26227e-05
-0.000303255
0.000514867
-1.06597e-05
-0.000259732
0.00049023
6.20161e-06
-0.000210567
0.000411705
3.34947e-05
-0.00016578
0.000288348
5.51232e-05
-0.000137646
0.000142653
5.2972e-05
-0.000132908
4.94485e-06
2.08012e-05
-0.000150252
-9.80502e-05
-3.16762e-05
-0.000182199
-0.000150594
-8.51613e-05
-0.000218824
-0.00014989
-0.000121115
-0.000251252
-0.000102455
-0.000129425
-0.000274674
-1.96533e-05
-0.000111402
-0.000289701
8.55285e-05
-7.884e-05
-0.00030088
0.000200076
-4.75691e-05
-0.000313081
0.000311171
-0.00032489
0.000404367
-0.000204072
0.000391944
-0.000217103
0.000419571
-0.000210558
0.000415851
-0.000176662
0.000375894
-0.000119094
0.000303626
-5.45566e-05
0.000210066
-6.5471e-06
0.000110637
7.70259e-06
2.17852e-05
-1.32686e-05
-4.20051e-05
-5.54889e-05
-7.14971e-05
-0.000100207
-6.37907e-05
-0.000134513
-2.25615e-05
-0.000155375
4.45518e-05
-0.000168236
0.000127607
-0.000181211
0.000214405
0.000286464
-0.000527673
-0.000105007
0.000195782
-0.000534297
-4.71666e-05
0.0002085
-0.0005103
-8.53871e-06
0.000210299
-0.000453675
1.58162e-05
0.000190437
-0.000369897
2.37875e-05
0.000153123
-0.000274325
1.21103e-05
0.000108417
-0.00018843
-1.80101e-05
6.56297e-05
-0.000132495
-6.119e-05
3.0019e-05
-0.000118287
-0.000109987
2.66121e-06
-0.000144452
-0.000157605
-1.68013e-05
-0.00019816
-0.00019692
-2.76375e-05
-0.000263213
-0.000220105
-2.70143e-05
-0.000327234
-0.000221985
-1.14762e-05
-0.000384468
-0.000203746
2.0244e-05
-0.000435237
-0.000173328
6.58505e-05
-0.000140303
0.000115418
-0.000619627
2.64061e-05
-3.12362e-05
-0.000638482
5.44901e-05
-6.74175e-06
-0.000615102
6.86423e-05
2.43233e-05
-0.000549268
6.95438e-05
5.02665e-05
-0.000445814
5.78136e-05
6.92849e-05
-0.000319099
3.50288e-05
8.34647e-05
-0.000191642
5.85124e-06
9.428e-05
-8.97792e-05
-2.34863e-05
9.99726e-05
-3.6405e-05
-4.85028e-05
9.5359e-05
-4.1505e-05
-6.95396e-05
7.56127e-05
-9.71579e-05
-8.75182e-05
4.13422e-05
-0.000183972
-9.8063e-05
-3.97545e-07
-0.000282436
-9.4371e-05
-3.92212e-05
-0.000378981
-7.50526e-05
-6.50086e-05
-0.000467905
-4.61436e-05
-7.04335e-05
-1.83226e-05
-4.99808e-05
-0.000659435
0.000179236
-0.000248133
-0.000683805
0.000166879
-0.000223758
-0.000657835
0.000146675
-0.000179722
-0.000583289
0.000114714
-0.000124695
-0.000465492
7.44883e-05
-6.37716e-05
-0.00031762
3.28048e-05
6.66005e-07
-0.000161096
-8.51147e-07
6.50286e-05
-2.36963e-05
-1.74466e-05
0.000122186
6.4177e-05
-1.25284e-05
0.000159667
8.02624e-05
6.93433e-06
0.000162499
2.4068e-05
2.77139e-05
0.000123779
-8.34457e-05
4.46231e-05
5.18484e-05
-0.000214398
6.30124e-05
-3.48502e-05
-0.000346627
8.72359e-05
-0.000116149
-0.000467806
0.00011374
-0.000174194
0.000131373
-0.000189017
-0.000649722
0.000329326
-0.000428506
-0.000673377
0.000271111
-0.000415817
-0.000640899
0.000210509
-0.000373827
-0.000556849
0.000140426
-0.000307859
-0.000428213
6.72383e-05
-0.000223957
-0.000267869
2.85625e-06
-0.000126458
-9.51061e-05
-3.98766e-05
-2.09012e-05
6.4045e-05
-4.65936e-05
8.37973e-05
0.000177129
-1.05922e-05
0.000171739
0.000211922
5.85388e-05
0.000217646
0.000156606
0.000133951
0.000198616
3.15527e-05
0.000192894
0.000115812
-0.000127909
0.000234749
-5.70599e-06
-0.000290357
0.000266293
-0.000134297
-0.000436743
0.000288393
-0.000241391
0.000291456
-0.00029515
-0.000592198
0.000453944
-0.000545563
-0.000609698
0.000348935
-0.000552738
-0.000568102
0.000244631
-0.000522968
-0.000475217
0.000134249
-0.000460867
-0.000340448
2.7322e-05
-0.000372785
-0.000176569
-6.08672e-05
-0.000263329
-7.90656e-07
-0.000113217
-0.000137711
0.000165601
-0.000112941
-3.09924e-06
0.000292829
-4.88744e-05
0.000127418
0.000343813
7.21583e-05
0.000224529
0.000292961
0.000214589
0.000247433
0.000154963
0.000331007
0.000177757
-2.70777e-05
0.000405134
4.00986e-05
-0.000212698
0.000445935
-0.000122016
-0.000376211
0.000460756
-0.000268635
0.000445007
-0.000360427
-0.000485672
0.000536432
-0.00057447
-0.000492967
0.000388377
-0.000605354
-0.000442645
0.00024068
-0.00059355
-0.000345422
9.15761e-05
-0.000546671
-0.000212953
-4.60658e-05
-0.000471369
-5.78071e-05
-0.000154983
-0.00037108
0.000106317
-0.000216314
-0.000248532
0.000263794
-0.000211815
-0.000107272
0.000393107
-0.00012699
4.42963e-05
0.000458849
3.90918e-05
0.000182802
0.000422039
0.00025208
0.000259017
0.000281976
0.000440977
0.000226978
8.58685e-05
0.000558949
9.66115e-05
-0.000114269
0.000611352
-8.02418e-05
-0.000285783
0.000615567
-0.000251231
0.00057635
-0.000374459
-0.00032973
0.000568457
-0.000501245
-0.000325349
0.000386511
-0.000555139
-0.000270415
0.000201515
-0.00056566
-0.000177577
2.05651e-05
-0.000544729
-5.99413e-05
-0.000140093
-0.000498271
7.17458e-05
-0.000264082
-0.000426329
0.00020776
-0.000332446
-0.000327002
0.000339134
-0.000327
-0.000200007
0.000454453
-0.000231742
-4.97343e-05
0.000530009
-3.85027e-05
0.000108388
0.000522053
0.000231274
0.000231593
0.00040334
0.00049918
0.000255318
0.000209864
0.000677405
0.000158953
5.79174e-06
0.000748646
-8.85996e-06
-0.000163536
0.000739825
-0.000185379
0.000671678
-0.000326512
-0.000131691
0.000551336
-0.000332656
-0.000118374
0.000348419
-0.000402759
-6.64113e-05
0.000138741
-0.000440011
1.03076e-05
-6.01041e-05
-0.00045692
9.98842e-05
-0.000232544
-0.000455089
0.000193944
-0.000363691
-0.000427941
0.000287133
-0.000436719
-0.00036682
0.000376779
-0.000434205
-0.000267506
0.00046096
-0.00034008
-0.000132975
0.000531576
-0.000142641
2.46984e-05
0.000558124
0.000151028
0.000174976
0.000493879
0.000479134
0.000256623
0.000337917
0.000729366
0.000219829
0.000150968
0.000837013
8.94425e-05
-6.92152e-06
0.00082182
-6.85452e-05
0.000720539
-0.000207947
8.73635e-05
0.000493852
-0.000100054
0.000102183
0.00028333
-0.00017316
0.000140927
6.70895e-05
-0.00023821
0.000191044
-0.000131644
-0.000302455
0.000242541
-0.000301055
-0.000358302
0.000289731
-0.000430561
-0.00038799
0.000331228
-0.00050584
-0.000374348
0.00036968
-0.00051037
-0.000309517
0.00041034
-0.000428273
-0.000196826
0.000457223
-0.000247219
-4.89576e-05
0.000501355
3.30655e-05
0.000109765
0.000505352
0.00037489
0.00023368
0.000431661
0.000678139
0.000268035
0.000301723
0.000838892
0.000204769
0.000175861
0.000837681
9.38835e-05
0.000712099
-1.80253e-05
0.000286567
0.000403437
0.000149546
0.00029515
0.000199277
8.83066e-05
0.000312993
-1.7841e-06
1.65864e-07
0.000331031
-0.000180237
-0.000113196
0.000341979
-0.000331544
-0.000231109
0.000341794
-0.000450782
-0.000321732
0.000331567
-0.000526082
-0.00035831
0.000318029
-0.000541305
-0.000329714
0.000311675
-0.000480312
-0.00024024
0.000323612
-0.000330847
-0.000104565
0.000359573
-9.07931e-05
5.44991e-05
0.00040616
0.000216664
0.000202947
0.000425431
0.000520622
0.000297577
0.000394956
0.000717499
0.000315127
0.000338875
0.00074791
0.000278517
0.000627846
0.000223163
0.000408497
0.00027964
0.000371645
0.000410384
0.000101381
0.000329419
0.000407814
-6.20145e-05
0.00022807
0.000398107
-0.000201686
7.48295e-05
0.0003766
-0.000322017
-9.7146e-05
0.000339048
-0.000423463
-0.000242401
0.00028716
-0.000496461
-0.00032497
0.000230333
-0.000524664
-0.000330644
0.000182908
-0.000491069
-0.000264263
0.000160273
-0.000383237
-0.000141798
0.000174917
-0.000198821
1.44781e-05
0.000229141
4.53921e-05
0.000176578
0.000304338
0.000300976
0.000312059
0.000367988
0.000488637
0.000397647
0.000403078
0.000541364
0.000439612
0.000457354
0.000457287
0.00040987
0.000126635
0.000534884
0.000411041
-2.12888e-06
0.000508816
0.000397351
-0.000110371
0.00040424
0.000373559
-0.000199709
0.000229691
0.000336817
-0.0002809
2.37481e-05
0.000280875
-0.000359218
-0.00015966
0.000206217
-0.000427328
-0.000277772
0.000123235
-0.000468681
-0.000313309
4.87683e-05
-0.000465167
-0.00027032
1.0434e-06
-0.000403723
-0.000164474
-4.39076e-06
-0.000281488
-1.663e-05
4.06877e-05
-0.000111121
0.000149185
0.000130203
7.36571e-05
0.000307202
0.00023948
0.000218661
0.000436678
0.00033581
0.00027252
0.000534847
0.000231246
0.000611198
0.00029389
-3.06248e-05
0.000620262
0.000297539
-9.43536e-05
0.000603609
0.000283715
-0.000142226
0.00050492
0.000262178
-0.000180192
0.000331044
0.000230197
-0.000221528
0.000118211
0.000178712
-0.00027486
-7.99346e-05
0.000104873
-0.00033561
-0.000218623
1.76976e-05
-0.000387831
-0.000277831
-6.52942e-05
-0.000412818
-0.000259134
-0.000124536
-0.000396513
-0.000175769
-0.000143365
-0.000334506
-4.58182e-05
-0.000112197
-0.000234924
0.000110483
-3.3229e-05
-0.000120026
0.00027229
7.47776e-05
-2.39905e-05
0.000420975
0.000180758
2.08396e-05
0.000546658
1.13857e-05
0.000648692
0.000102293
-0.000154761
0.000619136
0.000105736
-0.000155228
0.000608295
9.83343e-05
-0.000151617
0.000524788
9.08254e-05
-0.000147842
0.000372531
7.96967e-05
-0.000156285
0.000180055
5.29008e-05
-0.000187154
-7.59366e-06
2.40306e-06
-0.000238795
-0.000149284
-6.71848e-05
-0.00029736
-0.000223848
-0.000140916
-0.000344614
-0.000228933
-0.000199664
-0.000365868
-0.000173672
-0.00022674
-0.000354259
-7.19773e-05
-0.000212671
-0.000312604
6.03973e-05
-0.000158786
-0.000253465
0.000207102
-7.95766e-05
-0.000196389
0.000351989
1.14271e-06
-0.000160131
0.000480919
-0.000148964
0.000581797
-0.000113744
-0.000214559
0.000535049
-0.000115123
-0.000169406
0.000530425
-0.000114655
-0.000133129
0.000471274
-0.000103137
-0.000104442
0.000356787
-8.4717e-05
-9.26571e-05
0.0002063
-7.38243e-05
-0.000107582
5.21887e-05
-8.43491e-05
-0.000149664
-7.36608e-05
-0.000119706
-0.000208433
-0.000151621
-0.00017076
-0.000268136
-0.000176017
-0.000221196
-0.000314399
-0.000150924
-0.000254828
-0.000338046
-8.50366e-05
-0.000261691
-0.000336564
1.11689e-05
-0.000241232
-0.000314551
0.000126156
-0.000203174
-0.000281919
0.000247548
-0.00016301
-0.000250401
0.000361277
-0.00022697
0.000448077
-0.000308766
0.000385734
-0.000320221
0.00038742
-0.000314442
0.000356158
-0.000284646
0.000287376
-0.000235164
0.000191831
-0.000181926
8.89903e-05
-0.00014485
-1.67435e-06
-0.000136867
-6.69151e-05
-0.000157573
-0.000100628
-0.000195253
-0.000102112
-0.000234257
-7.39115e-05
-0.000263225
-2.05226e-05
-0.000278407
5.15625e-05
-0.000283888
0.000134972
-0.000287928
0.000219404
0.000286657
-0.000473584
8.38291e-05
0.000113935
-0.000475464
0.000141245
0.000121789
-0.000459616
0.000179819
0.000113822
-0.000422994
0.000194367
8.04795e-05
-0.000368843
0.000179239
3.05255e-05
-0.000308574
0.000131892
-2.03693e-05
-0.000256959
5.80538e-05
-5.94919e-05
-0.000226828
-2.85223e-05
-8.20073e-05
-0.000225112
-0.000110379
-9.03154e-05
-0.000250403
-0.000173392
-9.05044e-05
-0.00029337
-0.000208206
-8.76863e-05
-0.000340795
-0.000211005
-8.22377e-05
-0.000381714
-0.000183411
-6.96973e-05
-0.000411445
-0.000132482
-4.43838e-05
-0.000432261
-6.96233e-05
-3.30769e-06
-1.01803e-05
4.98803e-05
-0.000537012
0.000213095
-0.000112595
-0.000551802
0.000243636
-9.43426e-05
-0.000536685
0.000259794
-7.07692e-05
-0.000489372
0.000252251
-5.49303e-05
-0.000412222
0.000218425
-4.70511e-05
-0.000316363
0.00016046
-4.09612e-05
-0.000219848
8.71439e-05
-3.13249e-05
-0.000143367
1.2632e-05
-1.76634e-05
-0.00010438
-4.86395e-05
-5.36769e-06
-0.000110851
-8.77616e-05
-3.54632e-06
-0.000157073
-0.000101765
-1.88767e-05
-0.000227014
-9.07499e-05
-5.07116e-05
-0.000303273
-5.63529e-05
-9.00199e-05
-0.000374004
-3.62573e-06
-0.000123135
-0.000434822
5.70705e-05
-0.000136308
0.000110931
-0.000116809
-0.000550363
0.000347502
-0.000315567
-0.000571524
0.000343249
-0.000302209
-0.000552308
0.000327541
-0.000266685
-0.000492523
0.0002885
-0.000220729
-0.0003956
0.000226955
-0.000169226
-0.000272715
0.000150571
-0.00011233
-0.000142656
7.28944e-05
-5.0781e-05
-2.93257e-05
1.05937e-05
1.0894e-05
4.21844e-05
-2.2551e-05
6.2068e-05
5.38871e-05
-2.39296e-05
8.69646e-05
4.65745e-06
-5.25379e-07
7.17688e-05
-8.78318e-05
3.84453e-05
1.51425e-05
-0.000198791
8.861e-05
-6.8854e-05
-0.000307809
0.000146614
-0.00015737
-0.000404177
0.00020537
-0.000226125
0.000249889
-0.000248764
-0.000523785