/*--------------------------------*- C++ -*----------------------------------*\
| =========                 |                                                 |
| \\      /  F ield         | OpenFOAM: The Open Source CFD Toolbox           |
|  \\    /   O peration     | Version:  3.0.0                                 |
|   \\  /    A nd           | Web:      www.OpenFOAM.org                      |
|    \\/     M anipulation  |                                                 |
\*---------------------------------------------------------------------------*/
FoamFile
{
    version     2.0;
    format      ascii;
    class       volVectorField;
    location    "8.25";
    object      U;
}
// * * * * * * * * * * * * * * * * * * * * * * * * * * * * * * * * * * * * * //

dimensions      [0 1 -1 0 0 0 0];

internalField   nonuniform List<vector> 
4096
(
(-0.096495 -0.140892 0.0599921)
(-0.0952846 -0.119562 0.0815604)
(-0.0931344 -0.0978719 0.099255)
(-0.0779085 -0.0730795 0.111214)
(-0.0520388 -0.0468086 0.115896)
(-0.0200877 -0.0224318 0.111642)
(0.011241 -0.00378075 0.0975936)
(0.0344865 0.00565354 0.0752007)
(0.0450938 0.00359015 0.0485918)
(0.0430906 -0.0100924 0.0231612)
(0.0314692 -0.0327866 0.00339917)
(0.0138196 -0.0597007 -0.00788395)
(-0.00712188 -0.0855848 -0.00951646)
(-0.0300806 -0.106471 -0.0019427)
(-0.0547289 -0.120647 0.0123757)
(-0.070623 -0.126793 0.0287006)
(-0.135458 -0.120755 0.0188722)
(-0.137189 -0.104023 0.041013)
(-0.138675 -0.0889908 0.0629201)
(-0.123651 -0.0711759 0.083351)
(-0.0950838 -0.0507839 0.100503)
(-0.0567817 -0.0297615 0.111969)
(-0.0145433 -0.0108746 0.115211)
(0.0237507 0.00254971 0.108203)
(0.0500553 0.00709289 0.0904559)
(0.0591816 8.90289e-05 0.0644701)
(0.0510292 -0.0177679 0.0359482)
(0.0294099 -0.0417345 0.0111753)
(-0.000692203 -0.0655871 -0.00537105)
(-0.035357 -0.0846981 -0.012021)
(-0.0720858 -0.0975326 -0.00991389)
(-0.0941682 -0.103044 -0.00248298)
(-0.170463 -0.0956746 -0.0255874)
(-0.171277 -0.086393 -0.0034934)
(-0.174063 -0.0791345 0.0204369)
(-0.158098 -0.0687576 0.046113)
(-0.127434 -0.0546419 0.0718675)
(-0.0856433 -0.03764 0.0952751)
(-0.0374637 -0.0193311 0.11335)
(0.0102566 -0.00203212 0.1224)
(0.0488097 0.0105947 0.118076)
(0.0691872 0.0137878 0.0978875)
(0.0664305 0.00488734 0.0655941)
(0.0426021 -0.0132683 0.0300492)
(0.00460172 -0.0342663 -0.000328738)
(-0.040625 -0.0526384 -0.02087)
(-0.0882081 -0.0663857 -0.0308332)
(-0.115027 -0.074119 -0.031403)
(-0.193047 -0.0554174 -0.0715401)
(-0.191625 -0.0582623 -0.0509975)
(-0.19391 -0.0616216 -0.0277649)
(-0.176562 -0.0610156 -0.000468891)
(-0.144585 -0.0551179 0.0295867)
(-0.101593 -0.0437031 0.0602889)
(-0.0516576 -0.0272675 0.0888456)
(-0.00049417 -0.00720749 0.111364)
(0.0441992 0.0133455 0.12183)
(0.0724232 0.0285391 0.113249)
(0.0752141 0.0322778 0.084447)
(0.0513981 0.0240236 0.0439547)
(0.00844909 0.00906105 0.00351369)
(-0.0441229 -0.00692432 -0.0287631)
(-0.0991432 -0.0213175 -0.0497344)
(-0.128762 -0.0324058 -0.0576576)
(-0.19833 -0.00809396 -0.111879)
(-0.194765 -0.0256752 -0.0948667)
(-0.194958 -0.0409088 -0.0751963)
(-0.176098 -0.0509766 -0.0501358)
(-0.143705 -0.0540983 -0.0206119)
(-0.101391 -0.0490746 0.0119479)
(-0.0527654 -0.0354407 0.0455139)
(-0.00271221 -0.0136962 0.076887)
(0.0422607 0.0138145 0.100196)
(0.0730289 0.0411294 0.106059)
(0.0792021 0.0595238 0.087592)
(0.056635 0.0642478 0.0495143)
(0.0118948 0.0578838 0.00480092)
(-0.0440517 0.0455627 -0.0352292)
(-0.102178 0.0306507 -0.0647211)
(-0.133001 0.0153475 -0.0789394)
(-0.182945 0.0375192 -0.136431)
(-0.178151 0.0049733 -0.125053)
(-0.175171 -0.0220867 -0.111113)
(-0.155346 -0.0425775 -0.0918432)
(-0.123982 -0.0544755 -0.0675997)
(-0.084437 -0.0558609 -0.0388819)
(-0.03977 -0.045442 -0.00644698)
(0.00595543 -0.0227968 0.0278994)
(0.0472638 0.010658 0.0595833)
(0.0762773 0.0494441 0.0790505)
(0.082897 0.0830164 0.0749872)
(0.0614723 0.102298 0.0460546)
(0.0173214 0.106116 0.0035933)
(-0.038197 0.0982629 -0.0389286)
(-0.0949278 0.0827633 -0.0729871)
(-0.125602 0.0626896 -0.0916958)
(-0.14586 0.0728499 -0.136234)
(-0.141086 0.0278104 -0.132009)
(-0.134917 -0.00960643 -0.125014)
(-0.115589 -0.0389897 -0.11416)
(-0.0875117 -0.0582951 -0.0993162)
(-0.0533963 -0.0653103 -0.0796996)
(-0.0155042 -0.058099 -0.0543642)
(0.0231173 -0.0352576 -0.0233383)
(0.0582473 0.00294393 0.0107168)
(0.0834746 0.0520136 0.0397077)
(0.0894802 0.100429 0.0504627)
(0.0695529 0.134634 0.0352886)
(0.0278403 0.148962 0.00114284)
(-0.0241142 0.145486 -0.0380688)
(-0.0754356 0.128775 -0.0716863)
(-0.104477 0.103298 -0.0921852)
(-0.0905098 0.0912805 -0.109782)
(-0.0864678 0.0386505 -0.112123)
(-0.0785276 -0.00583831 -0.112153)
(-0.0619428 -0.0409921 -0.111175)
(-0.0398098 -0.0650728 -0.108622)
(-0.0139357 -0.0761128 -0.102113)
(0.0143522 -0.0718182 -0.0885809)
(0.0431707 -0.0498437 -0.0661355)
(0.0698036 -0.00909733 -0.0356648)
(0.0900679 0.0474821 -0.00311801)
(0.0965511 0.108941 0.0192423)
(0.0811961 0.157828 0.0195488)
(0.0452993 0.182421 -0.001382)
(-1.05866e-07 0.18238 -0.0316102)
(-0.0429019 0.163088 -0.0595208)
(-0.0682849 0.131013 -0.0782889)
(-0.0259442 0.0911273 -0.0664162)
(-0.022102 0.036451 -0.0712741)
(-0.0148763 -0.0103691 -0.0765964)
(-0.00326031 -0.0468308 -0.0851905)
(0.0108727 -0.0719924 -0.0959317)
(0.0265397 -0.0847388 -0.104538)
(0.0431557 -0.0827613 -0.105515)
(0.0599399 -0.0629294 -0.0948422)
(0.0758411 -0.022902 -0.0720136)
(0.0891967 0.036105 -0.0414177)
(0.0960812 0.105256 -0.0131107)
(0.0893327 0.166399 0.000647476)
(0.0655438 0.201359 -0.00452663)
(0.0319324 0.204583 -0.0211774)
(0.000194487 0.181648 -0.0387667)
(-0.0184123 0.141514 -0.0517915)
(0.0349056 0.0760373 -0.0203285)
(0.0401298 0.0234925 -0.0218062)
(0.044452 -0.0206528 -0.0288573)
(0.0499873 -0.0536032 -0.0445372)
(0.0556262 -0.0758368 -0.0671764)
(0.0607909 -0.0875815 -0.0906152)
(0.0652777 -0.0869133 -0.106621)
(0.0691129 -0.0702084 -0.108808)
(0.0727749 -0.0342005 -0.0954054)
(0.0769614 0.0211824 -0.0700062)
(0.0813829 0.0894885 -0.0409897)
(0.0826108 0.155206 -0.0188323)
(0.0755156 0.197984 -0.00978855)
(0.0602843 0.205541 -0.0110471)
(0.043938 0.180332 -0.0151621)
(0.0369217 0.132886 -0.0183242)
(0.079131 0.050652 0.0195701)
(0.0872525 0.00350805 0.0251131)
(0.0883584 -0.0335255 0.0199334)
(0.0886197 -0.0588867 0.000954999)
(0.0872638 -0.0747033 -0.0300852)
(0.0836665 -0.0828312 -0.0657626)
(0.0775608 -0.0821301 -0.0953065)
(0.0694442 -0.0689933 -0.109839)
(0.0611097 -0.03963 -0.106159)
(0.0552607 0.00689871 -0.0872443)
(0.0543457 0.0659007 -0.0605128)
(0.0586832 0.125297 -0.0347637)
(0.0653361 0.167402 -0.0159264)
(0.0702981 0.177454 -0.00376799)
(0.0726007 0.153131 0.00606956)
(0.0812509 0.104014 0.0157367)
(0.0986081 0.0173929 0.0515478)
(0.109588 -0.0205581 0.0635934)
(0.109176 -0.0466592 0.0620507)
(0.106864 -0.0615352 0.0434072)
(0.101836 -0.0686857 0.00863838)
(0.0930019 -0.0711109 -0.0348452)
(0.0798386 -0.0690109 -0.0747088)
(0.0629606 -0.0593804 -0.0999116)
(0.0452227 -0.0384155 -0.105566)
(0.0309735 -0.00459299 -0.0936644)
(0.0245084 0.0388529 -0.0706756)
(0.0283423 0.0830215 -0.0441497)
(0.0418034 0.114725 -0.0194397)
(0.0603522 0.121705 0.00234383)
(0.0776095 0.0999299 0.0234829)
(0.0994739 0.0571252 0.0454903)
(0.0927927 -0.0213735 0.0751266)
(0.104381 -0.0465703 0.0910667)
(0.104456 -0.059158 0.0932335)
(0.102722 -0.062019 0.0776807)
(0.0983615 -0.0595042 0.0440875)
(0.089376 -0.055225 -0.001448)
(0.0743683 -0.050644 -0.0469849)
(0.0539172 -0.0440743 -0.0802132)
(0.0314838 -0.0322388 -0.0944466)
(0.0125553 -0.0131683 -0.0900359)
(0.00250137 0.0115466 -0.0720262)
(0.00462669 0.0362659 -0.0467693)
(0.018992 0.0525551 -0.0192531)
(0.0414007 0.0524899 0.00831652)
(0.0640685 0.0332979 0.0363592)
(0.0896118 0.00134139 0.0661684)
(0.066676 -0.0615862 0.0882839)
(0.0756956 -0.0723221 0.105858)
(0.0767596 -0.0711886 0.111277)
(0.0778332 -0.0623557 0.100912)
(0.0781364 -0.0504166 0.0732519)
(0.0745795 -0.0394179 0.0318615)
(0.064191 -0.0317734 -0.0135982)
(0.0465774 -0.0273584 -0.0512241)
(0.0251377 -0.023912 -0.0727917)
(0.00573277 -0.0191711 -0.0764111)
(-0.00589544 -0.0128309 -0.0650954)
(-0.00635881 -0.00717161 -0.0437872)
(0.00436991 -0.00617972 -0.0170228)
(0.0225132 -0.0136802 0.0121303)
(0.0412478 -0.03049 0.0423727)
(0.0606837 -0.0518293 0.0739657)
(0.026706 -0.0985095 0.0895145)
(0.0314105 -0.0954629 0.107586)
(0.0326082 -0.082979 0.116042)
(0.0370572 -0.0647337 0.112298)
(0.0443307 -0.044946 0.0944242)
(0.0506209 -0.0278814 0.0631967)
(0.0509981 -0.0167607 0.0242384)
(0.0427986 -0.0128659 -0.0130975)
(0.0278102 -0.0152585 -0.0400563)
(0.0112775 -0.0218186 -0.0522184)
(-0.00109625 -0.0305679 -0.0498614)
(-0.00578724 -0.0406321 -0.0359928)
(-0.00250044 -0.0522029 -0.0142879)
(0.00590736 -0.0657608 0.0119661)
(0.0145644 -0.0807294 0.040131)
(0.0229355 -0.0942722 0.0685974)
(-0.0178279 -0.114894 0.0794524)
(-0.0166516 -0.102435 0.0973176)
(-0.0167785 -0.0850417 0.108594)
(-0.0103451 -0.0635295 0.111977)
(0.00286707 -0.040578 0.106078)
(0.0197184 -0.0198632 0.0897493)
(0.0342875 -0.00514752 0.0637009)
(0.04067 0.000511794 0.0323596)
(0.0367486 -0.00419365 0.00287)
(0.0253669 -0.017719 -0.0181042)
(0.0120267 -0.0365251 -0.0270463)
(0.00122391 -0.0567653 -0.0240233)
(-0.0053909 -0.0756361 -0.0111998)
(-0.00904464 -0.091518 0.00839389)
(-0.0125943 -0.103646 0.0313073)
(-0.0146984 -0.111253 0.0540186)
(-0.129685 -0.095796 0.0671738)
(-0.126955 -0.0756657 0.0804506)
(-0.126703 -0.0598374 0.0907601)
(-0.113554 -0.0447293 0.0955977)
(-0.0899478 -0.0310746 0.0942416)
(-0.0598077 -0.0208134 0.086691)
(-0.029008 -0.015596 0.0735205)
(-0.00464356 -0.0164611 0.0560454)
(0.00771918 -0.0237817 0.0367942)
(0.00652985 -0.0368314 0.0190538)
(-0.00552173 -0.0531565 0.0061312)
(-0.0238583 -0.0690711 0.000244094)
(-0.0445634 -0.081302 0.00211295)
(-0.0658081 -0.0883795 0.0108901)
(-0.0878327 -0.0908961 0.0243597)
(-0.0981193 -0.0892969 0.0379423)
(-0.160311 -0.0680549 0.0153152)
(-0.159801 -0.0538937 0.029913)
(-0.162324 -0.0438383 0.0455755)
(-0.148708 -0.0344259 0.0603369)
(-0.122145 -0.025489 0.0728113)
(-0.086154 -0.0177983 0.0816328)
(-0.0460322 -0.0121504 0.0852398)
(-0.00920314 -0.00939381 0.0819148)
(0.0162891 -0.0108423 0.0704494)
(0.0247029 -0.0178984 0.0520337)
(0.0156977 -0.0299518 0.0309615)
(-0.00610743 -0.0436077 0.0123016)
(-0.0348103 -0.0547866 -0.000507416)
(-0.0663986 -0.0612747 -0.00621042)
(-0.0993348 -0.0634844 -0.00528955)
(-0.11509 -0.0620259 0.000224791)
(-0.181295 -0.0337246 -0.0371383)
(-0.180919 -0.0285241 -0.0228345)
(-0.184438 -0.0263583 -0.00492912)
(-0.16983 -0.0244972 0.0156961)
(-0.14107 -0.0220094 0.0375836)
(-0.101503 -0.0184478 0.058996)
(-0.0557112 -0.0134481 0.0775876)
(-0.010481 -0.00703602 0.0899867)
(0.0255028 -0.000801416 0.0916996)
(0.0432569 0.00169746 0.0794158)
(0.0382475 -0.00219942 0.0553702)
(0.0138122 -0.0107187 0.0267532)
(-0.022208 -0.0194068 0.000580842)
(-0.0631711 -0.0251504 -0.0190805)
(-0.105555 -0.0278872 -0.0306249)
(-0.126038 -0.0284611 -0.0328748)
(-0.188321 0.00902353 -0.0856844)
(-0.187648 0.00204918 -0.0736549)
(-0.190372 -0.00589238 -0.0567235)
(-0.174257 -0.0134402 -0.0345051)
(-0.143915 -0.0190877 -0.00825978)
(-0.102726 -0.0212291 0.0204539)
(-0.0546838 -0.0182858 0.0494359)
(-0.00563923 -0.00924695 0.0752441)
(0.0363687 0.0049423 0.0920265)
(0.0610834 0.019563 0.0921)
(0.0600917 0.0281103 0.0723939)
(0.0342256 0.0287341 0.0394146)
(-0.00741504 0.025127 0.00344633)
(-0.0556256 0.0210928 -0.0279835)
(-0.104804 0.0175425 -0.050826)
(-0.129083 0.0135999 -0.0606306)
(-0.179938 0.0520917 -0.123012)
(-0.179002 0.0316209 -0.115181)
(-0.179239 0.0125949 -0.101763)
(-0.161253 -0.00504645 -0.0817262)
(-0.130054 -0.0193196 -0.0560656)
(-0.0890223 -0.0276656 -0.0258614)
(-0.0416848 -0.0275141 0.00741325)
(0.00709901 -0.0168509 0.0412585)
(0.0505922 0.00451634 0.0705539)
(0.0789457 0.0321062 0.0856533)
(0.0811469 0.0561531 0.077173)
(0.0548461 0.0694675 0.0469311)
(0.00951555 0.0732275 0.00658693)
(-0.0433829 0.0715878 -0.0327954)
(-0.0962286 0.0667239 -0.064385)
(-0.123445 0.0583242 -0.0810824)
(-0.155552 0.0881558 -0.140761)
(-0.154387 0.054556 -0.13856)
(-0.151061 0.0243181 -0.13023)
(-0.131562 -0.00325907 -0.115286)
(-0.100833 -0.0257317 -0.0944641)
(-0.0621755 -0.0398992 -0.0681765)
(-0.018543 -0.0425501 -0.0368569)
(0.0263458 -0.030883 -0.00158999)
(0.0674463 -0.00348227 0.0343414)
(0.0965948 0.0365241 0.0623019)
(0.101614 0.0777216 0.0687661)
(0.0762004 0.106577 0.0480187)
(0.0291678 0.119642 0.00960355)
(-0.0257809 0.120898 -0.0326884)
(-0.0790672 0.114096 -0.0691372)
(-0.108262 0.100323 -0.0912138)
(-0.115534 0.111903 -0.133061)
(-0.114047 0.0672508 -0.137042)
(-0.107179 0.0267404 -0.134716)
(-0.0875427 -0.00956503 -0.127128)
(-0.0595574 -0.0389084 -0.114702)
(-0.0261402 -0.0578803 -0.0968565)
(0.0105005 -0.0629615 -0.0726709)
(0.0479287 -0.0508932 -0.0418094)
(0.0830027 -0.0192339 -0.00575572)
(0.110365 0.0309811 0.0293192)
(0.11908 0.0891689 0.0498709)
(0.0980931 0.135899 0.0432689)
(0.0525194 0.160115 0.0130017)
(-0.0017471 0.16454 -0.0265079)
(-0.0525144 0.154971 -0.0630002)
(-0.0823196 0.134822 -0.0878579)
(-0.0624544 0.120689 -0.100362)
(-0.0603415 0.0686376 -0.109413)
(-0.0514819 0.0203656 -0.113549)
(-0.0340484 -0.0221012 -0.115186)
(-0.0116162 -0.0559312 -0.114142)
(0.01357 -0.0780355 -0.108232)
(0.0401094 -0.0850622 -0.0947943)
(0.0667845 -0.0734888 -0.0721819)
(0.0923748 -0.0402162 -0.0407948)
(0.114642 0.0156507 -0.00474725)
(0.12682 0.0868359 0.025141)
(0.116068 0.152143 0.0338532)
(0.0789315 0.190283 0.0171118)
(0.0296985 0.198768 -0.0136931)
(-0.0158854 0.185641 -0.0450257)
(-0.0441711 0.157752 -0.0689004)
(-0.00258379 0.115224 -0.0512573)
(0.000677131 0.0598888 -0.0617965)
(0.00859471 0.00786816 -0.0716835)
(0.0211698 -0.0368244 -0.0834831)
(0.0357178 -0.0718194 -0.095703)
(0.050542 -0.0949414 -0.103963)
(0.0649008 -0.103308 -0.103365)
(0.0786675 -0.0932858 -0.0908673)
(0.0922054 -0.0613915 -0.0663974)
(0.105832 -0.00571634 -0.0333301)
(0.117691 0.0699188 0.000171315)
(0.119236 0.148428 0.0211558)
(0.100141 0.202605 0.0207475)
(0.0648193 0.218718 0.00406171)
(0.0288132 0.203113 -0.0169047)
(0.0059593 0.166467 -0.0350657)
(0.0530735 0.0984186 0.00146053)
(0.0583129 0.0433048 -0.00563757)
(0.0624505 -0.00755861 -0.0187995)
(0.0683944 -0.0497209 -0.0397273)
(0.0741982 -0.0821091 -0.0651809)
(0.0783842 -0.103941 -0.0880958)
(0.0804588 -0.112891 -0.100904)
(0.0809811 -0.105356 -0.0990072)
(0.0815994 -0.0776055 -0.0820199)
(0.0844947 -0.027327 -0.0533497)
(0.0911724 0.0434968 -0.0199221)
(0.0992238 0.123154 0.00824007)
(0.100222 0.187561 0.0223302)
(0.0884734 0.214352 0.022351)
(0.0701975 0.20087 0.0160167)
(0.0599482 0.158039 0.00873665)
(0.0907779 0.0720034 0.0483908)
(0.0986752 0.0209311 0.0477622)
(0.0983676 -0.0235247 0.0344625)
(0.0980886 -0.0584179 0.00738438)
(0.0966112 -0.0846459 -0.0288415)
(0.0922712 -0.102896 -0.0647043)
(0.0843007 -0.111563 -0.0899285)
(0.073503 -0.107128 -0.0981863)
(0.062506 -0.0856787 -0.088614)
(0.054927 -0.044736 -0.0647034)
(0.0542129 0.0144495 -0.0328889)
(0.0618023 0.0835695 -0.00133493)
(0.074567 0.144808 0.0227034)
(0.0852719 0.176626 0.037293)
(0.0896476 0.168706 0.0465194)
(0.0983517 0.127723 0.0537244)
(0.100781 0.0362042 0.0859003)
(0.110575 -0.00556768 0.0912027)
(0.107815 -0.0386124 0.0798383)
(0.104013 -0.0624728 0.0504878)
(0.0988127 -0.0798385 0.0079097)
(0.0901854 -0.0926446 -0.0370272)
(0.0765888 -0.100123 -0.0721393)
(0.0586321 -0.0989883 -0.0894242)
(0.0395816 -0.0852523 -0.0871762)
(0.0241721 -0.0563327 -0.0685681)
(0.0170831 -0.0130511 -0.0395046)
(0.0214883 0.0384373 -0.00694243)
(0.0373965 0.085563 0.0230747)
(0.0598204 0.112268 0.0479118)
(0.0804583 0.107918 0.0694453)
(0.104131 0.0762711 0.0900726)
(0.083034 -0.00589443 0.1118)
(0.092136 -0.0333565 0.120671)
(0.0893676 -0.0517124 0.112075)
(0.0855592 -0.0626975 0.0842546)
(0.0810721 -0.0699585 0.0410136)
(0.073431 -0.0762907 -0.00749989)
(0.0599885 -0.0817993 -0.0486)
(0.0406318 -0.0837203 -0.0731465)
(0.0187202 -0.0781927 -0.0781956)
(-0.000337917 -0.0624991 -0.0659408)
(-0.0111361 -0.0368247 -0.0413336)
(-0.00992495 -0.00531275 -0.010211)
(0.00420819 0.0238206 0.0222748)
(0.0277371 0.0401821 0.0529884)
(0.0525589 0.0365399 0.0818067)
(0.078841 0.0159303 0.110193)
(0.0448451 -0.0472288 0.123108)
(0.0507275 -0.0581445 0.133581)
(0.0488953 -0.0617147 0.128346)
(0.0476479 -0.0604689 0.10552)
(0.047614 -0.0581754 0.0674353)
(0.0458684 -0.0580568 0.0218529)
(0.0384737 -0.0610547 -0.0202235)
(0.023894 -0.065236 -0.0494379)
(0.00468382 -0.0671613 -0.0614409)
(-0.0138109 -0.0639591 -0.0567496)
(-0.0259651 -0.0548387 -0.0388083)
(-0.0279255 -0.041753 -0.0121758)
(-0.0187717 -0.0291669 0.0188088)
(-0.00131843 -0.0228074 0.0507481)
(0.0180193 -0.0264885 0.0817469)
(0.0370379 -0.0380162 0.111256)
(-0.00441615 -0.0799178 0.118223)
(-0.00230787 -0.0757049 0.129375)
(-0.00370096 -0.0675506 0.128317)
(-0.00139204 -0.057046 0.113291)
(0.00504511 -0.0473537 0.0852855)
(0.0124185 -0.041777 0.0488834)
(0.0156432 -0.0419089 0.0116469)
(0.0111115 -0.0468708 -0.0185087)
(-0.000665982 -0.0540726 -0.0362405)
(-0.0154289 -0.0607005 -0.0399175)
(-0.0277637 -0.0648842 -0.0308909)
(-0.0336984 -0.0663423 -0.012088)
(-0.0320401 -0.0664119 0.013127)
(-0.0247555 -0.0673423 0.0415244)
(-0.016263 -0.0708322 0.0701091)
(-0.00776872 -0.0759648 0.0959574)
(-0.0534504 -0.0913422 0.0988697)
(-0.0539812 -0.0773888 0.11028)
(-0.0562893 -0.0637488 0.113794)
(-0.0512352 -0.0495292 0.107957)
(-0.038771 -0.036677 0.0928995)
(-0.0218823 -0.0279983 0.0703288)
(-0.00616374 -0.0254017 0.0435782)
(0.00245578 -0.0292718 0.0172922)
(0.00121655 -0.0385074 -0.00366748)
(-0.00790886 -0.0507892 -0.0155829)
(-0.0200237 -0.0633053 -0.017008)
(-0.0306278 -0.0737181 -0.00867516)
(-0.0376121 -0.0810163 0.00736205)
(-0.0416869 -0.0854077 0.0283706)
(-0.0454863 -0.0878244 0.0510956)
(-0.0462029 -0.0887324 0.0711334)
(-0.139911 -0.0424751 0.059047)
(-0.135296 -0.0243927 0.0642305)
(-0.135702 -0.0121784 0.0668449)
(-0.125408 -0.00377475 0.0641812)
(-0.106592 1.32651e-05 0.0567298)
(-0.0825513 -0.00207393 0.0462849)
(-0.0580914 -0.0101374 0.0347463)
(-0.0388379 -0.0228418 0.0234632)
(-0.0293085 -0.0379722 0.0132802)
(-0.0311179 -0.0529856 0.00499507)
(-0.0422685 -0.0651804 -0.000254561)
(-0.0584814 -0.0721611 -0.00131298)
(-0.0756287 -0.072778 0.00258632)
(-0.0917466 -0.0677326 0.0112733)
(-0.107594 -0.0593645 0.0234779)
(-0.110953 -0.0501945 0.0357403)
(-0.162725 -0.0113443 0.00180537)
(-0.160465 0.000529922 0.00983023)
(-0.163101 0.00800119 0.0194086)
(-0.151786 0.0118969 0.0279733)
(-0.129312 0.011985 0.0347468)
(-0.0987469 0.0080318 0.0396935)
(-0.0647568 0.000669426 0.0426284)
(-0.0337619 -0.00869385 0.0427657)
(-0.0125609 -0.0186663 0.0388409)
(-0.00606987 -0.0283636 0.0302756)
(-0.0147223 -0.0366854 0.0183688)
(-0.0343243 -0.0418043 0.00587536)
(-0.0591437 -0.0421052 -0.00437717)
(-0.0853155 -0.0375529 -0.0102906)
(-0.111925 -0.0299268 -0.0108109)
(-0.121564 -0.0217793 -0.00580171)
(-0.172307 0.0259551 -0.0543975)
(-0.171576 0.0285578 -0.0460495)
(-0.174774 0.0283334 -0.0332415)
(-0.161995 0.024853 -0.0175907)
(-0.136595 0.0186378 -0.000429835)
(-0.101557 0.0107542 0.017286)
(-0.0611661 0.00295195 0.0342305)
(-0.0216931 -0.00281983 0.0481566)
(0.00913549 -0.00567695 0.0555674)
(0.0235896 -0.00669439 0.0527976)
(0.0178298 -0.00744885 0.0391722)
(-0.00489625 -0.00756997 0.0182488)
(-0.0370951 -0.00529078 -0.0046183)
(-0.0725823 0.000105639 -0.0246529)
(-0.108472 0.00732236 -0.0382639)
(-0.124033 0.0134805 -0.0415585)
(-0.168918 0.0660434 -0.103021)
(-0.169507 0.0573483 -0.097136)
(-0.171502 0.0474248 -0.0847678)
(-0.156529 0.03471 -0.0665157)
(-0.128491 0.020443 -0.0438457)
(-0.0905434 0.0069934 -0.017996)
(-0.0466383 -0.00260248 0.00943075)
(-0.0024245 -0.00542212 0.0358569)
(0.0347128 -0.000207889 0.0567746)
(0.0556586 0.0105985 0.0653775)
(0.0529702 0.021806 0.0565142)
(0.027762 0.0304608 0.0322589)
(-0.0109753 0.0375788 0.000149072)
(-0.0544836 0.0445741 -0.0319265)
(-0.0977312 0.0509783 -0.0576951)
(-0.118866 0.0539291 -0.0699923)
(-0.153136 0.102236 -0.136715)
(-0.154734 0.081444 -0.135514)
(-0.154073 0.0605869 -0.126232)
(-0.13657 0.0376616 -0.109226)
(-0.106558 0.0146709 -0.0859089)
(-0.0674425 -0.0049028 -0.0574272)
(-0.0229288 -0.0169688 -0.0250905)
(0.0222365 -0.0176011 0.00916725)
(0.0619664 -0.004535 0.0414834)
(0.0875107 0.0198494 0.0638323)
(0.0883845 0.0468976 0.0658191)
(0.0619581 0.0681505 0.0445794)
(0.0179938 0.0822746 0.0081373)
(-0.0318477 0.0913566 -0.0324093)
(-0.0801999 0.0962606 -0.0679019)
(-0.106355 0.0948472 -0.0889815)
(-0.124938 0.129284 -0.148179)
(-0.126935 0.096651 -0.152929)
(-0.122849 0.0642837 -0.148318)
(-0.103414 0.0309146 -0.13551)
(-0.0731192 -0.000604056 -0.1159)
(-0.0355289 -0.0260014 -0.090208)
(0.00608054 -0.0405566 -0.0589989)
(0.0481078 -0.0396795 -0.0231539)
(0.0863758 -0.0200179 0.014988)
(0.114335 0.0176294 0.0487374)
(0.12033 0.0632307 0.0648522)
(0.0958168 0.101168 0.0530287)
(0.0489667 0.124698 0.0182398)
(-0.00501758 0.136321 -0.0259201)
(-0.0559312 0.138898 -0.0672721)
(-0.0860664 0.132007 -0.0955851)
(-0.0845744 0.144022 -0.132983)
(-0.0860475 0.101185 -0.143779)
(-0.0787998 0.0579945 -0.144927)
(-0.0591293 0.0152012 -0.138968)
(-0.0313573 -0.0236134 -0.127062)
(0.00115263 -0.0538005 -0.109001)
(0.0358264 -0.0704758 -0.0841184)
(0.0703737 -0.0689046 -0.0521765)
(0.102633 -0.0450572 -0.0142835)
(0.129396 0.00245422 0.0251332)
(0.141751 0.0659691 0.0540545)
(0.125491 0.12449 0.0564095)
(0.0811435 0.16096 0.0298245)
(0.0262238 0.175902 -0.0120597)
(-0.0245801 0.17525 -0.0543881)
(-0.0569237 0.161646 -0.0867877)
(-0.0342269 0.14565 -0.092601)
(-0.0341483 0.0956113 -0.107847)
(-0.0253783 0.0440605 -0.115673)
(-0.00809033 -0.00553059 -0.119255)
(0.0139022 -0.0491105 -0.118839)
(0.0377894 -0.0823085 -0.112455)
(0.0618255 -0.100547 -0.0977162)
(0.0850722 -0.0992534 -0.0732469)
(0.107207 -0.0742752 -0.0396192)
(0.127978 -0.022797 -7.79903e-05)
(0.143933 0.0519294 0.0365012)
(0.142015 0.130761 0.0539569)
(0.110885 0.185356 0.0418172)
(0.0618334 0.20653 0.00892185)
(0.0143423 0.20252 -0.0285867)
(-0.0174762 0.180752 -0.0603862)
(0.0206037 0.135983 -0.0356528)
(0.0229953 0.0821225 -0.0517578)
(0.0303244 0.0262825 -0.0662057)
(0.0424134 -0.0259438 -0.0812918)
(0.0559965 -0.0707534 -0.0952276)
(0.0687934 -0.104742 -0.103403)
(0.0799073 -0.123909 -0.101115)
(0.0895982 -0.123938 -0.0859007)
(0.099083 -0.100759 -0.0582728)
(0.110104 -0.0512038 -0.0214846)
(0.123507 0.0243476 0.0175907)
(0.133557 0.113732 0.0464187)
(0.125524 0.187551 0.0519115)
(0.0952226 0.221542 0.034871)
(0.0580755 0.217662 0.00866054)
(0.031901 0.187479 -0.0165435)
(0.069592 0.117617 0.0251852)
(0.0747815 0.0630698 0.012484)
(0.0778866 0.00811507 -0.00687732)
(0.0829139 -0.0415741 -0.0333766)
(0.0871457 -0.0836727 -0.062389)
(0.0885684 -0.116132 -0.0859642)
(0.086776 -0.135611 -0.0967813)
(0.0828992 -0.137973 -0.0912676)
(0.0793863 -0.11916 -0.0700194)
(0.0793439 -0.0760317 -0.0367352)
(0.0857256 -0.00810761 0.00230433)
(0.0986328 0.0775519 0.0376518)
(0.110056 0.1594 0.0584344)
(0.107866 0.208142 0.0606838)
(0.0925992 0.211605 0.0516898)
(0.0816987 0.178025 0.0395628)
(0.0987319 0.0903744 0.079233)
(0.106825 0.039581 0.0720321)
(0.105388 -0.00856978 0.0504518)
(0.10392 -0.0504146 0.0152021)
(0.100469 -0.0859831 -0.0266319)
(0.0929456 -0.11473 -0.0638885)
(0.0809196 -0.133913 -0.0866929)
(0.0659779 -0.139393 -0.0903462)
(0.0514645 -0.126952 -0.0754009)
(0.04149 -0.0934548 -0.0458505)
(0.0400296 -0.0383304 -0.00778133)
(0.0496469 0.0335384 0.0310295)
(0.0685466 0.107581 0.0622214)
(0.0878266 0.160061 0.0810374)
(0.0983099 0.17235 0.0904344)
(0.110073 0.145081 0.0953411)
(0.09826 0.0532982 0.12024)
(0.107967 0.0127133 0.117646)
(0.104423 -0.0229425 0.096095)
(0.099512 -0.0527149 0.056459)
(0.092359 -0.0788151 0.00677137)
(0.0806269 -0.102079 -0.0399722)
(0.0633353 -0.120314 -0.072044)
(0.042052 -0.129259 -0.0836716)
(0.0206243 -0.124408 -0.0750294)
(0.0038652 -0.10253 -0.0499718)
(-0.00363391 -0.0630417 -0.0141847)
(0.00152167 -0.00975553 0.0256538)
(0.0200676 0.0470636 0.0628102)
(0.0472874 0.0907164 0.0926873)
(0.0732517 0.105527 0.115764)
(0.100984 0.089779 0.135016)
(0.069614 0.0108698 0.144405)
(0.078278 -0.0139485 0.144321)
(0.0752173 -0.0338098 0.124434)
(0.0705511 -0.0497653 0.0852763)
(0.0643499 -0.0651849 0.0341826)
(0.0539897 -0.081985 -0.0161535)
(0.0375327 -0.0986049 -0.0535678)
(0.0158917 -0.11078 -0.0714858)
(-0.0071638 -0.113734 -0.0692897)
(-0.0265287 -0.104018 -0.0501131)
(-0.0372912 -0.0808029 -0.0188386)
(-0.0358576 -0.0468454 0.0189374)
(-0.0209864 -0.00922735 0.0576941)
(0.00445257 0.0211257 0.0930117)
(0.0325214 0.0338725 0.123326)
(0.0616192 0.0280269 0.149472)
(0.0225128 -0.0274858 0.1491)
(0.0282183 -0.0348697 0.150176)
(0.0263966 -0.0395291 0.13366)
(0.0244269 -0.0429531 0.0995956)
(0.0227472 -0.0486054 0.0536068)
(0.0184803 -0.0590395 0.00611948)
(0.00853134 -0.0734804 -0.0319669)
(-0.00759544 -0.0880063 -0.0538945)
(-0.0270789 -0.0977711 -0.0579752)
(-0.0451484 -0.0990644 -0.046089)
(-0.0569129 -0.0904919 -0.0218787)
(-0.0587997 -0.0734908 0.0103211)
(-0.0495816 -0.0524128 0.0460864)
(-0.031388 -0.033786 0.0813917)
(-0.0100225 -0.0236798 0.113172)
(0.0112582 -0.022944 0.139401)
(-0.0313559 -0.0524524 0.134105)
(-0.0285659 -0.0451992 0.136118)
(-0.0299253 -0.038659 0.124867)
(-0.0284032 -0.0332877 0.0996125)
(-0.0238126 -0.0319126 0.0640246)
(-0.0191959 -0.0372063 0.0252904)
(-0.0187138 -0.0491182 -0.00844748)
(-0.0248365 -0.0645269 -0.0312039)
(-0.0367034 -0.0789776 -0.040435)
(-0.05069 -0.0886389 -0.0364798)
(-0.0622454 -0.0913776 -0.0213791)
(-0.0677522 -0.0871474 0.00202683)
(-0.0657304 -0.0779825 0.0305445)
(-0.0575338 -0.0673771 0.0608412)
(-0.0471292 -0.0589303 0.0894158)
(-0.0355723 -0.0540402 0.111949)
(-0.080748 -0.0558792 0.102939)
(-0.0802016 -0.0400669 0.106016)
(-0.0826186 -0.0282563 0.10096)
(-0.0781321 -0.0192871 0.0864439)
(-0.0671947 -0.0150228 0.0643594)
(-0.0529254 -0.0176683 0.0387143)
(-0.0403585 -0.0274282 0.0141677)
(-0.0341767 -0.0420971 -0.0053624)
(-0.0361452 -0.0581523 -0.0173313)
(-0.0444396 -0.0721115 -0.0206214)
(-0.0550861 -0.0813646 -0.0153821)
(-0.0642669 -0.0846463 -0.00274122)
(-0.0699211 -0.0822856 0.0155218)
(-0.0724113 -0.0759541 0.0370555)
(-0.0742124 -0.0681172 0.0589276)
(-0.0712668 -0.0608631 0.0763352)
(-0.126119 0.00625366 0.0413446)
(-0.120523 0.0234458 0.0427709)
(-0.120919 0.0348788 0.0409077)
(-0.114277 0.0400863 0.0332826)
(-0.102027 0.037577 0.0215816)
(-0.0866471 0.0262875 0.00914393)
(-0.071567 0.00727882 -0.00116591)
(-0.0604259 -0.0160874 -0.00805501)
(-0.0559563 -0.0392791 -0.0118082)
(-0.0591228 -0.0579255 -0.0134406)
(-0.0685679 -0.0688184 -0.0136625)
(-0.0810097 -0.0704589 -0.0122384)
(-0.0928861 -0.0632897 -0.00815917)
(-0.102364 -0.0494872 -0.00053557)
(-0.110283 -0.0323993 0.0106471)
(-0.107365 -0.0161593 0.0235121)
(-0.140869 0.0375764 -0.0176561)
(-0.138745 0.0496649 -0.0129686)
(-0.141325 0.0575029 -0.00682751)
(-0.133509 0.05914 -0.00217499)
(-0.116966 0.0534653 0.000747475)
(-0.0939404 0.0403725 0.0030478)
(-0.068169 0.0216563 0.00564089)
(-0.0447572 0.00083296 0.00840756)
(-0.0289396 -0.0180967 0.00999)
(-0.024479 -0.032039 0.00848823)
(-0.0318916 -0.0392374 0.00291331)
(-0.047934 -0.0390195 -0.00588643)
(-0.0676445 -0.0317139 -0.0154328)
(-0.0874382 -0.0188717 -0.0226482)
(-0.106413 -0.00305887 -0.0248152)
(-0.111231 0.0117121 -0.0196722)
(-0.142618 0.0721849 -0.0726071)
(-0.143553 0.0760811 -0.0682002)
(-0.146417 0.0767669 -0.0586173)
(-0.136428 0.0713901 -0.0462298)
(-0.115748 0.0596801 -0.0322732)
(-0.0867037 0.0428715 -0.0170358)
(-0.0530547 0.0237747 -0.00103502)
(-0.0203266 0.00622635 0.0142965)
(0.0049526 -0.00634655 0.0260641)
(0.0165567 -0.0124176 0.0303116)
(0.0112775 -0.012356 0.024165)
(-0.00840303 -0.00692647 0.00831341)
(-0.0359696 0.00331613 -0.0131383)
(-0.0656355 0.0172262 -0.0345966)
(-0.0944985 0.0326755 -0.0506135)
(-0.10688 0.0455759 -0.0552338)
(-0.134099 0.105664 -0.116503)
(-0.137683 0.0998794 -0.115596)
(-0.139216 0.0913946 -0.10658)
(-0.126152 0.077018 -0.0911602)
(-0.101328 0.0574002 -0.0709509)
(-0.0675383 0.0351902 -0.0469402)
(-0.0286221 0.0145014 -0.0203398)
(0.0101134 4.13587e-05 0.00685489)
(0.0422048 -0.00467019 0.0309477)
(0.0601223 0.000554673 0.0458423)
(0.0574994 0.0122483 0.0449719)
(0.0347686 0.0265619 0.0268644)
(-0.000187002 0.0418926 -0.00319843)
(-0.0389726 0.0576005 -0.0368552)
(-0.0764079 0.0722878 -0.0658067)
(-0.0961334 0.082219 -0.0812944)
(-0.116353 0.133208 -0.142943)
(-0.121809 0.116606 -0.14755)
(-0.120948 0.0971618 -0.141633)
(-0.104766 0.0723131 -0.126907)
(-0.0767439 0.0438097 -0.10518)
(-0.040267 0.0155828 -0.0776881)
(0.000761762 -0.00715911 -0.0457222)
(0.0416905 -0.0188446 -0.0109695)
(0.0772151 -0.0152769 0.0234144)
(0.100348 0.00352594 0.0507458)
(0.102047 0.0311154 0.0604851)
(0.0784225 0.0584612 0.0460604)
(0.0375063 0.0812012 0.0120712)
(-0.00900363 0.0992061 -0.0303075)
(-0.0532433 0.112438 -0.0697919)
(-0.0796995 0.118106 -0.0958842)
(-0.0888251 0.151666 -0.146442)
(-0.0949018 0.123821 -0.157303)
(-0.0911992 0.0922741 -0.155866)
(-0.0729654 0.056237 -0.144683)
(-0.044113 0.0187439 -0.125742)
(-0.00843391 -0.0153008 -0.100126)
(0.0303844 -0.0400404 -0.0686279)
(0.0687341 -0.049517 -0.0322046)
(0.103177 -0.0388774 0.00717764)
(0.129207 -0.0068605 0.0442665)
(0.137691 0.0394468 0.0671786)
(0.11835 0.0847035 0.062624)
(0.0751752 0.118066 0.0307159)
(0.0234262 0.139147 -0.015542)
(-0.0252399 0.150034 -0.0617947)
(-0.0570718 0.150147 -0.0965998)
(-0.0512448 0.159532 -0.124224)
(-0.0563326 0.121504 -0.140908)
(-0.050188 0.0783284 -0.145107)
(-0.0319534 0.0319666 -0.140343)
(-0.00573424 -0.0133426 -0.12844)
(0.0247173 -0.0521601 -0.10966)
(0.0563855 -0.0785432 -0.0837301)
(0.086991 -0.0867063 -0.0507308)
(0.115092 -0.0716887 -0.011809)
(0.139378 -0.0306557 0.0295776)
(0.15464 0.0322587 0.0636861)
(0.147192 0.0991284 0.0735595)
(0.110196 0.148196 0.0508668)
(0.0579334 0.174218 0.00695424)
(0.00783036 0.182261 -0.0410227)
(-0.0269777 0.175459 -0.0809164)
(-0.0056501 0.157042 -0.0782513)