/*--------------------------------*- C++ -*----------------------------------*\
| =========                 |                                                 |
| \\      /  F ield         | OpenFOAM: The Open Source CFD Toolbox           |
|  \\    /   O peration     | Version:  3.0.0                                 |
|   \\  /    A nd           | Web:      www.OpenFOAM.org                      |
|    \\/     M anipulation  |                                                 |
\*---------------------------------------------------------------------------*/
FoamFile
{
    version     2.0;
    format      ascii;
    class       surfaceScalarField;
    location    "7";
    object      phi;
}
// * * * * * * * * * * * * * * * * * * * * * * * * * * * * * * * * * * * * * //

dimensions      [0 3 -1 0 0 0 0];

internalField   nonuniform List<scalar> 
11520
(
-0.000343518
-0.000737204
4.5359e-05
-0.000332598
-0.000814147
0.000206816
-0.000281332
-0.000845136
0.000365941
-0.000192552
-0.000828766
0.000494757
-8.10379e-05
-0.000767346
0.000566007
2.7775e-05
-0.000662339
0.000562967
0.000105532
-0.000514475
0.000486885
0.000128541
-0.000325635
0.000359641
9.25789e-05
-0.000107109
0.000212617
1.535e-05
0.000108765
7.7069e-05
-7.31561e-05
0.000264824
-2.99922e-05
-0.000149721
0.000303229
-0.000108057
-0.000208273
0.000203448
-0.000161473
-0.00025348
-5.01492e-06
-0.000186356
-0.00029217
-0.000252496
-0.000171254
-0.000465984
-0.000113768
-0.000293544
-0.000729195
9.88657e-06
-0.000302571
-0.000795199
0.000165753
-0.00027044
-0.000817006
0.000321556
-0.00019911
-0.000795334
0.000455779
-0.000100468
-0.000733051
0.000544261
4.49425e-06
-0.000632609
0.000568789
9.13466e-05
-0.000495108
0.000523859
0.000140652
-0.00032188
0.000419588
0.000144197
-0.000121293
0.000277161
0.000105865
7.89006e-05
0.000123648
3.9961e-05
0.000223386
-1.53533e-05
-3.34528e-05
0.000250905
-0.000123327
-9.9662e-05
0.00014086
-0.000194051
-0.000157876
-6.82681e-05
-0.000222683
-0.000210716
-0.000303853
-0.000203012
-0.000498769
-0.000138816
-0.000286702
-0.000666465
-3.71331e-05
-0.000305504
-0.000723068
0.000118933
-0.000277335
-0.000739631
0.000279486
-0.000205673
-0.000717205
0.000424033
-0.000103042
-0.00065909
0.000528835
1.02767e-05
-0.000568399
0.000574693
0.000112037
-0.000446752
0.000552936
0.000184591
-0.000294833
0.00046855
0.000219366
-0.000117773
0.000335946
0.00021409
6.39676e-05
0.000177176
0.000171386
0.00020205
1.81715e-05
0.000101181
0.000232663
-0.000116367
1.75975e-05
0.000127325
-0.000209414
-7.06289e-05
-7.36055e-05
-0.000251862
-0.000156993
-0.000293682
-0.000238738
-0.000470087
-0.000174752
-0.00028987
-0.000557095
-9.31082e-05
-0.000312833
-0.000609221
5.47314e-05
-0.000282968
-0.000625056
0.000212235
-0.00020624
-0.000606014
0.000360447
-9.62648e-05
-0.000555621
0.000476557
2.72315e-05
-0.000477323
0.000541242
0.000143364
-0.000373098
0.00054387
0.000235858
-0.000243299
0.000484916
0.000295662
-9.07557e-05
0.000373687
0.0003172
7.13975e-05
0.000225709
0.000295039
0.000205192
6.21745e-05
0.000228049
0.000248008
-9.02248e-05
0.000126344
0.000160331
-0.000205117
5.45328e-06
-2.3452e-05
-0.000265627
-0.000116403
-0.000226145
-0.000265625
-0.000387472
-0.000210394
-0.000291727
-0.000412754
-0.000153415
-0.000314954
-0.000465062
-2.65574e-05
-0.000280485
-0.000484156
0.000115719
-0.000197301
-0.000471736
0.000256867
-8.01519e-05
-0.00043167
0.000376322
5.19104e-05
-0.000367351
0.000455601
0.000179389
-0.000280758
0.000482845
0.000286993
-0.000172206
0.000454745
0.000365079
-4.29587e-05
0.000375305
0.000406044
9.96984e-05
0.000253489
0.000399229
0.000229258
0.000102847
0.00033506
0.000288758
-5.34978e-05
0.000218
0.000227824
-0.00018362
6.82778e-05
6.88165e-05
-0.000261627
-8.42865e-05
-0.00011476
-0.000278864
-0.00026456
-0.000240254
-0.000289256
-0.000250248
-0.000214134
-0.00030898
-0.000306869
-0.000120218
-0.000266993
-0.000332269
-6.5351e-06
-0.000176007
-0.000329349
0.000116514
-5.1732e-05
-0.000301353
0.000229876
8.72596e-05
-0.000251561
0.000317641
0.000222883
-0.000181756
0.000367403
0.000340519
-9.22714e-05
0.000372711
0.000429884
1.64401e-05
0.000332546
0.000481902
0.000141374
0.000249277
0.000483368
0.000266579
0.00012789
0.000418852
0.000343901
-1.61542e-05
0.000288728
0.000314825
-0.000150855
0.000115638
0.000186399
-0.00024219
-6.06216e-05
2.29693e-05
-0.000277766
-0.000118722
-0.000261891
-0.00028382
-9.01479e-05
-0.000270092
-0.000295943
-0.000155427
-0.000217313
-0.000243795
-0.000190726
-0.000140411
-0.000142501
-0.00019892
-4.67843e-05
-9.76571e-06
-0.000183546
5.17161e-05
0.000136092
-0.000147425
0.00014097
0.000277913
-9.19932e-05
0.00020881
0.000401463
-1.77746e-05
0.000246462
0.000495794
7.49003e-05
0.000248534
0.000550435
0.000186108
0.00021134
0.000551318
0.000308352
0.000131228
0.000479558
0.00040252
1.4083e-05
0.000336388
0.000407945
-0.000113825
0.000145017
0.000312729
-0.000211973
-4.7393e-05
0.000168508
-0.000264392
3.0737e-05
-0.000274193
-0.000280357
4.48421e-05
-0.000314395
-0.00028096
-3.42161e-05
-0.000303194
-0.000215095
-8.27999e-05
-0.000266618
-0.000100622
-0.000103438
-0.000206122
4.30378e-05
-9.96331e-05
-0.000128758
0.000197141
-7.41417e-05
-4.51173e-05
0.000344591
-2.84398e-05
3.39608e-05
0.000471057
3.64542e-05
9.83617e-05
0.000564716
0.000119852
0.00013968
0.000613569
0.000224112
0.000149385
0.000603019
0.000348008
0.000115659
0.000516512
0.000459806
3.27345e-05
0.000357399
0.000498057
-7.83067e-05
0.000151947
0.000433822
-0.000176872
-4.90759e-05
0.000304414
-0.000242682
0.00016396
-0.000276024
-0.000286049
0.00013197
-0.000339066
-0.000271113
3.32135e-05
-0.000359324
-0.000188736
-3.17397e-05
-0.000356109
-5.8863e-05
-6.4531e-05
-0.000326368
9.76024e-05
-6.90771e-05
-0.000272064
0.000261024
-4.87392e-05
-0.000199814
0.000413595
-5.71005e-06
-0.000118951
0.00054046
5.79964e-05
-3.87259e-05
0.000628227
0.000141323
3.19416e-05
0.000663137
0.000248249
8.13859e-05
0.000630832
0.000381584
9.03008e-05
0.000521787
0.000513163
4.23459e-05
0.000344014
0.000579282
-4.87934e-05
0.000128801
0.000538482
-0.000143122
-7.31465e-05
0.000415135
-0.000216993
0.000262597
-0.000267052
-0.000306387
0.000151635
-0.000336493
-0.000272702
2.87413e-05
-0.000368788
-0.000173844
-5.34736e-05
-0.00038319
-3.00276e-05
-9.57119e-05
-0.000374529
0.000137626
-0.000102988
-0.000341136
0.000308641
-8.02524e-05
-0.000285695
0.000464396
-3.11417e-05
-0.000214101
0.000588435
4.09308e-05
-0.000132696
0.000665125
0.000134575
-4.83656e-05
0.000678826
0.000255441
2.60968e-05
0.000617275
0.000407164
6.49477e-05
0.000480447
0.000560147
4.36561e-05
0.000285057
0.000646714
-2.95657e-05
6.68498e-05
0.000616966
-0.000116851
-0.000126383
0.000486925
-0.000192224
0.000311653
-0.000247461
-0.000337074
9.38421e-05
-0.000302304
-0.000284868
-5.14443e-05
-0.000325782
-0.000174919
-0.000146893
-0.000339441
-2.4779e-05
-0.000193065
-0.000338695
0.000146624
-0.000196417
-0.000320652
0.000319245
-0.000163671
-0.00028484
0.000473191
-0.000100315
-0.000232703
0.000589393
-1.12563e-05
-0.000165341
0.000648952
0.0001028
-8.54575e-05
0.000635136
0.000248271
-5.7459e-06
0.000541223
0.000425466
4.42645e-05
0.000378305
0.000597834
3.61106e-05
0.000173388
0.000693043
-2.42862e-05
-3.5076e-05
0.000657803
-0.000102207
-0.000205769
0.00050634
-0.000171055
0.000301037
-0.00021897
-0.00036121
-3.36152e-05
-0.000239835
-0.000296872
-0.000190442
-0.000241289
-0.000186631
-0.000289828
-0.000240556
-4.25301e-05
-0.0003329
-0.0002357
0.00012092
-0.000326971
-0.000225312
0.000285288
-0.0002795
-0.00020782
0.000429204
-0.000197015
-0.000180543
0.000529811
-8.48249e-05
-0.000138816
0.000564907
5.68973e-05
-7.99961e-05
0.000519036
0.000233656
-1.518e-05
0.00039495
0.000437024
2.62335e-05
0.00021655
0.0006195
1.82338e-05
1.94984e-05
0.00070549
-3.329e-05
-0.000159236
0.000645854
-9.8498e-05
-0.000290568
0.000461658
-0.000152988
0.000227331
-0.000184896
-0.000362741
-0.000203446
-0.00016235
-0.000297749
-0.000355644
-0.000137395
-0.000199009
-0.000448139
-0.000115323
-7.22654e-05
-0.000482079
-9.80329e-05
7.2559e-05
-0.000464264
-8.74929e-05
0.0002188
-0.000401221
-8.33587e-05
0.000343524
-0.00029889
-8.08069e-05
0.000420192
-0.000161772
-7.05199e-05
0.000424676
1.02358e-05
-4.51479e-05
0.000346808
0.000217904
-1.16144e-05
0.000201978
0.000438925
6.89669e-06
2.64991e-05
0.000613763
-8.79192e-06
-0.000140532
0.000669236
-5.29356e-05
-0.000270531
0.000569822
-0.00010243
-0.000350806
0.000350628
-0.00013781
9.79816e-05
-0.000150263
-0.000342191
-0.000379936
-8.72366e-05
-0.000287145
-0.000514529
-3.50168e-05
-0.000206628
-0.000592545
1.09491e-05
-0.000101871
-0.000613901
4.5252e-05
2.00562e-05
-0.000583773
6.22668e-05
0.000143255
-0.000506831
5.93895e-05
0.000243625
-0.000387256
4.12407e-05
0.000292743
-0.000228071
1.91826e-05
0.000268151
-2.98652e-05
4.07003e-06
0.000167625
0.000199787
-3.64021e-06
1.81882e-05
0.000422932
-1.60265e-05
-0.000136387
0.000570594
-4.35188e-05
-0.000259299
0.000578716
-8.16673e-05
-0.000335642
0.000434205
-0.000114709
-0.000369028
0.000188955
-0.000129101
-6.60214e-05
-0.000121157
-0.000316261
-0.000536135
-2.63054e-05
-0.0002746
-0.000648349
5.18872e-05
-0.000210495
-0.00070929
0.000123876
-0.000123591
-0.000717536
0.00017902
-2.04916e-05
-0.000675796
0.000207128
8.26748e-05
-0.000586841
0.000202545
0.000161371
-0.000453416
0.000168374
0.000188629
-0.000278078
0.000116309
0.000146672
-6.40974e-05
6.01947e-05
4.08139e-05
0.000172284
7.94905e-06
-9.70424e-05
0.000381159
-4.00554e-05
-0.000223377
0.000489305
-8.45158e-05
-0.000307793
0.000446287
-0.000120386
-0.000346576
0.000263875
-0.000138436
-0.000353117
8.06249e-06
-0.000131918
-0.000234883
-0.000103025
-0.000291407
1.00018e-05
-0.000257207
0.000111451
-0.000201255
0.000205879
-0.000123964
0.000280662
-3.24711e-05
0.000322945
5.7096e-05
0.000324033
0.000121345
0.000283989
0.000136661
0.000212664
9.10069e-05
0.000124774
-5.02201e-06
3.4124e-05
-0.000120541
-4.89554e-05
-0.000220437
-0.000115908
-0.000285758
-0.000157991
-0.000317036
-0.000168227
-0.000324086
-0.000145128
-9.65083e-05
-0.000542182
-0.00070753
0.000145516
-0.000553325
-0.00073126
0.000241214
-0.000510937
-0.000725266
0.000332086
-0.0004154
-0.000684224
0.00039565
-0.000279456
-0.000612101
0.000417773
-0.000130084
-0.000514075
0.000396309
-4.3841e-06
-0.000394747
0.00034198
6.51278e-05
-0.000256124
0.00027222
6.23081e-05
-9.93267e-05
0.000203268
1.47221e-06
5.78541e-05
0.000141685
-8.55189e-05
0.000170232
8.74579e-05
-0.000172493
0.000186165
3.83793e-05
-0.000251564
8.74332e-05
-3.04554e-06
-0.000326109
-9.46493e-05
-2.68587e-05
-0.000401718
-0.000299133
-2.08106e-05
-0.000453959
1.26111e-05
-0.000478867
-0.000664626
4.86253e-05
-0.000507225
-0.00068101
0.000143861
-0.000483039
-0.000667059
0.000239163
-0.000407048
-0.000622258
0.000317822
-0.000289238
-0.000550947
0.000365297
-0.000151173
-0.000457863
0.000374512
-2.27979e-05
-0.000347099
0.000347837
6.6655e-05
-0.000220148
0.000294159
0.000100244
-7.9584e-05
0.000223829
7.82551e-05
5.91047e-05
0.000144386
1.6076e-05
0.000153605
6.34534e-05
-6.49747e-05
0.000153298
-9.4081e-06
-0.000149809
4.38329e-05
-6.56161e-05
-0.000235087
-0.000137127
-9.49278e-05
-0.00032154
-0.00032498
-9.07113e-05
-0.00046056
-5.65298e-05
-0.000445375
-0.000569186
-4.17811e-05
-0.000481655
-0.000579268
5.34717e-05
-0.000462581
-0.000560728
0.000154081
-0.000390079
-0.00051591
0.000245183
-0.000274209
-0.000449536
0.000311553
-0.000134583
-0.000366112
0.000343316
2.38029e-06
-0.000269274
0.000338148
0.000112446
-0.000160988
0.000299325
0.000176981
-4.19754e-05
0.000233802
0.000188811
7.65184e-05
0.000147932
0.000149755
0.000159203
5.16286e-05
7.1433e-05
0.000155457
-4.02039e-05
-2.97407e-05
4.73165e-05
-0.000111724
-0.000142148
-0.000124782
-0.000151799
-0.000255635
-0.000294948
-0.000155283
-0.000412128
-0.000124237
-0.000410579
-0.000434951
-0.000129301
-0.000449544
-0.000441437
-4.41345e-05
-0.000430006
-0.000420761
5.27302e-05
-0.000355664
-0.000378271
0.000148467
-0.000237105
-0.000319204
0.000227666
-9.25384e-05
-0.000247984
0.000278548
5.47965e-05
-0.000167937
0.000295199
0.00018201
-8.03498e-05
0.000277064
0.000271747
1.49236e-05
0.000227051
0.000311689
0.00011252
0.000149767
0.000292843
0.00018705
5.31732e-05
0.000215742
0.000189472
-4.71395e-05
9.51918e-05
9.36891e-05
-0.000130939
-4.77168e-05
-6.3484e-05
-0.000184017
-0.000190741
-0.000216401
-0.000201149
-0.000318787
-0.000181939
-0.000367912
-0.000277469
-0.000208328
-0.000406278
-0.000283122
-0.000146507
-0.00038323
-0.000262746
-6.53433e-05
-0.000304751
-0.000224729
2.48459e-05
-0.000182206
-0.00017471
0.000109284
-3.26429e-05
-0.000117141
0.000175195
0.000123123
-5.48345e-05
0.000213976
0.000264291
1.16048e-05
0.000221623
0.00037356
8.33662e-05
0.000197593
0.000435406
0.000160696
0.000143467
0.000433141
0.000229106
6.30572e-05
0.000356901
0.000244334
-3.21196e-05
0.000218138
0.000170009
-0.000121177
4.64722e-05
3.32532e-05
-0.000186698
-0.000124381
-0.000102592
-0.000221819
-0.000194323
-0.000223757
-0.000319637
-0.000115085
-0.000272566
-0.000354169
-0.000123107
-0.0002457
-0.000324956
-0.000106545
-0.000191949
-0.000240164
-7.50514e-05
-0.000117956
-0.000112552
-3.56161e-05
-3.68306e-05
4.18494e-05
7.59591e-06
3.85028e-05
0.000204327
5.24426e-05
9.76476e-05
0.000355778
9.90724e-05
0.000133792
0.000478732
0.000149736
0.000143222
0.000555653
0.000209022
0.000124029
0.000564632
0.000273559
7.44582e-05
0.000487693
0.000306615
-1.49567e-06
0.000331795
0.000261384
-8.63323e-05
0.000134074
0.000150029
-0.000161246
-6.04805e-05
3.05529e-05
-0.000216356
-5.48545e-05
-0.000246155
-0.000271813
3.28912e-05
-0.000315717
-0.000299344
1.79018e-05
-0.000330791
-0.000260299
2.65466e-05
-0.000312548
-0.000166594
4.81664e-05
-0.000263707
-3.19648e-05
7.5595e-05
-0.000194125
0.000127977
0.000104633
-0.000116008
0.000296029
0.000133835
-4.06346e-05
0.00045436
0.000164084
2.31183e-05
0.00058541
0.000198319
6.89014e-05
0.000669945
0.000244476
9.13519e-05
0.000682521
0.000309244
8.29663e-05
0.000600382
0.00036472
3.8117e-05
0.000427647
0.000354361
-3.40672e-05
0.000207558
0.000271949
-0.000113804
-5.07578e-06
0.000166487
-0.000187693
8.26138e-05
-0.000247275
-0.000232952
0.00014676
-0.000331428
-0.000249476
0.000118438
-0.000387207
-0.000197052
0.000113892
-0.000406386
-9.08143e-05
0.000122935
-0.000387128
5.35363e-05
0.000137865
-0.000335379
0.000220125
0.000154417
-0.00026149
0.000392742
0.000171788
-0.000176609
0.000554457
0.000191293
-9.05624e-05
0.000687552
0.00021626
-1.13549e-05
0.000771122
0.000257347
5.29437e-05
0.000777513
0.000329399
8.91134e-05
0.000682833
0.000411563
8.05726e-05
0.000492868
0.00043926
2.67588e-05
0.000254879
0.00038584
-5.27746e-05
2.96639e-05
0.000290087
-0.000141067
0.000199191
-0.000226823
-0.000213992
0.000207528
-0.000313969
-0.000215013
0.000158738
-0.000398603
-0.000145646
0.000136785
-0.00044837
-2.39609e-05
0.000132361
-0.000457478
0.0001321
0.000136919
-0.000427179
0.000305878
0.000145523
-0.000364698
0.000481339
0.000157179
-0.000279802
0.000642166
0.000173313
-0.000181573
0.000770253
0.000197853
-7.77391e-05
0.000842857
0.000244501
2.1628e-05
0.000831517
0.000333359
9.76807e-05
0.000716613
0.000446049
0.000122764
0.00050934
0.000509767
8.79722e-05
0.000260428
0.000480302
1.1328e-05
3.201e-05
0.000385871
-8.43577e-05
0.00027759
-0.000185313
-0.000225299
0.000199533
-0.000261199
-0.000207151
0.00012581
-0.000354008
-0.000119762
8.578e-05
-0.000419573
1.74161e-05
7.07489e-05
-0.000450096
0.000184775
7.06052e-05
-0.000442181
0.000364495
7.856e-05
-0.000398453
0.000540062
9.25382e-05
-0.000325027
0.000694967
0.000113653
-0.000227941
0.000809957
0.000147218
-0.00011272
0.000860307
0.000210817
9.43153e-06
0.000819861
0.000326013
0.000112739
0.00067875
0.00046991
0.000160906
0.000457495
0.000561528
0.000139929
0.000207891
0.000544508
6.85465e-05
-1.18922e-05
0.00043997
-2.65401e-05
0.000303365
-0.000127129
-0.000266982
0.000116372
-0.000177458
-0.000229807
2.05057e-05
-0.000257654
-0.000128867
-3.27703e-05
-0.000321831
1.8208e-05
-5.19659e-05
-0.000363055
0.000192286
-4.90219e-05
-0.000375104
0.000374428
-3.31514e-05
-0.000355269
0.000546477
-8.51907e-06
-0.000303695
0.000689758
2.58791e-05
-0.000220849
0.000782476
7.76563e-05
-0.000108613
0.000799163
0.000168422
1.99624e-05
0.000721134
0.000315391
0.000132916
0.00055359
0.000484613
0.000188951
0.000327802
0.00058853
0.0001745
9.32406e-05
0.000566887
0.000109976
-0.000101817
0.000439386
2.45859e-05
0.000268921
-6.10457e-05
-0.000322406
-3.14309e-05
-7.66819e-05
-0.000272985
-0.000137807
-0.000132397
-0.000169162
-0.000195017
-0.000182133
-2.32804e-05
-0.000210874
-0.000222673
0.000148661
-0.000198125
-0.00024815
0.00032711
-0.000167592
-0.000251829
0.000490476
-0.000125257
-0.000227172
0.000615701
-7.07343e-05
-0.000167428
0.000677101
7.11974e-06
-7.08596e-05
0.000651732
0.000131004
4.76063e-05
0.00053522
0.000307107
0.000151028
0.00035074
0.000486529
0.000200799
0.000138144
0.000580229
0.000187607
-6.06354e-05
0.000534561
0.000132607
-0.000214067
0.000375226
6.46042e-05
0.000175897
1.11671e-06
-0.000369839
-0.000214775
1.93281e-05
-0.000320411
-0.000316003
-8.62632e-06
-0.000226366
-0.000367301
-3.70845e-05
-9.34774e-05
-0.000374164
-6.76313e-05
6.63732e-05
-0.000348235
-9.72334e-05
0.000233619
-0.000300098
-0.000118098
0.000382554
-0.000236652
-0.000118346
0.000483766
-0.000157338
-8.51288e-05
0.000508699
-4.90926e-05
-1.38682e-05
0.000442287
0.000106333
7.94688e-05
0.000298393
0.000298733
0.000159165
0.000116311
0.000465805
0.000194014
-6.21505e-05
0.000525501
0.000180254
-0.000208787
0.000441303
0.000137465
-0.000311467
0.000251177
8.89186e-05
3.74918e-05
4.81812e-05
-0.000400312
-0.000396544
9.104e-05
-0.000361923
-0.000480124
9.07157e-05
-0.000285852
-0.000519075
8.66523e-05
-0.000172726
-0.000514552
7.25133e-05
-3.10085e-05
-0.000475274
4.75883e-05
0.000119824
-0.000410171
1.86296e-05
0.00025043
-0.000325782
-2.34344e-07
0.000326557
-0.000221514
7.23158e-06
0.000320128
-8.56536e-05
4.70599e-05
0.000226968
9.08125e-05
0.00010504
7.66472e-05
0.000280471
0.000152556
-8.34049e-05
0.000413909
0.00016843
-0.000216655
0.000424129
0.000152955
-0.000310672
0.000298593
0.000122017
-0.000369761
8.82473e-05
9.29178e-05
-0.000122309
7.26868e-05
-0.000419289
-0.000547745
0.000131003
-0.000395902
-0.000609972
0.000158348
-0.000337852
-0.000633738
0.00018049
-0.000243165
-0.000617133
0.000186914
-0.00011878
-0.000565717
0.000173186
1.59133e-05
-0.000486156
0.000143836
0.000129843
-0.000384169
0.000112831
0.000187661
-0.000259824
9.67996e-05
0.000165492
-0.00010594
0.00010265
6.79718e-05
7.56716e-05
0.00012061
-6.90458e-05
0.000245368
0.000132065
-0.000199778
0.000334182
0.000125944
-0.000295692
0.000293759
0.000105898
-0.000355275
0.000135482
8.42581e-05
-0.000391174
-8.07228e-05
7.29504e-05
-0.000275708
7.23831e-05
-0.000417028
0.000140675
-0.000402315
0.000194769
-0.000356036
0.000242597
-0.000275938
0.000271224
-0.000167491
0.000273172
-4.82541e-05
0.00025
5.241e-05
0.000213107
0.000101634
0.00017765
8.0057e-05
0.000151906
-4.08138e-06
0.000132299
-0.000117622
0.000109262
-0.000223866
7.88897e-05
-0.000303088
4.82e-05
-0.000355752
2.9617e-05
-0.000389928
3.26224e-05
5.18822e-05
-0.000648115
-0.000572892
0.000229477
-0.000667401
-0.00053331
0.00024937
-0.00063019
-0.00047396
0.000267185
-0.000537561
-0.000397416
0.000262241
-0.000401682
-0.000314428
0.000231977
-0.0002488
-0.000235798
0.00018802
-0.0001138
-0.000167744
0.000149129
-2.89284e-05
-0.000106851
0.000131096
-8.96115e-06
-4.19905e-05
0.000136539
-4.60034e-05
2.82308e-05
0.000153156
-0.000116088
7.74572e-05
0.00016354
-0.000197412
6.48026e-05
0.000158228
-0.000281628
-2.68698e-05
0.000141469
-0.000369818
-0.00017125
0.000126176
-0.000463095
-0.000316362
0.000125316
-0.000402947
0.000137874
-0.000584796
-0.000508713
8.47377e-05
-0.000625139
-0.000465704
0.000116598
-0.000610443
-0.000400562
0.00015107
-0.000540857
-0.000321168
0.000171987
-0.000425227
-0.000238028
0.000173267
-0.000284522
-0.000160745
0.000158753
-0.000148464
-9.54106e-05
0.000139446
-4.58174e-05
-4.05142e-05
0.000125175
6.31909e-06
1.15773e-05
0.000118125
6.17748e-06
6.12015e-05
0.000111557
-3.58934e-05
8.63076e-05
9.66739e-05
-0.000104567
5.22911e-05
7.1777e-05
-0.000188939
-5.1736e-05
4.36226e-05
-0.000283743
-0.000193871
2.24969e-05
-0.000385895
-0.000321636
1.67159e-05
-0.000388623
2.77557e-05
-0.000529777
-0.000400553
-4.27483e-05
-0.000580566
-0.000354418
-7.02593e-06
-0.000576536
-0.000286119
3.56085e-05
-0.000517553
-0.000207215
7.22459e-05
-0.000411093
-0.000128267
9.53325e-05
-0.000274732
-5.79891e-05
0.0001042
-0.0001336
-1.82813e-06
0.000103433
-1.3209e-05
4.07781e-05
9.76418e-05
6.85128e-05
7.60726e-05
8.75853e-05
0.000101677
0.000106115
6.98544e-05
8.42041e-05
0.000114503
4.09057e-05
2.20936e-05
7.07084e-05
3.4893e-06
-7.27103e-05
-3.4894e-05
-3.3762e-05
-0.000187458
-0.0001687
-6.22232e-05
-0.000309171
-0.000279154
-7.60527e-05
-0.000329079
-7.03678e-05
-0.000465747
-0.000264687
-0.000153842
-0.000520877
-0.000216193
-0.00012723
-0.000520761
-0.000146394
-8.71096e-05
-0.000465889
-7.00985e-05
-4.35222e-05
-0.000363011
1.90731e-06
-5.38663e-06
-0.000227177
6.15842e-05
2.31405e-05
-7.97909e-05
0.000104347
4.16376e-05
5.6491e-05
0.000131127
5.04337e-05
0.000162749
0.00014799
4.8876e-05
0.00022377
0.000160004
3.48556e-05
0.000226725
0.000158042
6.67923e-06
0.000167517
0.000114933
-3.21553e-05
5.75837e-05
1.7427e-05
-7.33268e-05
-8.13592e-05
-0.000103574
-0.0001102
-0.000225785
-0.000197943
-0.000137933
-0.000234595
-0.000147786
-0.000392375
-0.00011738
-0.000242458
-0.000447689
-6.806e-05
-0.000239326
-0.000446531
8.85901e-07
-0.000213782
-0.000391008
7.22447e-05
-0.000173021
-0.000287858
0.000134787
-0.000126744
-0.000150131
0.000181146
-8.20943e-05
3.70553e-06
0.000208031
-4.35446e-05
0.000153274
0.000217324
-1.41431e-05
0.000279258
0.000215968
3.63238e-06
0.000362599
0.000212438
7.69151e-06
0.000382005
0.000205605
-3.91236e-06
0.000323307
0.000172573
-3.10614e-05
0.000196286
9.26708e-05
-6.93997e-05
3.14343e-05
-1.09237e-05
-0.000114497
-0.000136387
-9.04873e-05
-0.000161454
-0.000117918
-0.000197622
-0.000315316
2.54815e-05
-0.000302245
-0.000367103
7.26894e-05
-0.000334663
-0.000360392
0.000136915
-0.000334689
-0.000299647
0.000199983
-0.000306439
-0.000192322
0.000250224
-0.000259593
-5.01783e-05
0.000281006
-0.000203501
0.000110585
0.000290613
-0.000145697
0.0002711
0.000282447
-9.18461e-05
0.000411855
0.000264561
-4.61264e-05
0.000511195
0.00024908
-1.19523e-05
0.000542226
0.000243846
5.18589e-06
0.000481393
0.000230534
1.37643e-06
0.000335642
0.000177926
-2.58363e-05
0.000144244
9.65928e-05
-7.73648e-05
-4.65787e-05
3.01936e-05
-0.000146214
7.56776e-06
-0.000216086
-0.000241834
0.000149082
-0.000327925
-0.000286425
0.000188986
-0.000402496
-0.000269523
0.000243071
-0.000435606
-0.000198824
0.000293422
-0.000427844
-8.32207e-05
0.00032828
-0.000387784
6.5907e-05
0.000341869
-0.000325999
0.000233742
0.000334258
-0.000252116
0.000402521
0.000310583
-0.000173797
0.00055263
0.000280122
-9.67681e-05
0.000660931
0.000258206
-2.60753e-05
0.000696541
0.000261453
2.97486e-05
0.000629216
0.000277061
5.89157e-05
0.000463828
0.000261639
4.76073e-05
0.000246897
0.000207199
-7.47903e-06
3.50095e-05
0.000151483
-9.70959e-05
0.000127807
-0.000202064
-0.000180447
0.000238444
-0.000314294
-0.000213411
0.000264002
-0.000429258
-0.000181534
0.000302157
-0.000497349
-9.63016e-05
0.000336002
-0.000514941
3.10056e-05
0.000353707
-0.000488114
0.000188503
0.00035034
-0.000427458
0.000362114
0.000327709
-0.00034367
0.000534948
0.000292575
-0.000245389
0.000687497
0.000255329
-0.000139111
0.000795614
0.0002344
-3.13662e-05
0.00082624
0.00025434
6.55997e-05
0.000746987
0.000306863
0.000130024
0.00056205
0.000334924
0.000138411
0.000323477
0.000309261
8.37372e-05
9.60171e-05
0.000260052
-2.21757e-05
0.000226957
-0.000156004
-0.000143293
0.000278148
-0.000257717
-0.000159386
0.000282387
-0.000400895
-0.000108068
0.000301065
-0.000498596
-4.86534e-06
0.000317959
-0.000542638
0.000135841
0.000320555
-0.000534733
0.00030105
0.000303992
-0.000483559
0.000477053
0.000271221
-0.000399318
0.000647853
0.000230305
-0.000290104
0.000794162
0.000193076
-0.000161795
0.000890698
0.000181629
-2.21369e-05
0.000904375
0.000226753
0.000111591
0.00080629
0.000320413
0.000207299
0.000604008
0.000391893
0.000233285
0.000352112
0.000391332
0.000181152
0.000118597
0.000341256
6.7953e-05
0.000288182
-8.06039e-05
-0.000144835
0.000254638
-0.000160386
-0.000139805
0.000234191
-0.000310842
-6.71347e-05
0.000234582
-0.00042576
5.47452e-05
0.000239296
-0.000493313
0.000208441
0.000233891
-0.000509213
0.000379258
0.000212042
-0.00047732
0.000553386
0.000176642
-0.000404576
0.000715343
0.000136674
-0.000296267
0.000845464
0.000106534
-0.000156298
0.000917462
0.000113423
5.63882e-06
0.000900866
0.000190188
0.000165899
0.000777308
0.00032288
0.000281998
0.000562349
0.000428227
0.000318554
0.000310178
0.000441828
0.000270221
8.45106e-05
0.000380388
0.000159995
0.000296902
1.61941e-05
-0.000191194
0.000161956
-3.32723e-05
-0.000165083
0.000121025
-0.000170599
-7.48066e-05
0.000109883
-0.000287409
6.15474e-05
0.000111288
-0.000371401
0.000225108
0.000108223
-0.000412996
0.000398943
9.16151e-05
-0.000408677
0.000567697
6.27314e-05
-0.000358539
0.000714726
3.11501e-05
-0.000262354
0.000818747
1.53415e-05
-0.000121441
0.000852995
4.7886e-05
5.12512e-05
0.000795249
0.00015834
0.00022251
0.000643811
0.000319445
0.000343823
0.000425502
0.000439075
0.000381962
0.000190345
0.000448523
0.000338438
-1.04436e-05
0.000364947
0.000240816
0.000246331
0.000118772
-0.00026906
1.03134e-05
0.000101043
-0.000228982
-3.85619e-05
-1.28883e-05
-0.000131694
-5.13416e-05
-0.000118195
9.37849e-06
-4.40879e-05
-0.00020837
0.000176083
-3.52123e-05
-0.000271419
0.000349368
-3.69806e-05
-0.000296518
0.000509888
-5.05762e-05
-0.000274385
0.000637015
-6.60877e-05
-0.000197316
0.000706605
-6.04719e-05
-6.46361e-05
0.000694878
1.72983e-06
0.00010549
0.000593873
0.000139463
0.000270909
0.000422288
0.000308989
0.00038284
0.000216536
0.000416622
0.000415811
1.62514e-05
0.000402511
0.000378903
-0.00014219
0.000288092
0.000299901
0.000142049
0.000206187
-0.000352986
-0.000170908
0.000211919
-0.00031236
-0.000212879
0.000125065
-0.000221618
-0.00021777
3.86027e-05
-8.81811e-05
-0.000198412
-4.67445e-05
7.3084e-05
-0.000172501
-0.000121209
0.000240841
-0.000153651
-0.000169184
0.000390175
-0.000145763
-0.000172493
0.000494279
-0.000139097
-0.000116223
0.000526884
-0.000107754
8.08229e-07
0.000472122
-1.89291e-05
0.00015489
0.000340498
0.000130345
0.000299907
0.000168113
0.000282848
0.000392541
-5.76307e-06
0.00035346
0.000417292
-0.000155023
0.000301489
0.000387746
-0.000267815
0.000160358
0.000329444
2.54191e-06
0.000261491
-0.000425289
-0.000343495
0.00027646
-0.000396289
-0.000367612
0.000216449
-0.000322304
-0.000359266
0.000154163
-0.000205309
-0.000325749
8.28549e-05
-5.6781e-05
-0.00028207
8.62964e-06
0.000100688
-0.000241725
-5.07653e-05
0.000236842
-0.000210458
-7.16938e-05
0.000319376
-0.00017967
-3.47286e-05
0.000322762
-0.000124513
6.04327e-05
0.000242176
-2.03783e-05
0.000187076
0.000103694
0.00011984
0.000301543
-4.86791e-05
0.000233698
0.000369953
-0.000181166
0.000253545
0.000385358
-0.000283007
0.000162882
0.000362465
-0.000357589
5.39541e-06
0.000322462
-0.00014605
0.000276144
-0.000480792
-0.000477325
0.000290692
-0.000468451
-0.000479958
0.000258353
-0.000413962
-0.000455823
0.000222558
-0.000315709
-0.000408145
0.000171056
-0.000182578
-0.000348692
0.000106677
-3.7215e-05
-0.000289686
4.64336e-05
8.70842e-05
-0.000237979
1.60531e-05
0.000155732
-0.000187034
3.55153e-05
0.00014683
-0.000116805
0.000103844
6.44626e-05
-1.2845e-05
0.000195444
-5.90948e-05
0.000101346
0.000274117
-0.000182433
0.000166841
0.000316139
-0.000280304
0.000136519
0.000320794
-0.000351717
1.61413e-05
0.000302412
-0.000407289
-0.000144154
0.000278071
-0.000278091
0.000252069
-0.000499926
0.000265266
-0.000501929
0.000261252
-0.000465689
0.000252186
-0.000387333
0.00022292
-0.000272219
0.000173711
-0.000140689
0.000119989
-2.58692e-05
8.5903e-05
3.89179e-05
8.89314e-05
3.47798e-05
0.000127992
-3.08282e-05
0.000182403
-0.000129049
0.000225375
-0.000227455
0.000240809
-0.000308344
0.00023218
-0.000371266
0.000215085
-0.00042371
0.000204424
0.000199728
-0.00062992
-0.000378731
0.000285504
-0.000650616
-0.000290348
0.000239014
-0.000621585
-0.000187903
0.000192487
-0.000544828
-8.78212e-05
0.000127934
-0.00043194
-8.49109e-06
5.29707e-05
-0.000307983
3.89767e-05
-1.10834e-05
-0.00020109
4.82361e-05
-4.00398e-05
-0.000132474
3.10635e-05
-2.19365e-05
-0.000108694
8.36713e-06
3.68566e-05
-0.00012313
-5.73019e-06
0.000114455
-0.000163199
-1.95364e-05
0.000184468
-0.000218664
-5.7923e-05
0.000229681
-0.000285812
-0.0001345
0.000248855
-0.000364537
-0.000230724
0.000251281
-0.00045286
-0.000307907
0.000248441
-0.000326553
0.000244151
-0.000579396
-0.00031064
0.000114559
-0.000626482
-0.000219114
9.24498e-05
-0.000624872
-0.000111029
7.25853e-05
-0.000573865
-6.44222e-06
3.96012e-05
-0.000481848
7.64299e-05
-3.67013e-06
-0.000367741
0.000126028
-4.24052e-05
-0.000256887
0.000137101
-6.02726e-05
-0.000169719
0.000117594
-4.85237e-05
-0.00011601
8.42866e-05
-1.15033e-05
-9.62122e-05
4.97783e-05
3.62503e-05
-0.00010682
9.74012e-06
7.80053e-05
-0.00014392
-5.26829e-05
0.000103637
-0.000204655
-0.000142751
0.000112609
-0.000285738
-0.00023728
0.000110135
-0.000381438
-0.000299217
0.000103727
-0.000299573
0.000100821
-0.000515205
-0.000209673
-3.6645e-05
-0.000577695
-0.000114546
-4.91034e-05
-0.00059361
-3.19863e-06
-5.63067e-05
-0.000559775
0.000101636
-6.96673e-05
-0.00048177
0.000182858
-8.91013e-05
-0.000374419
0.000228505
-0.000105628
-0.00025875
0.00023413
-0.000109265
-0.000153957
0.000206307
-9.58635e-05
-7.27146e-05
0.000159776
-6.91468e-05
-2.24804e-05
0.000107498
-3.80996e-05
-9.07563e-06
4.9578e-05
-1.23369e-05
-3.55406e-05
-2.5293e-05
2.56442e-06
-9.9404e-05
-0.000118611
5.961e-06
-0.000191687
-0.000206146
-1.07349e-06
-0.000299698
-0.000252849
-1.44097e-05
-0.000237853
-2.36504e-05
-0.000439078
-9.19597e-05
-0.000159774
-0.000509289
7.23786e-06
-0.000178803