/*--------------------------------*- C++ -*----------------------------------*\
| =========                 |                                                 |
| \\      /  F ield         | OpenFOAM: The Open Source CFD Toolbox           |
|  \\    /   O peration     | Version:  3.0.0                                 |
|   \\  /    A nd           | Web:      www.OpenFOAM.org                      |
|    \\/     M anipulation  |                                                 |
\*---------------------------------------------------------------------------*/
FoamFile
{
    version     2.0;
    format      ascii;
    class       volVectorField;
    location    "7";
    object      U;
}
// * * * * * * * * * * * * * * * * * * * * * * * * * * * * * * * * * * * * * //

dimensions      [0 1 -1 0 0 0 0];

internalField   nonuniform List<vector> 
4096
(
(-0.0894849 -0.199282 0.000145797)
(-0.0879191 -0.223054 0.0477102)
(-0.0808704 -0.234195 0.093735)
(-0.0622819 -0.231102 0.130936)
(-0.0355036 -0.213962 0.152258)
(-0.00594065 -0.183286 0.152845)
(0.0193162 -0.140074 0.132169)
(0.033327 -0.0864007 0.0950492)
(0.0319213 -0.0266358 0.0503059)
(0.0160814 0.0303483 0.00792981)
(-0.00731633 0.0710227 -0.0254151)
(-0.0297332 0.0826502 -0.048648)
(-0.0468984 0.0599809 -0.0633107)
(-0.0597388 0.0081906 -0.0691314)
(-0.0713421 -0.058117 -0.0631434)
(-0.0754713 -0.118461 -0.0438575)
(-0.0732689 -0.186256 -0.00155289)
(-0.0780297 -0.203572 0.0442676)
(-0.0757811 -0.209634 0.0887677)
(-0.0618913 -0.204637 0.126345)
(-0.0391124 -0.189249 0.150919)
(-0.0119445 -0.163831 0.157635)
(0.0136842 -0.128335 0.144624)
(0.0320379 -0.082826 0.114016)
(0.0393574 -0.0295176 0.0714299)
(0.034599 0.0238398 0.0250136)
(0.0199314 0.0622343 -0.0167518)
(0.000775797 0.0698832 -0.0483097)
(-0.0173295 0.0418526 -0.0679865)
(-0.033158 -0.0121375 -0.0747682)
(-0.0484035 -0.0738099 -0.0669662)
(-0.0569491 -0.124957 -0.0449923)
(-0.0700446 -0.181311 -0.00838305)
(-0.0781045 -0.196701 0.0380767)
(-0.0773907 -0.201286 0.0841713)
(-0.0638993 -0.195353 0.124317)
(-0.0405413 -0.17972 0.152512)
(-0.0118126 -0.155111 0.163907)
(0.0166686 -0.121863 0.156312)
(0.0397089 -0.0801796 0.130964)
(0.0540229 -0.0317468 0.0917667)
(0.0581489 0.0172171 0.0448393)
(0.0517248 0.0532214 -0.0020738)
(0.0363925 0.0599844 -0.0413086)
(0.0161589 0.0315398 -0.0678579)
(-0.00638457 -0.0215378 -0.0789645)
(-0.0303875 -0.0799672 -0.0728682)
(-0.0480578 -0.127272 -0.0506709)
(-0.0700358 -0.159107 -0.0186028)
(-0.0799787 -0.17277 0.0265245)
(-0.0793584 -0.176693 0.0725151)
(-0.0649151 -0.171171 0.113896)
(-0.0399301 -0.157082 0.144841)
(-0.00896652 -0.13528 0.160609)
(0.0226159 -0.106247 0.158817)
(0.0499694 -0.0701232 0.139954)
(0.0699796 -0.0279081 0.106681)
(0.0809961 0.0161005 0.063153)
(0.081481 0.0508659 0.0152087)
(0.069994 0.0598651 -0.0295296)
(0.0477651 0.0345086 -0.0631272)
(0.0178963 -0.0152377 -0.0799909)
(-0.0156764 -0.0694635 -0.0775458)
(-0.0425092 -0.112524 -0.057402)
(-0.0701328 -0.125587 -0.0314703)
(-0.0809286 -0.138712 0.00928654)
(-0.0795344 -0.143006 0.0522518)
(-0.0635838 -0.138849 0.0924418)
(-0.0368222 -0.127169 0.124478)
(-0.003858 -0.10885 0.143868)
(0.0302615 -0.0844097 0.148073)
(0.0609926 -0.0539405 0.136849)
(0.0852357 -0.0179416 0.111674)
(0.101119 0.0210175 0.0749674)
(0.106545 0.0548034 0.0302332)
(0.098235 0.0677697 -0.0162971)
(0.0745635 0.0482976 -0.0551857)
(0.0382152 0.00398086 -0.0776871)
(-0.00385387 -0.0455516 -0.0799365)
(-0.0383097 -0.0851796 -0.0638028)
(-0.0696198 -0.0852851 -0.046419)
(-0.0801769 -0.0989967 -0.0132053)
(-0.0771722 -0.104527 0.0234739)
(-0.0591719 -0.102467 0.0595897)
(-0.0304649 -0.0937117 0.0905898)
(0.00429305 -0.0791096 0.112398)
(0.0403406 -0.0591448 0.122352)
(0.0734142 -0.0339035 0.119457)
(0.100387 -0.00359041 0.104015)
(0.119092 0.0305394 0.0768614)
(0.127156 0.0631557 0.0392445)
(0.120514 0.0806521 -0.00488483)
(0.0954106 0.0688956 -0.0460119)
(0.0536934 0.031799 -0.072825)
(0.00482635 -0.0126629 -0.0799938)
(-0.0351638 -0.0497743 -0.0694195)
(-0.0688636 -0.0428237 -0.0624583)
(-0.0780363 -0.0581283 -0.0392573)
(-0.0725872 -0.0656786 -0.0116675)
(-0.0518757 -0.0662342 0.0177397)
(-0.0207292 -0.0606724 0.0455357)
(0.0159992 -0.0497544 0.0682593)
(0.0537285 -0.0338854 0.0832058)
(0.0883861 -0.0131685 0.0886755)
(0.116795 0.0123174 0.0838259)
(0.136452 0.0422598 0.0680305)
(0.144729 0.0737463 0.0404404)
(0.137389 0.0956535 0.00244496)
(0.109879 0.0925625 -0.0375275)
(0.0636084 0.0638507 -0.066608)
(0.00977743 0.0245681 -0.0782401)
(-0.0334636 -0.0109211 -0.0740625)
(-0.0692133 -0.00370963 -0.0778766)
(-0.0757805 -0.0217459 -0.0653573)
(-0.0669908 -0.0321686 -0.0480692)
(-0.042746 -0.0357217 -0.0269405)
(-0.00846063 -0.0333038 -0.00403952)
(0.0307421 -0.0256123 0.0179768)
(0.0702724 -0.0130008 0.0364959)
(0.106078 0.0043656 0.0493154)
(0.134863 0.0264048 0.0546839)
(0.153721 0.0534489 0.0506979)
(0.159654 0.0845058 0.0345123)
(0.148846 0.110714 0.00496092)
(0.117329 0.116394 -0.0310639)
(0.0668488 0.0962013 -0.0603305)
(0.00983992 0.06152 -0.0754903)
(-0.0343625 0.0263741 -0.0774989)
(-0.0727313 0.0261881 -0.0902358)
(-0.0751816 0.00393887 -0.0863201)
(-0.0622687 -0.0102885 -0.0779986)
(-0.0338782 -0.0170715 -0.0647985)
(0.00407288 -0.0173517 -0.0474756)
(0.0461383 -0.0118688 -0.0277797)
(0.0875536 -0.00103815 -0.00796444)
(0.124145 0.0148058 0.00972348)
(0.152367 0.0354571 0.0231619)
(0.168765 0.0617231 0.0295186)
(0.169919 0.0939846 0.0240975)
(0.152947 0.124907 0.0033388)
(0.115759 0.138554 -0.0273089)
(0.0614434 0.125677 -0.0552172)
(0.00308164 0.0939773 -0.0725798)
(-0.0397658 0.0571588 -0.0794201)
(-0.0810815 0.0411702 -0.0966024)
(-0.0776055 0.0130046 -0.0965239)
(-0.0603239 -0.00582087 -0.0932636)
(-0.0280793 -0.0156262 -0.0855665)
(0.0130955 -0.0175253 -0.0733009)
(0.0575841 -0.0125408 -0.057339)
(0.100434 -0.00137028 -0.0392187)
(0.137198 0.0153375 -0.0205584)
(0.16384 0.0372269 -0.00308964)
(0.176186 0.0655493 0.00996108)
(0.17057 0.101392 0.012379)
(0.14554 0.137722 -0.00123446)
(0.101898 0.157845 -0.0266941)
(0.0449266 0.149751 -0.0523386)
(-0.012429 0.118249 -0.0702603)
(-0.0512998 0.0770224 -0.0793378)
(-0.092878 0.0366106 -0.0942866)
(-0.0822687 0.00175479 -0.0925284)
(-0.0615571 -0.0214792 -0.0894453)
(-0.0273024 -0.0332687 -0.0837311)
(0.0150632 -0.0350882 -0.0750327)
(0.0602194 -0.0284589 -0.0636115)
(0.103134 -0.0145625 -0.0500645)
(0.138875 0.00552459 -0.0347878)
(0.162558 0.0314402 -0.0184324)
(0.169184 0.0648799 -0.00402784)
(0.155405 0.106686 0.00142947)
(0.121997 0.14871 -0.00815776)
(0.0730754 0.173003 -0.0295171)
(0.0163426 0.165929 -0.0521894)
(-0.0363287 0.130852 -0.0685925)
(-0.0678798 0.0824735 -0.0766871)
(-0.102413 0.011507 -0.0824988)
(-0.0857889 -0.0282357 -0.0754184)
(-0.0639848 -0.0539657 -0.0688241)
(-0.0308225 -0.0659207 -0.0619559)
(0.00954633 -0.0659323 -0.0548826)
(0.0525749 -0.0559093 -0.0477979)
(0.0932785 -0.0374786 -0.0405274)
(0.126026 -0.0120058 -0.0321321)
(0.144799 0.020345 -0.021801)
(0.143974 0.0613833 -0.0116909)
(0.12151 0.110446 -0.00830269)
(0.0812807 0.156911 -0.0171131)
(0.0308421 0.181547 -0.0353185)
(-0.0205285 0.170636 -0.0540618)
(-0.0634071 0.128174 -0.0667376)
(-0.0841542 0.0714927 -0.0711663)
(-0.103933 -0.0289077 -0.0638247)
(-0.0851472 -0.0694809 -0.050262)
(-0.0651433 -0.0947505 -0.0383912)
(-0.0359965 -0.104997 -0.0283989)
(-0.000451105 -0.10211 -0.0211852)
(0.0378116 -0.0879804 -0.0173977)
(0.0738725 -0.0643077 -0.0166209)
(0.101367 -0.0324017 -0.0169736)
(0.113242 0.00783204 -0.0162561)
(0.103936 0.0574613 -0.0149293)
(0.0737879 0.112818 -0.017367)
(0.0303833 0.160011 -0.0273862)
(-0.0158739 0.179464 -0.0427232)
(-0.0560337 0.159782 -0.0566366)
(-0.0848567 0.107903 -0.0640456)
(-0.0934504 0.0446035 -0.0633559)
(-0.0973501 -0.076046 -0.0431265)
(-0.0806805 -0.113484 -0.0231322)
(-0.0644544 -0.135743 -0.00545255)
(-0.0406026 -0.142953 0.00864231)
(-0.01093 -0.136712 0.0172924)
(0.0214166 -0.118519 0.0191263)
(0.051484 -0.0897318 0.0142611)
(0.0724362 -0.0513207 0.00485296)
(0.076921 -0.00321123 -0.00581542)
(0.060397 0.0537618 -0.0158293)
(0.0259081 0.111827 -0.0261714)
(-0.01588 0.154222 -0.0384441)
(-0.0532838 0.163042 -0.0511401)
(-0.0795742 0.131708 -0.0598919)
(-0.0943249 0.0713052 -0.0612758)
(-0.0931023 0.00509724 -0.0548443)
(-0.0881962 -0.123421 -0.0248051)
(-0.075726 -0.155875 0.00158838)
(-0.0632893 -0.174083 0.0253564)
(-0.0437926 -0.177741 0.0441133)
(-0.0188137 -0.167866 0.0551428)
(0.00856599 -0.145472 0.056233)
(0.033259 -0.111586 0.0469931)
(0.0484865 -0.067136 0.0294962)
(0.0476059 -0.0128496 0.00768848)
(0.0277341 0.0478701 -0.0143004)
(-0.00626673 0.103665 -0.0339186)
(-0.0428791 0.136572 -0.0500043)
(-0.0710327 0.132085 -0.0610423)
(-0.0865873 0.0896298 -0.0647995)
(-0.0924544 0.0240519 -0.059961)
(-0.086572 -0.0413739 -0.0475409)
(-0.0804325 -0.143675 -0.0121169)
(-0.0704742 -0.166217 0.0191243)
(-0.0598282 -0.178311 0.047478)
(-0.0425608 -0.179348 0.070047)
(-0.0203375 -0.169445 0.0837344)
(0.00372324 -0.148551 0.0859277)
(0.0246556 -0.116539 0.0756097)
(0.036252 -0.0733799 0.0541019)
(0.0331347 -0.0195536 0.0249811)
(0.013982 0.040301 -0.0066912)
(-0.015655 0.0917449 -0.0356471)
(-0.045546 0.114137 -0.0574515)
(-0.0674007 0.095892 -0.069238)
(-0.0793114 0.0445882 -0.0699233)
(-0.0843268 -0.0196243 -0.0601566)
(-0.0795657 -0.0759804 -0.042482)
(-0.139672 -0.196751 0.0256279)
(-0.141512 -0.204649 0.0599058)
(-0.139639 -0.204718 0.0934438)
(-0.121556 -0.194088 0.119474)
(-0.0906067 -0.173821 0.132458)
(-0.0523094 -0.145616 0.129787)
(-0.0148678 -0.111279 0.112932)
(0.0119594 -0.0719207 0.0869526)
(0.0208939 -0.0284868 0.0580687)
(0.0113092 0.0143022 0.0314076)
(-0.00992039 0.0452143 0.00952701)
(-0.0335137 0.0518426 -0.00764117)
(-0.054627 0.0289154 -0.0203901)
(-0.0740671 -0.0178414 -0.0270058)
(-0.0950219 -0.0739447 -0.0245321)
(-0.106052 -0.119807 -0.0127508)
(-0.119551 -0.174336 0.00841619)
(-0.127861 -0.178983 0.0413456)
(-0.130102 -0.176192 0.0745489)
(-0.116874 -0.165378 0.102995)
(-0.0909784 -0.147541 0.121536)
(-0.0567858 -0.123774 0.126679)
(-0.0209431 -0.094974 0.117824)
(0.00854731 -0.0614055 0.0972983)
(0.0251536 -0.02348 0.0691858)
(0.0262527 0.0143874 0.0381609)
(0.0140113 0.0405769 0.00883392)
(-0.00564174 0.0417934 -0.0152935)
(-0.0271098 0.0142649 -0.032114)
(-0.04908 -0.0325166 -0.039921)
(-0.0728413 -0.0821253 -0.037144)
(-0.0874032 -0.118212 -0.0247267)
(-0.109371 -0.160278 -0.00950999)
(-0.120857 -0.163495 0.0230534)
(-0.124392 -0.15918 0.0571989)
(-0.112219 -0.14758 0.0883694)
(-0.0870732 -0.129844 0.111426)
(-0.0530605 -0.107131 0.122388)
(-0.0160665 -0.080406 0.119591)
(0.0169541 -0.0501144 0.103898)
(0.0402159 -0.0167097 0.0779829)
(0.0503796 0.0162839 0.0456294)
(0.0464169 0.0387101 0.0117517)
(0.0303965 0.0375321 -0.0182056)
(0.00675826 0.00896486 -0.0399139)
(-0.0214347 -0.0365967 -0.0508305)
(-0.0525223 -0.0823904 -0.0498643)
(-0.0748278 -0.114447 -0.0379942)
(-0.0994468 -0.130457 -0.0283435)
(-0.112811 -0.132443 0.00145695)
(-0.11627 -0.127303 0.0343923)
(-0.10374 -0.116019 0.0663952)
(-0.0780416 -0.0998447 0.0924744)
(-0.0431445 -0.0799165 0.108409)
(-0.00443079 -0.057135 0.111794)
(0.0319758 -0.0319339 0.102364)
(0.0607792 -0.00442577 0.0815262)
(0.0782417 0.0232895 0.0518868)
(0.0813901 0.043285 0.0174229)
(0.0687011 0.0426446 -0.0160078)
(0.042453 0.0159503 -0.0420987)
(0.00709105 -0.0265453 -0.0569123)
(-0.0322808 -0.067901 -0.0593042)
(-0.0625909 -0.0958146 -0.0500996)
(-0.0878685 -0.0919116 -0.0468725)
(-0.102285 -0.0933058 -0.0230153)
(-0.104838 -0.0879038 0.00559845)
(-0.0912535 -0.0774862 0.0356687)
(-0.0645414 -0.0634406 0.0626611)
(-0.0285756 -0.0468949 0.0823738)
(0.0117389 -0.0286424 0.0919127)
(0.0509185 -0.00895002 0.0900516)
(0.0840091 0.0123678 0.0770069)
(0.107027 0.0347224 0.0540345)
(0.115844 0.0529419 0.0234457)
(0.10612 0.0548741 -0.00989062)
(0.0774392 0.032575 -0.0386186)
(0.0351027 -0.0054044 -0.0571837)
(-0.0121162 -0.0423373 -0.0639845)
(-0.0495592 -0.0669728 -0.0595772)
(-0.075257 -0.0499368 -0.0635366)
(-0.0898491 -0.0514534 -0.048547)
(-0.0907368 -0.0464826 -0.0272984)
(-0.0754606 -0.0374027 -0.0020668)
(-0.0473152 -0.0258328 0.0234169)
(-0.0101586 -0.012885 0.0452472)
(0.0315347 0.000807454 0.0602845)
(0.0728232 0.0151625 0.0665476)
(0.108983 0.0306462 0.063171)
(0.135805 0.0479307 0.0500313)
(0.148502 0.0647709 0.0274518)
(0.14085 0.0706598 -0.00180878)
(0.10977 0.0548829 -0.0305944)
(0.0610014 0.0227857 -0.0520191)
(0.00683143 -0.00986009 -0.063622)
(-0.0364668 -0.0322899 -0.0655985)
(-0.0632126 -0.00916617 -0.0766719)
(-0.0770435 -0.0117342 -0.0723542)
(-0.0754276 -0.0081437 -0.0606626)
(-0.0576379 -0.00107697 -0.0425829)
(-0.02745 0.00763579 -0.0208376)
(0.0112505 0.0169073 0.00122861)
(0.0542834 0.0262837 0.0204762)
(0.0971142 0.0358871 0.0344263)
(0.135206 0.0463961 0.041333)
(0.16412 0.0594708 0.0398197)
(0.178549 0.0756331 0.028194)
(0.171215 0.0866244 0.00639037)
(0.137211 0.0791408 -0.0197692)
(0.0826147 0.0541158 -0.042679)
(0.0226863 0.0254419 -0.0587577)
(-0.0248203 0.00411343 -0.0677015)
(-0.054087 0.0254741 -0.0844919)
(-0.0659278 0.0204648 -0.0905929)
(-0.060899 0.0214126 -0.0888562)
(-0.0396574 0.0255978 -0.0790013)
(-0.00658882 0.0311003 -0.0625409)
(0.0341756 0.0368469 -0.0420616)
(0.0785799 0.0425624 -0.0204784)
(0.122384 0.0485449 -0.000442053)
(0.161205 0.055604 0.0157977)
(0.190353 0.0661299 0.025903)
(0.203977 0.0830189 0.0262568)
(0.194409 0.100256 0.013773)
(0.156403 0.102325 -0.00789385)
(0.0966989 0.0849817 -0.0308987)
(0.0326796 0.0595391 -0.0504772)
(-0.0169348 0.0377039 -0.0656413)
(-0.0509489 0.0490408 -0.0852882)
(-0.0591619 0.0397199 -0.0988811)
(-0.0498068 0.0366359 -0.105145)
(-0.0242863 0.0372828 -0.102836)
(0.0123264 0.0396105 -0.0922422)
(0.0555034 0.0424981 -0.0750118)
(0.101147 0.0457738 -0.0535361)
(0.145173 0.0498235 -0.0301955)
(0.183308 0.0555421 -0.00721752)
(0.210538 0.0659898 0.0125123)
(0.220407 0.0858425 0.023581)
(0.20568 0.110507 0.0200773)
(0.162533 0.122437 0.0033612)
(0.098907 0.112291 -0.018716)
(0.0330125 0.0885505 -0.0402873)
(-0.0161344 0.0637883 -0.0594227)
(-0.0567771 0.0569153 -0.0779738)
(-0.0593572 0.0414055 -0.0939022)
(-0.0452828 0.0334073 -0.104158)
(-0.0154252 0.0306288 -0.107101)
(0.0246877 0.0307236 -0.102032)
(0.0701 0.0322643 -0.0894963)
(0.116511 0.0349456 -0.0709209)
(0.159815 0.0391227 -0.0478656)
(0.195646 0.045897 -0.0219495)
(0.218458 0.0592117 0.00368788)
(0.221406 0.0847221 0.0220249)
(0.198834 0.117656 0.0249694)
(0.150091 0.138305 0.0123098)
(0.0846697 0.133326 -0.00825966)
(0.0200292 0.108726 -0.0299267)
(-0.025472 0.0780679 -0.0496248)
(-0.071427 0.0455027 -0.0627201)
(-0.0668782 0.0232078 -0.075726)
(-0.0489982 0.0107289 -0.0854421)
(-0.0162681 0.00580668 -0.0905022)
(0.0259922 0.00558951 -0.0897742)
(0.0726311 0.00803095 -0.0827568)
(0.118983 0.0123989 -0.0695377)
(0.160494 0.0188903 -0.0502728)
(0.192192 0.0291633 -0.0255599)
(0.207793 0.0482979 0.00130012)
(0.200891 0.0817233 0.0220093)
(0.169011 0.122544 0.0275896)
(0.115871 0.148941 0.0174146)
(0.0523532 0.145339 -0.00109021)
(-0.00662422 0.116479 -0.0207125)
(-0.0446336 0.0773293 -0.0375813)
(-0.0893768 0.0145297 -0.0417977)
(-0.0784133 -0.0124801 -0.0487337)
(-0.0592422 -0.0273804 -0.0545688)
(-0.0266013 -0.0323963 -0.0587536)
(0.015166 -0.0308005 -0.0604541)
(0.0611374 -0.0252541 -0.0585977)
(0.106121 -0.0170766 -0.0519334)
(0.144522 -0.00618967 -0.0389616)
(0.170109 0.00993294 -0.0191395)
(0.175941 0.037233 0.0041476)
(0.157578 0.0792094 0.0222715)
(0.117367 0.125267 0.0269711)
(0.0635741 0.152269 0.0181121)
(0.00735052 0.144892 0.00247855)
(-0.0407881 0.10849 -0.0131437)
(-0.0676549 0.0605062 -0.0251792)
(-0.10333 -0.0303705 -0.0195443)
(-0.08951 -0.0579673 -0.0194397)
(-0.0722603 -0.0724869 -0.0196724)
(-0.0428777 -0.0757296 -0.0207667)
(-0.00444421 -0.0709377 -0.022708)
(0.03864 -0.0609786 -0.0245333)
(0.0806492 -0.0475957 -0.0241122)
(0.114523 -0.0306746 -0.0185868)
(0.132438 -0.00690028 -0.00644746)
(0.127588 0.0293681 0.00932412)
(0.0991027 0.0778413 0.0212144)
(0.0547144 0.123854 0.0229527)
(0.00594124 0.144852 0.0150213)
(-0.037816 0.128775 0.00298378)
(-0.0716634 0.0836233 -0.00776251)
(-0.0862616 0.0296306 -0.0144553)
(-0.110439 -0.0801067 -0.000497964)
(-0.098068 -0.104381 0.00670195)
(-0.08499 -0.116248 0.0128321)
(-0.0606597 -0.116599 0.0162598)
(-0.027183 -0.108114 0.01597)
(0.011556 -0.0933848 0.0123644)
(0.0493902 -0.0742173 0.00777999)
(0.0779785 -0.0504304 0.00576275)
(0.0884746 -0.0186048 0.00854369)
(0.075284 0.0249666 0.0143024)
(0.0414766 0.075234 0.0179641)
(-0.0012776 0.114805 0.0157493)
(-0.0406422 0.124239 0.00842815)
(-0.0704483 0.0970843 1.83486e-05)
(-0.0910764 0.0448263 -0.00563993)
(-0.0961539 -0.0106897 -0.00716185)
(-0.113259 -0.127578 0.0128134)
(-0.104607 -0.146606 0.0272555)
(-0.0959671 -0.154686 0.0402898)
(-0.0763724 -0.151597 0.0491932)
(-0.047516 -0.139227 0.0519287)
(-0.0130167 -0.119678 0.0481374)
(0.0207327 -0.0946529 0.0398759)
(0.0448421 -0.0641473 0.0308139)
(0.0506013 -0.0257689 0.0237388)
(0.0342166 0.0211968 0.0185402)
(0.00120203 0.0678183 0.013035)
(-0.0358489 0.0963612 0.00590243)
(-0.0658705 0.0921792 -0.00169796)
(-0.0856096 0.0549752 -0.00708962)
(-0.0984814 -0.00107807 -0.00794666)
(-0.0991317 -0.0544924 -0.00436895)
(-0.111821 -0.14634 0.0193029)
(-0.105132 -0.157611 0.0401366)
(-0.0990092 -0.161695 0.0594877)
(-0.0828236 -0.157114 0.0739668)
(-0.0579835 -0.14459 0.0807364)
(-0.0276286 -0.1251 0.0785713)
(0.00233342 -0.0995492 0.0687322)
(0.0234718 -0.0677239 0.0545093)
(0.0279725 -0.0281955 0.039145)
(0.0133313 0.0175158 0.0242115)
(-0.0146537 0.0578104 0.00993219)
(-0.0450731 0.0744999 -0.00309412)
(-0.0694352 0.0575204 -0.0129119)
(-0.086021 0.0137475 -0.0170818)
(-0.0979177 -0.0395034 -0.0141844)
(-0.0987146 -0.0840177 -0.00572963)
(-0.167788 -0.162584 0.0493377)
(-0.169184 -0.151974 0.0639039)
(-0.169659 -0.136985 0.0776553)
(-0.152652 -0.116817 0.0849686)
(-0.122026 -0.0944415 0.0837961)
(-0.0833212 -0.0729088 0.0754739)
(-0.0445325 -0.0539814 0.0639556)
(-0.0147333 -0.0366853 0.0535803)
(-0.000704237 -0.0178195 0.0464775)
(-0.00378909 0.00309486 0.041315)
(-0.0192311 0.0190997 0.0354985)
(-0.0397429 0.0191874 0.0277865)
(-0.0609104 -0.0022666 0.0195273)
(-0.0831117 -0.040141 0.0139603)
(-0.108885 -0.0812763 0.0142801)
(-0.122634 -0.109006 0.0200074)
(-0.146747 -0.137946 0.0175442)
(-0.156024 -0.127431 0.0335148)
(-0.161672 -0.111714 0.049999)
(-0.150619 -0.0920743 0.0627433)
(-0.125821 -0.071123 0.0690953)
(-0.091557 -0.0513644 0.0686383)
(-0.0544397 -0.0343351 0.0631661)
(-0.0223535 -0.0194493 0.0551938)
(-0.00166816 -0.0044132 0.0462517)
(0.00488189 0.0108117 0.0360209)
(-0.00145867 0.0198763 0.0238953)
(-0.0165532 0.0131707 0.0108074)
(-0.0363885 -0.0124809 -0.000691495)
(-0.0598925 -0.0492212 -0.00780443)
(-0.0875744 -0.0834926 -0.0085184)
(-0.104632 -0.102312 -0.00320078)
(-0.130297 -0.118212 -0.0111284)
(-0.143813 -0.106771 0.0051733)
(-0.151691 -0.0896266 0.0232172)
(-0.143381 -0.0692787 0.0395041)
(-0.121269 -0.0483992 0.0510982)
(-0.0889399 -0.0293084 0.0566146)
(-0.0519504 -0.0134999 0.0563684)
(-0.017053 -0.000747311 0.0514384)
(0.0098687 0.0105901 0.0427591)
(0.025126 0.0207035 0.0304129)
(0.0270642 0.0245757 0.0147893)
(0.0163146 0.0139498 -0.00200774)
(-0.00435035 -0.0134713 -0.0165535)
(-0.0323265 -0.0490374 -0.0259704)
(-0.0652544 -0.0794084 -0.028772)
(-0.0887028 -0.0940737 -0.0246537)
(-0.112287 -0.0864008 -0.0372808)
(-0.128499 -0.0742412 -0.0235831)
(-0.136951 -0.0564683 -0.00647572)
(-0.129662 -0.036489 0.0112071)
(-0.108653 -0.0170177 0.0263423)
(-0.0770064 -0.00018975 0.0368473)
(-0.0394547 0.0126867 0.0419011)
(-0.00184632 0.0217679 0.0414921)
(0.0303486 0.0285322 0.0358671)
(0.0528203 0.0338298 0.0251275)
(0.0617716 0.034312 0.00975264)
(0.0545173 0.0225962 -0.00804654)
(0.0319893 -0.0039815 -0.0244596)
(-0.00175122 -0.0368668 -0.0365173)
(-0.0410138 -0.0630246 -0.0428395)
(-0.0712716 -0.0739173 -0.0422679)
(-0.0924164 -0.0490631 -0.0594509)
(-0.110254 -0.0364311 -0.0518274)
(-0.118093 -0.0185011 -0.038714)
(-0.110547 0.000552844 -0.0222002)
(-0.0895127 0.0179281 -0.00540512)
(-0.0577184 0.0316527 0.00906681)
(-0.019227 0.0407022 0.0195138)
(0.0208322 0.0453948 0.0250158)
(0.0573005 0.0473511 0.025164)
(0.0854669 0.0482885 0.01972)
(0.100109 0.0468335 0.00863408)
(0.0956489 0.036503 -0.00680614)
(0.0707116 0.0131663 -0.0232852)
(0.0306062 -0.0158931 -0.0378472)
(-0.0153516 -0.0380858 -0.0488965)
(-0.0521827 -0.0460702 -0.054415)
(-0.0721224 -0.0110922 -0.0758488)
(-0.0905636 0.0015148 -0.0773193)
(-0.0967527 0.0188767 -0.0710708)
(-0.0877492 0.0363602 -0.058317)
(-0.0655682 0.051024 -0.0419508)
(-0.032773 0.0610632 -0.0248669)
(0.00705962 0.065816 -0.00939913)
(0.0493507 0.065929 0.0028051)
(0.0891424 0.0633075 0.0106839)
(0.121433 0.060604 0.013492)
(0.14019 0.0586544 0.0102985)
(0.137604 0.052094 0.000603971)
(0.10975 0.0344499 -0.013837)
(0.0629348 0.0104113 -0.030301)
(0.0101954 -0.00820779 -0.0466663)
(-0.0326817 -0.0143429 -0.0600652)
(-0.0532841 0.0237972 -0.0848758)
(-0.0712764 0.0353782 -0.0971463)
(-0.0747971 0.0509683 -0.0997275)
(-0.0630925 0.0658582 -0.0928895)
(-0.0385866 0.0770164 -0.0789582)
(-0.0038963 0.082834 -0.0608718)
(0.0376619 0.0830817 -0.0413577)
(0.0818714 0.0788436 -0.0225859)
(0.123928 0.0723475 -0.00615837)
(0.158655 0.0671345 0.0065827)
(0.179533 0.0663536 0.0136165)
(0.177288 0.0660194 0.0122237)
(0.145873 0.0566781 0.00176655)
(0.0923838 0.0389674 -0.0156165)
(0.0332658 0.0234523 -0.0370449)
(-0.0146332 0.0179089 -0.0587389)
(-0.0382237 0.0519276 -0.0850293)
(-0.05444 0.0608753 -0.107645)
(-0.0541745 0.0731275 -0.119476)
(-0.0385236 0.0841934 -0.119715)
(-0.0106137 0.09105 -0.10984)
(0.0266232 0.0923351 -0.0925327)
(0.0699347 0.0882982 -0.0706371)
(0.115352 0.0804767 -0.0465742)
(0.158238 0.0713898 -0.0222406)
(0.19331 0.0653474 0.000520035)
(0.213706 0.0677001 0.0184411)
(0.209612 0.075919 0.0263465)
(0.173955 0.0771885 0.0208962)
(0.11447 0.0668415 0.00355401)
(0.0502518 0.0536808 -0.0216867)
(-0.000810913 0.0469747 -0.0503843)
(-0.0303237 0.0694765 -0.0751647)
(-0.0429847 0.0738118 -0.104937)
(-0.0377821 0.0813091 -0.124361)
(-0.0171384 0.087775 -0.131599)
(0.0148792 0.0901516 -0.126948)
(0.0548143 0.0872653 -0.112404)
(0.0993597 0.0797898 -0.0905511)
(0.144761 0.0696501 -0.0636523)
(0.186597 0.0596424 -0.0334909)
(0.219449 0.05487 -0.00224121)
(0.23613 0.0625929 0.0253656)
(0.227304 0.0811192 0.0415713)
(0.186777 0.0940855 0.0407452)
(0.122992 0.0911249 0.0241251)
(0.0561438 0.078958 -0.00300338)
(0.00472567 0.0686592 -0.0354022)
(-0.0335932 0.0725963 -0.0553797)
(-0.0406011 0.0706197 -0.0868875)
(-0.0298716 0.0728554 -0.110324)
(-0.00393125 0.0751777 -0.123218)
(0.0322672 0.0742076 -0.124499)
(0.0746008 0.0686337 -0.114903)
(0.119576 0.0593123 -0.0960934)
(0.163564 0.0484529 -0.06958)
(0.202259 0.0393076 -0.0366065)
(0.229952 0.0380957 0.000296904)
(0.239241 0.0532931 0.0346115)
(0.222554 0.0826211 0.0562272)
(0.17683 0.106238 0.0583668)
(0.111525 0.108932 0.0427933)
(0.0458228 0.0954697 0.016176)
(-0.00236363 0.0786151 -0.0153899)
(-0.0494745 0.0580637 -0.0277568)
(-0.0492444 0.0495544 -0.0557229)
(-0.0338293 0.0475367 -0.0789597)
(-0.00376843 0.047635 -0.0951518)
(0.0356776 0.0458006 -0.102235)
(0.0797414 0.040115 -0.0992857)
(0.124449 0.0312089 -0.0862693)
(0.165899 0.021477 -0.0632409)
(0.199478 0.0150382 -0.030629)
(0.218936 0.0196039 0.00836283)
(0.217337 0.0436618 0.0451018)
(0.190588 0.082339 0.0681111)
(0.140526 0.112809 0.0710707)
(0.077692 0.117213 0.0569053)
(0.0179619 0.0993965 0.0331732)
(-0.0229183 0.0735494 0.0063955)
(-0.0734506 0.0254923 0.00281938)
(-0.0664233 0.0128321 -0.0187181)
(-0.0489944 0.00898941 -0.038472)
(-0.0176535 0.00949534 -0.0551454)
(0.0228842 0.00968739 -0.066564)
(0.0674722 0.00676849 -0.0703854)
(0.111251 0.000772779 -0.0644711)
(0.149322 -0.00578185 -0.0469216)
(0.176102 -0.00753064 -0.0174096)
(0.184909 0.00455428 0.0197925)
(0.170661 0.0371631 0.0543951)
(0.134382 0.0811789 0.0750769)
(0.0832325 0.112148 0.0773345)
(0.0279961 0.112787 0.0651946)
(-0.0209005 0.0876251 0.0461006)
(-0.0509918 0.0529459 0.0258405)
(-0.0973369 -0.0196845 0.0296357)
(-0.0867733 -0.0323481 0.0151446)
(-0.0709494 -0.0351871 0.000773417)
(-0.041724 -0.0321085 -0.0137919)
(-0.0028485 -0.0278725 -0.0270206)
(0.0405397 -0.0259148 -0.0358844)
(0.0825209 -0.0269351 -0.036423)
(0.116548 -0.0283632 -0.0249409)
(0.135671 -0.0236937 -0.000647591)
(0.133495 -0.00374634 0.0312129)
(0.108407 0.0344398 0.0599399)
(0.0670333 0.0774014 0.075963)
(0.0202344 0.101536 0.0769585)
(-0.0231582 0.0935037 0.0673137)
(-0.0586973 0.0602794 0.0533675)
(-0.0770054 0.0201801 0.0393005)
(-0.115793 -0.0679872 0.0473455)
(-0.105961 -0.0769502 0.0398729)
(-0.0944889 -0.0767192 0.0317871)
(-0.0697874 -0.0699531 0.0212465)
(-0.0346903 -0.0609159 0.00883336)
(0.00594077 -0.0531864 -0.00243011)
(0.0452686 -0.0480655 -0.00755904)
(0.075116 -0.0431228 -0.00180102)
(0.087526 -0.0315658 0.0157374)
(0.0774116 -0.00578229 0.0395482)
(0.047083 0.0326711 0.0600952)
(0.00704925 0.0678104 0.0704085)
(-0.0310887 0.0797024 0.0698941)
(-0.061785 0.0610139 0.062583)
(-0.0857192 0.0218621 0.0534193)
(-0.0950856 -0.0188614 0.0446899)
(-0.128333 -0.11135 0.0546163)
(-0.121831 -0.114606 0.0542436)
(-0.115462 -0.110158 0.0529219)
(-0.0958232 -0.0992476 0.0476074)
(-0.0651632 -0.0853822 0.0379749)
(-0.0279637 -0.0719401 0.0266587)
(0.00849716 -0.0605999 0.0187961)
(0.0351127 -0.0493769 0.0193393)
(0.0438196 -0.0323844 0.0291546)
(0.0312964 -0.00471355 0.0434143)
(0.00234023 0.0285409 0.0547713)
(-0.0317582 0.0515537 0.0588403)
(-0.0609788 0.0496764 0.0562604)
(-0.0826264 0.0216427 0.0505939)
(-0.100073 -0.0203063 0.0456001)
(-0.105223 -0.058 0.0419108)
(-0.13217 -0.128492 0.0527581)
(-0.128356 -0.125996 0.0594632)
(-0.126281 -0.11875 0.0649933)
(-0.111686 -0.10617 0.0655906)
(-0.0860496 -0.0905872 0.0601189)
(-0.0530096 -0.0747366 0.0505062)
(-0.0194911 -0.0603527 0.0413103)
(0.00533706 -0.0460545 0.0370764)
(0.0138919 -0.0273446 0.0390096)
(0.00404001 -0.0018401 0.043792)
(-0.0191766 0.0233672 0.0463524)
(-0.0463083 0.0336845 0.0439899)
(-0.0698097 0.0198628 0.0382358)
(-0.0881327 -0.0133733 0.0329288)
(-0.104287 -0.0523836 0.0313356)
(-0.108865 -0.0823021 0.0327723)
(-0.163594 -0.109519 0.0675194)
(-0.164399 -0.0856089 0.062937)
(-0.165945 -0.0593282 0.0582772)
(-0.151947 -0.0338653 0.0485136)
(-0.126284 -0.0136647 0.0343982)
(-0.0944463 -0.00214885 0.0203594)
(-0.0635949 1.46579e-05 0.0121549)
(-0.0403185 -0.00394168 0.0134591)
(-0.0282645 -0.00817131 0.02354)
(-0.027428 -0.00880018 0.0373562)
(-0.0351318 -0.00842077 0.0485718)
(-0.0478732 -0.0146388 0.0536019)
(-0.0635161 -0.0323651 0.053261)
(-0.0825493 -0.057833 0.0509177)
(-0.10668 -0.0807163 0.0499222)
(-0.120091 -0.0895201 0.0503587)
(-0.145287 -0.0886509 0.0260749)
(-0.155123 -0.0658888 0.0263074)
(-0.163356 -0.0391856 0.0274006)
(-0.1564 -0.0131086 0.025257)
(-0.137 0.00795941 0.0194499)
(-0.109307 0.0204828 0.0124567)
(-0.0792728 0.0233461 0.00803524)
(-0.0530231 0.0188739 0.00874348)
(-0.0345087 0.0117914 0.0141952)
(-0.0249781 0.00540027 0.0211839)
(-0.0239562 -0.00198904 0.0258116)
(-0.0302466 -0.0155802 0.0262176)
(-0.0427954 -0.0373815 0.0233704)
(-0.0616116 -0.0617889 0.0196434)
(-0.0868353 -0.0791361 0.0173501)
(-0.103577 -0.0811045 0.0176046)
(-0.125566 -0.0678926 -0.0106138)
(-0.141088 -0.0440811 -0.00864001)
(-0.153123 -0.0159757 -0.00489661)
(-0.150733 0.0108881 -0.00246666)
(-0.135596 0.0321764 -0.00234896)
(-0.110803 0.0446925 -0.00342418)
(-0.0811386 0.0472052 -0.00365848)
(-0.051957 0.0414643 -0.00178015)
(-0.0273951 0.0313674 0.00178786)
(-0.0099524 0.0200748 0.00513049)
(-0.00136888 0.00702708 0.00607105)
(-0.00291485 -0.011221 0.00384975)
(-0.0146615 -0.0352397 -0.000560296)
(-0.0357036 -0.0587591 -0.00567652)
(-0.0639438 -0.0725606 -0.00993737)
(-0.0855416 -0.0704726 -0.0112316)
(-0.103863 -0.0392709 -0.0414835)
(-0.123013 -0.0143855 -0.041509)
(-0.136723 0.014458 -0.0381119)
(-0.136789 0.0411774 -0.0335227)
(-0.124085 0.0614215 -0.0292098)
(-0.1008 0.0722316 -0.0252211)
(-0.0707599 0.0725727 -0.0209568)
(-0.038652 0.0640715 -0.016185)
(-0.00877077 0.0503692 -0.0114387)
(0.0153048 0.0349254 -0.00788901)
(0.0299359 0.0183502 -0.00681365)
(0.0315487 -0.00168464 -0.0087268)
(0.0188462 -0.0254002 -0.0132377)
(-0.00614424 -0.0466313 -0.0199312)
(-0.0386635 -0.0567051 -0.0277267)
(-0.0655638 -0.0511352 -0.0334334)
(-0.0814668 -0.00803371 -0.0648655)
(-0.102669 0.0178789 -0.070808)
(-0.116321 0.0469951 -0.0708652)
(-0.116837 0.0728671 -0.0665433)
(-0.104677 0.0911211 -0.0597147)
(-0.0813932 0.0990203 -0.0514598)
(-0.050061 0.0959216 -0.0423589)
(-0.0148829 0.0837022 -0.0329963)
(0.0196601 0.0661637 -0.0240919)
(0.0491015 0.0474067 -0.0165328)
(0.068316 0.0293524 -0.0114159)
(0.07168 0.0103329 -0.0098562)
(0.0565379 -0.0106749 -0.0127927)
(0.0260981 -0.0285021 -0.0211168)
(-0.0119016 -0.0350693 -0.0339765)
(-0.0444368 -0.0267559 -0.0470261)
(-0.0597676 0.0220733 -0.0792959)
(-0.081731 0.0484153 -0.0943468)
(-0.093881 0.0769064 -0.100626)
(-0.0929684 0.10096 -0.0989298)
(-0.0794228 0.116165 -0.0913717)
(-0.054514 0.120091 -0.0798665)
(-0.0208931 0.11266 -0.0659291)
(0.0174874 0.0962673 -0.0507986)
(0.0559611 0.0751496 -0.0354829)
(0.0894439 0.0542228 -0.0209093)
(0.111741 0.0368668 -0.00845755)
(0.115514 0.0219088 -0.000572667)
(0.0966671 0.00636972 -0.000279988)
(0.0595488 -0.00682251 -0.00994624)
(0.0150544 -0.0103188 -0.028703)
(-0.0233278 -0.00028638 -0.051058)
(-0.0398401 0.04864 -0.0836282)
(-0.0613416 0.0740318 -0.109492)
(-0.0706799 0.100312 -0.123871)
(-0.0666471 0.121044 -0.126758)
(-0.0500289 0.131883 -0.120234)
(-0.0221825 0.130843 -0.1068)
(0.0143282 0.118559 -0.0886617)
(0.0556207 0.0980955 -0.0675525)
(0.0968816 0.0742128 -0.0447653)
(0.132668 0.0526481 -0.0214635)
(0.156269 0.0383761 0.00035244)
(0.159196 0.0307604 0.0164994)
(0.135869 0.0237177 0.0213689)
(0.0914845 0.01653 0.0109694)
(0.0401686 0.0156419 -0.0134401)
(-0.00361652 0.0260196 -0.0454236)
(-0.0231117 0.0692952 -0.0767019)
(-0.0426618 0.0917379 -0.112931)
(-0.0478022 0.113883 -0.135975)