/*--------------------------------*- C++ -*----------------------------------*\
| =========                 |                                                 |
| \\      /  F ield         | OpenFOAM: The Open Source CFD Toolbox           |
|  \\    /   O peration     | Version:  3.0.0                                 |
|   \\  /    A nd           | Web:      www.OpenFOAM.org                      |
|    \\/     M anipulation  |                                                 |
\*---------------------------------------------------------------------------*/
FoamFile
{
    version     2.0;
    format      ascii;
    class       volScalarField;
    location    "50";
    object      nut;
}
// * * * * * * * * * * * * * * * * * * * * * * * * * * * * * * * * * * * * * //

dimensions      [0 2 -1 0 0 0 0];

internalField   nonuniform List<scalar> 
10720
(
0.0837165
0.0880673
0.0927956
0.0978283
0.103439
0.109688
0.116707
0.124366
0.132714
0.141445
0.150264
0.15879
0.166489
0.172958
0.17772
0.180807
0.18232
0.182495
0.181509
0.179606
0.1768
0.173133
0.168686
0.163705
0.158527
0.153414
0.148393
0.143328
0.138042
0.132414
0.126461
0.12025
0.11381
0.107164
0.100128
0.0924268
0.0828917
0.0721961
0.049073
0.0795328
0.0748229
0.0693525
0.0622343
0.0532102
0.0426964
0.0388366
0.0368975
0.0420744
0.0492223
0.0551344
0.0600934
0.0645688
0.0690474
0.0735166
0.0778394
0.0819721
0.0858915
0.0896032
0.0930608
0.0963042
0.0994355
0.102507
0.105508
0.108218
0.110418
0.112091
0.113302
0.114127
0.114603
0.114783
0.114729
0.114409
0.113797
0.112862
0.111629
0.10968
0.10766
0.0990205
0.100437
0.0999614
0.0992112
0.0981514
0.0969992
0.095658
0.0942112
0.0927931
0.0913948
0.0902004
0.0899682
0.0907487
0.0924207
0.0948264
0.0981012
0.102069
0.107096
0.112918
0.119111
0.125366
0.131783
0.137923
0.143218
0.14712
0.149241
0.149615
0.148563
0.146411
0.143468
0.139991
0.136118
0.131944
0.12756
0.123078
0.118628
0.114286
0.110386
0.105588
0.105972
0.100923
0.101074
0.101403
0.101248
0.100816
0.0999454
0.0981193
0.0958553
0.0926375
0.0888784
0.0849966
0.0810808
0.077129
0.0732724
0.0698288
0.0667775
0.0639687
0.0614667
0.0594277
0.0578466
0.0565699
0.0555428
0.0548569
0.0545026
0.0543996
0.05446
0.0546594
0.0549502
0.0553995
0.0565019
0.0587892
0.0619474
0.0652934
0.0684192
0.0710528
0.0733309
0.0752209
0.0788439
0.0823181
0.121635
0.121469
0.121084
0.120505
0.119808
0.118897
0.11775
0.116479
0.115053
0.113401
0.111583
0.109561
0.107508
0.10539
0.103191
0.100955
0.0987739
0.0969425
0.0955181
0.0946574
0.0945485
0.0952076
0.0966695
0.0983877
0.102921
0.109124
0.115473
0.121207
0.126008
0.129748
0.132442
0.134179
0.135079
0.135328
0.135083
0.134323
0.133894
0.130361
0.138624
0.121784
0.121721
0.121688
0.121409
0.120928
0.120272
0.119228
0.117967
0.116468
0.114415
0.111968
0.109404
0.106616
0.103395
0.0999638
0.096658
0.0934258
0.090035
0.0865841
0.083335
0.0803539
0.0774121
0.0744565
0.0715667
0.068755
0.0659768
0.0631951
0.0605314
0.0580691
0.0558009
0.0540076
0.0535973
0.0544209
0.0559958
0.0580271
0.0604117
0.0631275
0.0658441
0.0711598
0.128925
0.128823
0.128621
0.128296
0.127985
0.127537
0.126941
0.126179
0.125359
0.124516
0.123453
0.122211
0.120756
0.119334
0.11788
0.116354
0.114502
0.112094
0.109444
0.106487
0.103213
0.0997636
0.0966098
0.0939473
0.0919646
0.0910002
0.0911003
0.0941689
0.0993589
0.105508
0.112102
0.118705
0.125035
0.130855
0.136133
0.140761
0.145604
0.146675
0.157326
0.128979
0.128961
0.128931
0.128788
0.128521
0.128244
0.127691
0.126819
0.125976
0.12501
0.123563
0.121885
0.120256
0.118461
0.116222
0.11372
0.111365
0.109021
0.106382
0.103529
0.10081
0.0982521
0.0955518
0.0925917
0.0895127
0.086427
0.0832324
0.0798756
0.0764996
0.073181
0.069901
0.0667309
0.063804
0.0612715
0.0592795
0.0590476
0.0600411
0.0611296
0.0644985
0.132536
0.132499
0.132381
0.132147
0.131851
0.131642
0.13133
0.130875
0.130214
0.129609
0.129088
0.128316
0.127338
0.126169
0.12513
0.124005
0.122552
0.120815
0.118864
0.116925
0.114592
0.111717
0.108428
0.104976
0.101562
0.0981544
0.0949003
0.0923112
0.0909357
0.0909051
0.0941739
0.0996007
0.106661
0.114913
0.12399
0.133503
0.144056
0.152322
0.165967
0.132551
0.132548
0.132517
0.132401
0.132171
0.131915
0.131827
0.131333
0.130588
0.129996
0.129363
0.128283
0.127049
0.125985
0.124847
0.123245
0.121399
0.11978
0.118199
0.116249
0.114025
0.111912
0.109927
0.10764
0.104956
0.102148
0.0992937
0.0962617
0.0929763
0.0895847
0.0861605
0.0826757
0.0791463
0.0756017
0.07214
0.068884
0.0660996
0.0633945
0.0627938
0.134528
0.134518
0.13451
0.134422
0.134169
0.133848
0.133745
0.133594
0.133234
0.132625
0.132173
0.131937
0.131422
0.130626
0.129658
0.128964
0.128249
0.12712
0.125656
0.124054
0.122556
0.120703
0.118293
0.115534
0.112624
0.109603
0.106238
0.102636
0.0991011
0.0957827
0.0933213
0.0926747
0.0951891
0.100362
0.108226
0.118747
0.132471
0.147678
0.166103
0.134575
0.134593
0.134608
0.134541
0.134454
0.133993
0.133863
0.133876
0.133445
0.13277
0.132344
0.131939
0.131077
0.130096
0.129396
0.128673
0.127467
0.126024
0.124901
0.123859
0.122414
0.120652
0.119019
0.117492
0.115584
0.113269
0.110837
0.10836
0.105673
0.102676
0.0995175
0.0962795
0.0928991
0.0893767
0.0857306
0.0819765
0.0781339
0.0739898
0.067663
0.135874
0.135742
0.135699
0.135763
0.13575
0.135456
0.135079
0.135054
0.135056
0.134764
0.134131
0.133728
0.133709
0.13338
0.132627
0.131703
0.131206
0.130787
0.129835
0.128525
0.127203
0.126098
0.124643
0.122635
0.120465
0.118342
0.116216
0.11372
0.110626
0.107101
0.103353
0.099734
0.0968948
0.0967962
0.0996335
0.106101
0.117695
0.135679
0.159044
0.135934
0.135968
0.135961
0.135938
0.136062
0.135796
0.13519
0.135095
0.135187
0.134801
0.134175
0.133877
0.133635
0.132909
0.132092
0.131629
0.131191
0.130236
0.129042
0.128247
0.127584
0.126483
0.125024
0.123702
0.122513
0.120947
0.118964
0.116887
0.114788
0.112467
0.109806
0.106961
0.104008
0.100857
0.0975037
0.0939245
0.0900318
0.0859627
0.077501
0.136894
0.136809
0.13655
0.136445
0.136592
0.136691
0.136391
0.135938
0.135958
0.136133
0.135921
0.135227
0.134823
0.135007
0.134864
0.134115
0.133176
0.132844
0.132696
0.131857
0.130608
0.12948
0.128629
0.127491
0.12597
0.124551
0.123278
0.121922
0.12016
0.117942
0.115341
0.112128
0.108235
0.104606
0.102465
0.102826
0.107817
0.121953
0.146963
0.136854
0.136804
0.136708
0.136627
0.13663
0.137012
0.136676
0.136006
0.135936
0.136089
0.135745
0.135163
0.134962
0.13484
0.134211
0.133495
0.133202
0.132971
0.132184
0.131137
0.130565
0.130174
0.129304
0.128017
0.126897
0.125984
0.124694
0.122978
0.121196
0.119425
0.117435
0.115094
0.112561
0.109907
0.107015
0.103861
0.100273
0.0965994
0.0881772
0.1374
0.137572
0.137535
0.137167
0.136963
0.137172
0.13742
0.137156
0.136598
0.136624
0.136973
0.136843
0.136062
0.135605
0.135968
0.136009
0.135227
0.134217
0.134012
0.134091
0.133323
0.132128
0.131201
0.130697
0.130043
0.129017
0.128077
0.127255
0.126356
0.125195
0.123683
0.121752
0.119126
0.115735
0.111941
0.10845
0.106991
0.112605
0.133636
0.137296
0.137304
0.137297
0.137247
0.136809
0.137112
0.137644
0.137304
0.136599
0.136543
0.136751
0.136451
0.135903
0.135777
0.135755
0.135191
0.13454
0.134371
0.134305
0.133631
0.132672
0.132251
0.132061
0.131342
0.130152
0.129184
0.128488
0.127417
0.125909
0.124361
0.122858
0.121148
0.119087
0.11683
0.114445
0.111793
0.108675
0.105485
0.0978298
0.137605
0.137719
0.138032
0.138124
0.137729
0.137389
0.13762
0.138024
0.137819
0.137146
0.137144
0.137664
0.137636
0.136766
0.136231
0.136765
0.137021
0.136236
0.135145
0.135048
0.135384
0.134803
0.133786
0.133152
0.132963
0.13255
0.131745
0.131099
0.130592
0.129959
0.129099
0.128012
0.126588
0.124502
0.1215
0.11751
0.113113
0.110733
0.123206
0.137773
0.137957
0.13807
0.138245
0.137793
0.137146
0.137497
0.138106
0.137784
0.137052
0.13701
0.137268
0.13701
0.136488
0.136424
0.136483
0.135967
0.135356
0.135282
0.13535
0.13476
0.133844
0.133527
0.133483
0.132868
0.131745
0.130888
0.130365
0.129467
0.128118
0.12675
0.125464
0.123983
0.122156
0.120126
0.117975
0.115369
0.112701
0.10604
0.138249
0.137905
0.137913
0.138343
0.138647
0.138279
0.137781
0.137979
0.138533
0.138413
0.137625
0.137576
0.138284
0.138409
0.13747
0.136836
0.137543
0.138065
0.137316
0.136195
0.136274
0.136831
0.136323
0.135431
0.135047
0.135013
0.134699
0.134099
0.13367
0.133301
0.132808
0.132196
0.131423
0.130296
0.128542
0.125666
0.121516
0.115076
0.118239
0.138504
0.138477
0.13848
0.138604
0.138964
0.138213
0.137431
0.137788
0.138459
0.138166
0.137421
0.137394
0.137695
0.137472
0.136972
0.136959
0.137089
0.136609
0.136019
0.136018
0.136204
0.135674
0.134772
0.134515
0.134583
0.134058
0.132979
0.132203
0.131814
0.131057
0.129831
0.128601
0.127491
0.126193
0.124552
0.12272
0.120601
0.11846
0.11281
0.138946
0.138751
0.138278
0.138102
0.138564
0.139106
0.1388
0.138135
0.138282
0.138992
0.13898
0.138087
0.137997
0.138901
0.139195
0.138207
0.137495
0.138358
0.139087
0.138293
0.137205
0.137457
0.138055
0.137552
0.136824
0.136623
0.136644
0.136411
0.135973
0.135683
0.135441
0.135109
0.13466
0.134061
0.133187
0.131512
0.128831
0.122316
0.118695
0.138711
0.138433
0.138332
0.138122
0.138791
0.139329
0.138529
0.137669
0.138021
0.138744
0.138487
0.13774
0.137726
0.138064
0.137874
0.137386
0.137416
0.137613
0.137162
0.136577
0.136629
0.136918
0.136435
0.135519
0.135294
0.135458
0.135012
0.133962
0.133242
0.13296
0.132318
0.13119
0.13007
0.129103
0.127943
0.12647
0.124654
0.123054
0.118488
0.138769
0.139224
0.139287
0.13872
0.138299
0.138731
0.139486
0.139269
0.13846
0.138554
0.139399
0.139513
0.138547
0.138377
0.139384
0.139792
0.138761
0.137971
0.138921
0.13974
0.138913
0.137941
0.138284
0.138857
0.138428
0.137867
0.13778
0.13783
0.137677
0.137389
0.137236
0.137099
0.13688
0.136579
0.136188
0.135318
0.133974
0.129478
0.122761
0.138432
0.138494
0.138624
0.138289
0.138039
0.13893
0.139594
0.138799
0.137886
0.138217
0.138986
0.138771
0.13803
0.138027
0.138397
0.138236
0.137753
0.137818
0.13808
0.137654
0.137058
0.13714
0.137518
0.13707
0.136129
0.13592
0.136164
0.135794
0.134761
0.13408
0.133883
0.133338
0.132293
0.131271
0.130414
0.129402
0.128057
0.126886
0.123458
0.138493
0.138744
0.139396
0.139758
0.139183
0.138514
0.138851
0.139775
0.13968
0.13876
0.138748
0.139676
0.139921
0.138914
0.138627
0.13968
0.140197
0.139144
0.138264
0.139281
0.140117
0.139296
0.138461
0.138837
0.139368
0.139015
0.138591
0.138594
0.13867
0.138597
0.138434
0.138386
0.138352
0.138254
0.138136
0.137733
0.13719
0.135034
0.128236
0.138766
0.139215
0.139381
0.13951
0.138525
0.138102
0.139042
0.139807
0.139047
0.138088
0.138393
0.139207
0.139038
0.138303
0.138307
0.138703
0.138571
0.138083
0.138173
0.138498
0.138093
0.137472
0.137561
0.138016
0.137604
0.136638
0.136431
0.136739
0.136447
0.135431
0.134776
0.13465
0.134193
0.13324
0.132391
0.131731
0.13095
0.130291
0.127707
0.139201
0.138737
0.138714
0.139482
0.140135
0.139599
0.138686
0.138888
0.139982
0.140038
0.139027
0.138869
0.139839
0.140212
0.139179
0.138771
0.139849
0.140472
0.139408
0.138483
0.139534
0.140324
0.139536
0.138847
0.139225
0.139691
0.139405
0.139106
0.139175
0.139268
0.139259
0.139208
0.139259
0.139315
0.139367
0.139275
0.139089
0.138676
0.133457
0.139597
0.139594
0.13942
0.139942
0.139885
0.138704
0.138174
0.139142
0.139994
0.139275
0.13828
0.138569
0.139427
0.139294
0.138558
0.138562
0.138989
0.138885
0.138382
0.138479
0.138864
0.13848
0.137828
0.137906
0.138425
0.138064
0.13708
0.136866
0.137219
0.137017
0.136049
0.135415
0.135373
0.135072
0.134344
0.133789
0.13335
0.133031
0.13121
0.139927
0.139739
0.139095
0.138699
0.139452
0.140395
0.139939
0.138827
0.138879
0.140101
0.140327
0.139247
0.138941
0.139925
0.14042
0.139382
0.138862
0.139948
0.140664
0.139593
0.138699
0.139734
0.140428
0.139701
0.139156
0.139514
0.139902
0.139681
0.139487
0.139602
0.139708
0.139761
0.13981
0.139932
0.140117
0.140222
0.1402
0.14074
0.137606
0.139582
0.139096
0.138911
0.139049
0.140031
0.140101
0.138878
0.138275
0.139245
0.140162
0.139476
0.138478
0.138754
0.139641
0.139536
0.138785
0.138785
0.139252
0.139178
0.138647
0.138733
0.139174
0.138826
0.138144
0.13819
0.138765
0.138492
0.137507
0.137274
0.137653
0.137589
0.136777
0.136186
0.136282
0.136194
0.135707
0.135267
0.135097
0.133918
0.139469
0.14012
0.140253
0.139388
0.138659
0.139371
0.140568
0.140244
0.138968
0.138854
0.140151
0.140543
0.139437
0.138987
0.139962
0.140567
0.13955
0.138929
0.140006
0.140784
0.139716
0.13892
0.139893
0.140471
0.139827
0.139418
0.139745
0.14005
0.139892
0.139788
0.139934
0.140059
0.140166
0.140294
0.140523
0.140778
0.140836
0.14176
0.140453
0.139012
0.138963
0.139166
0.138702
0.138965
0.140101
0.140287
0.139071
0.1384
0.13934
0.140304
0.139661
0.138668
0.138923
0.139832
0.139755
0.138978
0.138969
0.139489
0.139443
0.138876
0.138932
0.139431
0.139147
0.138431
0.138429
0.139062
0.138939
0.137976
0.137701
0.138145
0.138262
0.137569
0.137071
0.137302
0.137314
0.136899
0.136652
0.135901
0.139016
0.139298
0.140186
0.140579
0.13967
0.138641
0.139279
0.140675
0.140507
0.139115
0.138823
0.140153
0.140703
0.139608
0.139024
0.139966
0.140667
0.139693
0.138989
0.140043
0.140793
0.139787
0.13914
0.140014
0.140475
0.139927
0.139648
0.139937
0.140165
0.140068
0.140039
0.140209
0.140356
0.140513
0.140745
0.141052
0.141206
0.142162
0.142163
0.139294
0.139724
0.139995
0.139672
0.138782
0.138954
0.140157
0.140444
0.139263
0.138514
0.13942
0.140433
0.13983
0.13882
0.139049
0.139993
0.139951
0.139142
0.139111
0.139681
0.139671
0.139067
0.139085
0.139638
0.139438
0.138692
0.138647
0.139337
0.139329
0.138413
0.13815
0.138712
0.138915
0.138258
0.137865
0.138164
0.138179
0.137883
0.1373
0.139722
0.13912
0.139093
0.140162
0.140831
0.139933
0.138659
0.139169
0.140723
0.140725
0.139268
0.138798
0.140118
0.14082
0.139768
0.139062
0.139949
0.140733
0.13982
0.13906
0.140083
0.140732
0.139841
0.139359
0.140106
0.140455
0.14001
0.139847
0.140095
0.140263
0.140226
0.14026
0.140448
0.140624
0.140856
0.141181
0.141387
0.142254
0.143018
0.140084
0.140136
0.140022
0.140416
0.139883
0.138871
0.13896
0.140201
0.140569
0.139416
0.138605
0.13949
0.140557
0.139985
0.13894
0.139131
0.140122
0.140122
0.139282
0.139212
0.13982
0.13986
0.139226
0.139209
0.1398
0.13967
0.138923
0.138858
0.139604
0.139632
0.138763
0.138538
0.139195
0.139398
0.138774
0.138496
0.138787
0.138821
0.13833
0.140376
0.140121
0.139248
0.138958
0.140068
0.141003
0.140161
0.138708
0.139063
0.140717
0.140909
0.139424
0.138785
0.140058
0.140903
0.139921
0.139106
0.139919
0.140771
0.139931
0.139194
0.140131
0.140646
0.139897
0.139558
0.140176
0.140429
0.140088
0.140016
0.140227
0.140359
0.140377
0.140463
0.140667
0.140901
0.141214
0.141467
0.142192
0.143319
0.140037
0.139637
0.139406
0.139878
0.140495
0.140047
0.138981
0.138984
0.140233
0.140678
0.139542
0.13868
0.139548
0.140666
0.140129
0.139036
0.139186
0.140217
0.140266
0.1394
0.139282
0.139912
0.140008
0.139362
0.139312
0.139921
0.139838
0.139111
0.139061
0.139844
0.139873
0.139035
0.138841
0.139547
0.139719
0.139146
0.13897
0.139251
0.139098
0.139916
0.140527
0.140476
0.139376
0.138852
0.139954
0.141098
0.14038
0.138788
0.138969
0.140673
0.141056
0.139585
0.138783
0.139981
0.140957
0.140066
0.139158
0.139883
0.140779
0.140021
0.13937
0.140176
0.140556
0.139956
0.139741
0.140235
0.140406
0.140163
0.14016
0.140344
0.140455
0.140523
0.140654
0.140899
0.141202
0.141468
0.14208
0.143293
0.139474
0.139391
0.139432
0.139244
0.139827
0.140552
0.140201
0.139089
0.139006
0.140262
0.140774
0.139652
0.138739
0.139589
0.140753
0.140249
0.139114
0.139217
0.140282
0.140382
0.139498
0.139329
0.139971
0.140122
0.139485
0.139408
0.140014
0.139965
0.139267
0.139232
0.140028
0.140057
0.139243
0.139092
0.139795
0.139921
0.139421
0.13936
0.139478
0.139392
0.139763
0.14059
0.140684
0.139541
0.138798
0.139839
0.141147
0.140575
0.138894
0.138886
0.140602
0.141171
0.139748
0.138795
0.139893
0.140985
0.140204
0.139218
0.139844
0.140735
0.140087
0.139558
0.14021
0.140477
0.140017
0.139905
0.140285
0.140395
0.140241
0.140285
0.14045
0.140558
0.14067
0.140859
0.141155
0.141433
0.141943
0.143098
0.139616
0.139916
0.140097
0.139642
0.139259
0.139789
0.140599
0.140319
0.139177
0.139027
0.140292
0.140852
0.139748
0.13879
0.139612
0.140815
0.14035
0.139181
0.139234
0.140323
0.140478
0.139583
0.139361
0.140007
0.14021
0.139593
0.139492
0.140088
0.140065
0.139394
0.13936
0.140157
0.140193
0.139408
0.13931
0.139965
0.140038
0.139651
0.139601
0.139839
0.139376
0.139592
0.140569
0.140855
0.139715
0.13879
0.139711
0.141157
0.140745
0.13902
0.138822
0.14051
0.14126
0.139909
0.138822
0.139801
0.140991
0.140332
0.13929
0.139813
0.140638
0.140135
0.139732
0.140233
0.140411
0.140077
0.140048
0.140328
0.140399
0.140321
0.140396
0.140552
0.140668
0.140834
0.141087
0.141365
0.141811
0.142825
0.140214
0.140262
0.140262
0.14034
0.139749
0.139278
0.13976
0.140634
0.140411
0.139252
0.139057
0.140311
0.140916
0.139833
0.138836
0.139622
0.140858
0.140438
0.139239
0.13924
0.140345
0.140556
0.139659
0.139384
0.140025
0.140279
0.139685
0.13956
0.140142
0.140146
0.139499
0.139457
0.140249
0.14028
0.139546
0.139511
0.140079
0.140109
0.139806
0.14041
0.140051
0.13939
0.139495
0.14051
0.140977
0.139879
0.138807
0.139597
0.141134
0.140899
0.139159
0.138777
0.140406
0.141323
0.140069
0.138862
0.139709
0.140979
0.14045
0.139381
0.139805
0.140527
0.140176
0.139882
0.14025
0.14036
0.140137
0.140165
0.140367
0.140418
0.140403
0.1405
0.140651
0.140799
0.141026
0.141285
0.141673
0.142543
0.140218
0.139982
0.139899
0.140251
0.140397
0.139849
0.139305
0.139748
0.140652
0.140485
0.139321
0.139085
0.140319
0.140963
0.139912
0.138877
0.139623
0.140883
0.140516
0.139294
0.139239
0.140351
0.140624
0.139731
0.139403
0.140033
0.140334
0.139764
0.139612
0.140178
0.14021
0.139586
0.139535
0.140309
0.14032
0.139669
0.139702
0.140161
0.140141
0.140179
0.14053
0.14025
0.13945
0.139411
0.140433
0.141042
0.140043
0.138853
0.139498
0.14109
0.141029
0.139308
0.138746
0.140295
0.141363
0.140224
0.138914
0.139622
0.14095
0.140557
0.139519
0.139822
0.140423
0.14021
0.14001
0.140264
0.140325
0.140195
0.140259
0.140405
0.140451
0.140486
0.140597
0.140764
0.140962
0.141201
0.141547
0.142278
0.139857
0.139767
0.139756
0.139818
0.140228
0.14045
0.139938
0.13934
0.139741
0.140664
0.140542
0.139387
0.139106
0.14032
0.140999
0.139987
0.138917
0.139615
0.140897
0.140587
0.139348
0.139232
0.140345
0.140681
0.1398
0.139421
0.140033
0.140379
0.139835
0.139654
0.140202
0.140263
0.139663
0.139612
0.140345
0.140324
0.139789
0.13989
0.140211
0.139807
0.140121
0.140604
0.140366
0.139545
0.139356
0.140348
0.141081
0.140193
0.138923
0.139403
0.141025
0.141136
0.139463
0.138732
0.14018
0.141381
0.140372
0.138979
0.139542
0.140903
0.140611
0.139669
0.13985
0.140332
0.140232
0.140115
0.140276
0.140307
0.140251
0.140335
0.140446
0.140495
0.140568
0.140702
0.140902
0.141119
0.141424
0.142052
0.139844
0.139981
0.140004
0.139799
0.139812
0.140206
0.140495
0.140008
0.13938
0.139737
0.140671
0.14059
0.139449
0.139128
0.140311
0.141028
0.140057
0.138956
0.139599
0.140898
0.140652
0.139403
0.139221
0.140328
0.140728
0.139867
0.139436
0.140027
0.140414
0.1399
0.139689
0.140218
0.140305
0.139736
0.139711
0.140363
0.140307
0.139916
0.140042
0.139925
0.139787
0.14005
0.1406
0.140478
0.139644
0.139335
0.140254
0.14109
0.140329
0.139006
0.139322
0.140942
0.141222
0.139617
0.138734
0.140065
0.141379
0.140509
0.139054
0.139473
0.140809
0.140628
0.139807
0.139884
0.140265
0.140251
0.140194
0.140285
0.140309
0.140308
0.140395
0.140489
0.14055
0.140658
0.140827
0.141039
0.141313
0.141854
0.140139
0.140236
0.140236
0.140106
0.139847
0.139801
0.140192
0.140525
0.140068
0.13942
0.139741
0.140669
0.140632
0.139509
0.139149
0.140294
0.141046
0.140125
0.138996
0.139577
0.140889
0.140713
0.13946
0.13921
0.140304
0.140768
0.139932
0.139452
0.140015
0.140441
0.139961
0.139721
0.140227
0.140332
0.139817
0.139827
0.140366
0.140285
0.140029
0.140244
0.14001
0.139773
0.140001
0.140571
0.140562
0.139744
0.139328
0.140165
0.141075
0.140455
0.139102
0.139257
0.140848
0.141285
0.13977
0.138752
0.139953
0.141357
0.140634
0.139139
0.139458
0.140703
0.140627
0.139933
0.139931
0.140225
0.140267
0.140253
0.140299
0.140323
0.140359
0.140448
0.140538
0.140617
0.140765
0.140956
0.141205
0.141687
0.14028
0.14018
0.14017
0.140266
0.140156
0.13989
0.1398
0.140184
0.140541
0.140119
0.139463
0.139745
0.140662
0.140664
0.139568
0.139167
0.140271
0.141056
0.14019
0.139037
0.139549
0.14087
0.14077
0.139519
0.139201
0.140273
0.1408
0.139996
0.13947
0.139998
0.140462
0.140019
0.139752
0.140228
0.140327
0.139899
0.139949
0.140357
0.140278
0.140298
0.140321
0.140091
0.139794
0.139952
0.140534
0.140616
0.139849
0.139342
0.140084
0.141047
0.140566
0.13921
0.139206
0.140747
0.141327
0.139919
0.138786
0.139849
0.14132
0.140742
0.139262
0.139491
0.140601
0.140612
0.14004
0.139987
0.140211
0.140285
0.140295
0.140316
0.140349
0.140412
0.140497
0.140591
0.140704
0.140878
0.141102
0.141527
0.140135
0.140065
0.140072
0.140149
0.140271
0.140205
0.139929
0.139809
0.140174
0.140551
0.140159
0.139503
0.139745
0.140649
0.140691
0.139626
0.139187
0.140239
0.141058
0.140254
0.13908
0.139517
0.140841
0.140821
0.139582
0.139195
0.140236
0.140824
0.140059
0.139489
0.139978
0.140477
0.140074
0.139788
0.140218
0.140299
0.139985
0.140069
0.140355
0.140124
0.140302
0.140378
0.140147
0.139825
0.13992
0.140487
0.140659
0.139949
0.139375
0.14001
0.141006
0.140661
0.139326
0.139173
0.140643
0.14135
0.140062
0.138835
0.139755
0.141268
0.140798
0.139403
0.139547
0.140502
0.140579
0.140122
0.140043
0.140214
0.140303
0.140327
0.14034
0.140383
0.14046
0.140547
0.140662
0.140803
0.141002
0.14138
0.140068
0.140034
0.140028
0.140065
0.140138
0.140276
0.140245
0.139964
0.13982
0.140164
0.140554
0.140193
0.139539
0.139747
0.14063
0.140715
0.139682
0.139207
0.140202
0.141053
0.140316
0.139127
0.13948
0.140805
0.140866
0.139648
0.139191
0.140195
0.14084
0.140123
0.139511
0.139957
0.140484
0.14013
0.139848
0.140207
0.140265
0.140072
0.140165
0.140082
0.140118
0.140292
0.14039
0.140205
0.139866
0.139907
0.140438
0.140684
0.140043
0.139421
0.139949
0.140952
0.140742
0.139445
0.139157
0.140537
0.141354
0.140196
0.138898
0.139676
0.141182
0.140793
0.13954
0.139609
0.140412
0.140528
0.140178
0.140095
0.14023
0.140321
0.140353
0.140369
0.140421
0.14051
0.140608
0.140743
0.140912
0.141235
0.14008
0.140181
0.140141
0.140056
0.140072
0.140127
0.14028
0.14027
0.139994
0.139829
0.140158
0.140552
0.140224
0.139576
0.139746
0.140608
0.140732
0.13974
0.139226
0.140159
0.141039
0.140377
0.139177
0.139443
0.140762
0.140905
0.139717
0.139193
0.140149
0.140849
0.140186
0.139535
0.139934
0.140484
0.140186
0.139924
0.140198
0.140237
0.140142
0.140121
0.140098
0.140109
0.140268
0.140396
0.14026
0.139918
0.139901
0.140391
0.140689
0.140132
0.139478
0.139897
0.140891
0.140804
0.139564
0.139157
0.140435
0.141342
0.140319
0.138974
0.139637
0.14106
0.140759
0.139675
0.139687
0.140342
0.140473
0.140216
0.140139
0.140252
0.140339
0.140376
0.140404
0.140463
0.140566
0.14068
0.140834
0.141105
0.140261
0.140327
0.140314
0.140175
0.140083
0.140077
0.14012
0.140282
0.140288
0.140019
0.139843
0.140151
0.140549
0.140251
0.139614
0.139744
0.14058
0.140746
0.139799
0.139247
0.140111
0.141018
0.140438
0.139229
0.139411
0.14071
0.140938
0.139788
0.1392
0.140098
0.140852
0.140248
0.139563
0.139909
0.140461
0.140236
0.140005
0.140196
0.14023
0.140307
0.140169
0.140112
0.140107
0.140241
0.140396
0.1403
0.13997
0.139903
0.140344
0.140684
0.140209
0.13954
0.139852
0.140823
0.140851
0.139682
0.139172
0.140337
0.141317
0.140427
0.139075
0.139661
0.140937
0.140722
0.139807
0.139781
0.140298
0.140423
0.14024
0.140178
0.140277
0.140358
0.140398
0.14044
0.140511
0.14063
0.140761
0.140987
0.140356
0.140245
0.140264
0.14031
0.140205
0.140107
0.140082
0.140118
0.140281
0.140302
0.140041
0.139858
0.140144
0.140541
0.140278
0.139652
0.139743
0.140548
0.140756
0.139858
0.139271
0.140059
0.140991
0.140494
0.139286
0.13938
0.140651
0.140964
0.139861
0.139212
0.140045
0.14085
0.140309
0.139598
0.139892
0.140424
0.140278
0.140084
0.140213
0.140353
0.140348
0.140217
0.140129
0.140113
0.140222
0.140386
0.140331
0.14002
0.139913
0.140301
0.140668
0.140276
0.139607
0.139818
0.140753
0.140882
0.139795
0.139201
0.140247
0.141279
0.140503
0.139223
0.139717
0.140816
0.140674
0.139924
0.139881
0.140276
0.140384
0.140257
0.140214
0.140303
0.140378
0.140422
0.140482
0.140569
0.140699
0.140887
0.1402
0.140064
0.140073
0.140233
0.140307
0.140231
0.140128
0.14009
0.140118
0.14028
0.140311
0.140063
0.139873
0.140138
0.140531
0.140305
0.139692
0.139741
0.140511
0.140761
0.139918
0.139298
0.140005
0.140959
0.140544
0.139349
0.139354
0.140589
0.140982
0.139937
0.139228
0.139992
0.14084
0.14037
0.13965
0.13989
0.140381
0.140307
0.14015
0.140174
0.140341
0.140367
0.140248
0.140152
0.140124
0.140208
0.140371
0.140353
0.140068
0.139929
0.140264
0.140645
0.140335
0.139678
0.139795
0.140682
0.140899
0.139903
0.139241
0.140167
0.141222
0.140518
0.139374
0.139769
0.140693
0.140606
0.140015
0.139974
0.140269
0.140356
0.140272
0.140248
0.140329
0.1404
0.14045
0.140529
0.140633
0.140799
0.14005
0.140101
0.140055
0.140069
0.140219
0.1403
0.140249
0.140148
0.140099
0.140117
0.140276
0.140319
0.140086
0.139892
0.140132
0.14052
0.140329
0.139734
0.13974
0.14047
0.140762
0.139981
0.139327
0.139953
0.140922
0.140593
0.139417
0.139335
0.140523
0.140995
0.140013
0.139251
0.139941
0.140823
0.14042
0.139721
0.139905
0.140339
0.140317
0.140069
0.140156
0.140311
0.140364
0.140273
0.140173
0.140139
0.140198
0.140356
0.140367
0.140116
0.139951
0.140234
0.140616
0.140384
0.13975
0.139783
0.140613
0.140904
0.140004
0.139291
0.140108
0.141106
0.140497
0.139517
0.139824
0.140578
0.140528
0.140084
0.14005
0.140271
0.140336
0.140286
0.140282
0.140355
0.140427
0.140486
0.140585
0.140718
0.1402
0.140432
0.140361
0.1401
0.140081
0.140205
0.14029
0.140266
0.140165
0.140106
0.140118
0.140271
0.140325
0.140108
0.139911
0.140124
0.140505
0.140352
0.139777
0.13974
0.140429
0.14076
0.140045
0.13936
0.139907
0.14088
0.14064
0.139489
0.139325
0.140455
0.141002
0.140089
0.139281
0.139894
0.140789
0.140448
0.1398
0.139941
0.140304
0.140275
0.140099
0.14014
0.140284
0.140354
0.140294
0.140198
0.140157
0.140196
0.140342
0.140377
0.14016
0.139978
0.140209
0.140584
0.140424
0.139822
0.139782
0.140547
0.140899
0.140094
0.139355
0.140097
0.140981
0.140479
0.139663
0.139896
0.140484
0.140453
0.140132
0.14011
0.140275
0.140323
0.1403
0.140315
0.140381
0.140457
0.140532
0.140651
0.140494
0.140427
0.140455
0.140378
0.140145
0.140093
0.140192
0.140281
0.140275
0.14018
0.140114
0.14012
0.140265
0.140328
0.14013
0.13993
0.140117
0.140487
0.140373
0.139821
0.139742
0.140387
0.140756
0.140106
0.139401
0.139865
0.140834
0.140679
0.139567
0.139322
0.140386
0.141002
0.140163
0.13932
0.139859
0.140732
0.140453
0.139886
0.13999
0.140499
0.140334
0.140142
0.140137
0.140263
0.140342
0.140308
0.140225
0.140176
0.1402
0.140328
0.14038
0.1402
0.140009
0.140191
0.14055
0.140455
0.139893
0.139792
0.140487
0.140885
0.140167
0.139475
0.140116
0.140863
0.14046
0.139801
0.139977
0.140412
0.140392
0.140166
0.140158
0.140281
0.140317
0.140314
0.140346
0.14041
0.140497
0.140587
0.140347
0.140069
0.140142
0.140405
0.140391
0.140183
0.140104
0.140183
0.14027
0.140279
0.140192
0.140123
0.140123
0.140259
0.14033
0.140151
0.13995
0.140108
0.140466
0.140392
0.139868
0.139747
0.140344
0.140746
0.140164
0.139449
0.139827
0.140784
0.14071
0.139649
0.139327
0.140318
0.140994
0.140235
0.139375
0.139852
0.140662
0.140443
0.139969
0.140279
0.140476
0.140384
0.140186
0.140149
0.140248
0.140327
0.140319
0.14025
0.140198
0.140206
0.140316
0.140381
0.140239
0.140044
0.140179
0.140518
0.140479
0.139961
0.139809
0.140434
0.140858
0.140205
0.139603
0.14013
0.140746
0.14043
0.13992
0.140053
0.140363
0.140347
0.140193
0.140194
0.140287
0.140317
0.14033
0.140376
0.140446
0.140538
0.14001
0.139991
0.139975
0.140113
0.140366
0.140392
0.14021
0.140115
0.140177
0.140259
0.140282
0.140204
0.140132
0.140128
0.140253
0.140331
0.140171
0.139971
0.140101
0.140443
0.140408
0.139917
0.139755
0.140303
0.140729
0.14022
0.139502
0.139796
0.140728
0.140736
0.139732
0.139341
0.140252
0.140977
0.140298
0.139462
0.139874
0.140586
0.140421
0.140007
0.140219
0.140434
0.140407
0.140228
0.140165
0.140239
0.140314
0.140325
0.140273
0.140223
0.14022
0.140307
0.140379
0.140273
0.140081
0.140174
0.140487
0.140496
0.140024
0.139833
0.140392
0.140785
0.14022
0.13972
0.140142
0.140632
0.140389
0.140017
0.140115
0.14033
0.140314
0.140214
0.140224
0.140293
0.140324
0.140347
0.140412
0.140482
0.140095
0.140392
0.140276
0.140029
0.140099
0.140326
0.140383
0.140231
0.140128
0.140174
0.140251
0.140282
0.140215
0.140143
0.140133
0.140246
0.140331
0.140192
0.139994
0.140096
0.14042
0.140422
0.139967
0.139769
0.140265
0.140705
0.140273
0.139561
0.139774
0.140669
0.140755
0.139816
0.139366
0.14019
0.140947
0.140333
0.139566
0.139915
0.140509
0.140186
0.14003
0.140164
0.140394
0.140413
0.140267
0.140187
0.140237
0.140306
0.140328
0.14029
0.140245
0.140233
0.1403
0.140374
0.1403
0.140117
0.140173
0.140459
0.140506
0.140082
0.139865
0.140364
0.140699
0.140235
0.13983
0.140159
0.140531
0.14035
0.140089
0.140162
0.140306
0.140292
0.140232
0.140247
0.140299
0.140335
0.140374
0.140441
0.140498
0.140602
0.140563
0.140328
0.140072
0.140093
0.140292
0.140371
0.140249
0.140142
0.140173
0.140244
0.140282
0.140226
0.140154
0.14014
0.140239
0.140329
0.140213
0.140019
0.140095
0.140396
0.140434
0.140016
0.139791
0.140229
0.140678
0.14032
0.139625
0.139759
0.140609
0.140764
0.139898
0.139401
0.140137
0.140878
0.140341
0.13968
0.139957
0.140537
0.140272
0.140071
0.140143
0.140352
0.140409
0.1403
0.140216
0.140241
0.140301
0.140327
0.140303
0.140266
0.140246
0.140296
0.140367
0.140321
0.140152
0.140175
0.140433
0.140509
0.14013
0.139924
0.140349
0.140623
0.140249
0.139932
0.140183
0.140451
0.140319
0.140139
0.140195
0.14029
0.140279
0.140245
0.140266
0.140308
0.140355
0.140395
0.140507
0.140213
0.140319
0.140515
0.140364
0.140117
0.140095
0.140265
0.140357
0.140263
0.140156
0.140175
0.140237
0.14028
0.140236
0.140168
0.140148
0.140233
0.140326
0.140233