/*--------------------------------*- C++ -*----------------------------------*\
| =========                 |                                                 |
| \\      /  F ield         | OpenFOAM: The Open Source CFD Toolbox           |
|  \\    /   O peration     | Version:  3.0.0                                 |
|   \\  /    A nd           | Web:      www.OpenFOAM.org                      |
|    \\/     M anipulation  |                                                 |
\*---------------------------------------------------------------------------*/
FoamFile
{
    version     2.0;
    format      ascii;
    class       volScalarField;
    location    "50";
    object      p;
}
// * * * * * * * * * * * * * * * * * * * * * * * * * * * * * * * * * * * * * //

dimensions      [0 2 -2 0 0 0 0];

internalField   nonuniform List<scalar> 
10720
(
-4.38345
-74.2993
-149.957
-224.491
-298.883
-377.36
-448.232
-508.124
-560.428
-603.019
-637.878
-666.307
-688.522
-704.321
-713.464
-715.365
-711.116
-699.981
-683.718
-661.859
-635.537
-603.78
-568.005
-528.829
-489.593
-454.926
-423.891
-392.667
-359.999
-325.139
-288.694
-252.605
-218.122
-185.315
-153.864
-120.744
-85.6529
-44.3336
-8.78846
57.6107
113.719
170.914
222.704
263.974
290.127
300.397
299.374
287.474
266.247
240.683
214.546
189.344
165.91
144.768
125.24
107.225
90.1796
73.7812
57.4381
41.0563
24.2556
7.17907
-9.67424
-24.1273
-35.0915
-43.912
-51.1367
-56.7979
-60.6053
-62.384
-62.1294
-59.916
-56.0979
-51.1599
-44.8858
-36.9361
-23.1309
0.441235
63.7667
14.2281
-41.1437
-100.813
-164.001
-230.009
-294.512
-354.999
-411.067
-461.762
-507.006
-546.604
-580.214
-607.372
-627.455
-639.765
-644.656
-642.481
-634.372
-620.337
-601.072
-576.075
-546.369
-512.771
-478.182
-446.52
-417.303
-387.435
-355.83
-321.876
-286.241
-250.831
-216.853
-184.381
-153.142
-120.188
-85.2604
-43.9993
-9.33247
107.336
148.135
187.8
224.812
255.558
277.108
287.765
287.984
278.691
262.104
241.245
218.619
195.704
173.459
152.492
132.735
114.153
96.4826
79.463
62.6739
45.9702
29.0797
12.1153
-4.4234
-18.8606
-30.2574
-39.5724
-47.2803
-53.3874
-57.6238
-59.8089
-59.9496
-58.1227
-54.6574
-50.0011
-43.9173
-36.0796
-22.3029
0.258785
72.1507
28.2394
-21.9218
-77.4947
-135.852
-196.739
-258.311
-317.956
-374.236
-426.235
-472.933
-513.863
-548.647
-576.881
-598.021
-611.888
-618.781
-619.047
-613.262
-601.586
-584.443
-561.771
-534.408
-503.365
-471.017
-440.555
-411.989
-382.838
-351.996
-318.861
-284.062
-249.359
-215.842
-183.595
-152.46
-119.624
-84.8769
-43.7978
-9.38578
110.952
147.66
183.173
215.741
242.376
261.358
271.732
273.508
267.15
254.15
236.551
216.39
195.178
173.985
153.533
134.042
115.55
97.9155
80.9198
64.2413
47.6813
31.0563
14.4393
-1.73271
-16.1344
-27.8346
-37.406
-45.2975
-51.5457
-55.9185
-58.2655
-58.6148
-57.0287
-53.7924
-49.2992
-43.2877
-35.4465
-21.7147
0.00955498
82.0507
45.0242
2.3448
-44.9635
-95.2205
-148.554
-203.438
-258.012
-310.924
-361.049
-407.332
-449.141
-485.916
-517.177
-542.374
-561.19
-573.604
-579.481
-578.981
-572.231
-559.536
-541.091
-517.662
-490.307
-461.003
-432.435
-405.039
-376.956
-347.175
-315.159
-281.475
-247.685
-214.731
-182.731
-151.687
-118.993
-84.5016
-43.7373
-9.40944
114.771
145.606
175.733
203.84
227.149
244.324
254.571
257.596
253.582
243.632
229.259
212.057
193.306
173.983
154.811
136.141
118.098
100.681
83.7599
67.125
50.6236
34.1295
17.7164
1.77256
-12.6259
-24.5804
-34.4119
-42.5282
-48.9834
-53.5861
-56.2119
-56.8931
-55.6651
-52.7511
-48.4813
-42.5753
-34.7532
-21.1174
-0.205633
82.4495
49.6825
11.6877
-30.7452
-75.9163
-124.309
-174.562
-225.149
-275.072
-323.178
-368.427
-410.088
-447.513
-480.085
-507.234
-528.497
-543.481
-552.019
-554.081
-549.843
-539.628
-523.791
-503.042
-478.381
-451.425
-424.383
-397.939
-370.78
-342.036
-311.182
-278.685
-245.872
-213.509
-181.748
-150.79
-118.264
-84.1114
-43.7714
-9.66991
111.498
138.727
165.493
190.54
211.437
227.303
237.439
241.401
239.283
231.869
220.287
205.778
189.368
171.932
154.154
136.457
119.061
102.048
85.3961
68.9817
52.6976
36.4691
20.3555
4.71402
-9.57358
-21.6757
-31.702
-39.9942
-46.6178
-51.4186
-54.2958
-55.2813
-54.3807
-51.7556
-47.6767
-41.8473
-34.0308
-20.5079
-0.432146
80.3937
51.2662
17.3704
-20.4804
-60.7574
-104.116
-149.38
-195.356
-241.321
-286.257
-329.256
-369.597
-406.564
-439.494
-467.759
-490.787
-508.069
-519.377
-524.548
-523.581
-516.68
-504.187
-486.695
-465.099
-440.753
-415.514
-390.268
-364.221
-336.662
-307.087
-275.825
-243.992
-212.204
-180.675
-149.801
-117.474
-83.7252
-43.93
-10.1854
106.254
130.441
154.397
177.007
196.009
210.842
220.854
225.497
224.848
219.486
210.268
198.182
184.04
168.568
152.391
135.919
119.426
103.062
86.8639
70.8032
54.8196
38.8866
23.0818
7.72401
-6.43512
-18.638
-28.8419
-37.3061
-44.1104
-49.1313
-52.2821
-53.5882
-53.0247
-50.6935
-46.8081
-41.064
-33.2707
-19.9106
-0.698745
76.1645
49.8928
19.2369
-14.9999
-51.3264
-90.6359
-131.835
-173.894
-216.363
-258.321
-298.985
-337.709
-373.748
-406.416
-435.073
-459.093
-477.916
-491.152
-498.542
-499.981
-495.608
-485.738
-470.901
-451.894
-429.867
-406.381
-382.41
-357.56
-331.259
-302.967
-272.9
-242.001
-210.767
-179.48
-148.731
-116.649
-83.3692
-44.2303
-10.9278
99.533
121.349
143.112
163.758
181.238
195.226
205.08
210.206
210.688
206.967
199.719
189.729
177.648
164.062
149.503
134.357
118.894
103.32
87.7253
72.1308
56.5444
40.9771
25.5281
10.4989
-3.4795
-15.711
-26.047
-34.6683
-41.6484
-46.8858
-50.2962
-51.8982
-51.6433
-49.5841
-45.8866
-40.2381
-32.4927
-19.3518
-1.02142
70.9565
47.0638
19.1469
-11.9949
-44.9588
-80.6799
-118.205
-156.643
-195.672
-234.534
-272.542
-309.159
-343.702
-375.504
-403.92
-428.323
-448.119
-462.837
-472.169
-475.909
-474.053
-466.828
-454.649
-438.225
-418.553
-396.951
-374.418
-350.857
-325.818
-298.773
-269.837
-239.821
-209.14
-178.151
-147.591
-115.818
-83.061
-44.6736
-11.8869
92.2535
112.115
132.046
151.079
167.297
180.542
190.212
195.677
197.02
194.602
188.969
180.771
170.519
158.69
145.727
131.95
117.628
102.966
88.1006
73.0984
57.9992
42.8683
27.8181
13.1374
-0.619645
-12.8334
-23.2725
-32.039
-39.1894
-44.6298
-48.2822
-50.1542
-50.1857
-48.3925
-44.8941
-39.371
-31.7119
-18.8497
-1.4121
65.2183
43.313
17.7031
-10.844
-40.9261
-73.5917
-107.922
-143.132
-179.062
-215.023
-250.451
-284.897
-317.758
-348.415
-376.262
-400.662
-421.004
-436.792
-447.613
-453.204
-453.433
-448.46
-438.636
-424.569
-407.13
-387.422
-366.381
-344.118
-320.298
-294.412
-266.527
-237.377
-207.3
-176.694
-146.42
-115.018
-82.8205
-45.246
-13.051
84.7817
103.005
121.418
139.069
154.214
166.818
176.268
181.956
183.953
182.568
178.257
171.565
162.913
152.674
141.217
128.802
115.658
101.994
87.9458
73.6241
59.1061
44.475
29.8725
15.5714
2.06931
-10.0681
-20.5694
-29.4527
-36.7512
-42.3744
-46.2416
-48.3592
-48.6582
-47.1272
-43.8461
-38.4811
-30.9475
-18.4169
-1.87645
59.2833
39.0835
15.4504
-10.8437
-38.474
-68.455
-99.9783
-132.314
-165.391
-198.626
-231.549
-263.795
-294.815
-324.09
-351.045
-375.075
-395.573
-412.011
-423.95
-431.068
-433.145
-430.249
-422.634
-410.83
-395.562
-377.74
-358.219
-337.23
-314.56
-289.774
-262.917
-234.658
-205.269
-175.164
-145.26
-114.279
-82.6527
-45.9331
-14.3931
77.358
94.1993
111.293
127.764
141.993
154.004
163.228
169.048
171.532
170.966
167.733
162.302
155.025
146.207
136.14
125.034
113.08
100.453
87.2987
73.7315
59.8641
45.8032
31.6915
17.8049
4.59382
-7.41863
-17.9295
-26.8993
-34.3206
-40.1046
-44.1706
-46.515
-47.0697
-45.8025
-42.7532
-37.5777
-30.2055
-18.0515
-2.40232
53.3366
34.6078
12.7013
-11.6422
-37.1157
-64.7762
-93.8241
-123.611
-154.113
-184.831
-215.383
-245.489
-274.66
-302.431
-328.304
-351.709
-372.075
-388.858
-401.574
-409.904
-413.52
-412.431
-406.813
-397.084
-383.858
-367.856
-349.83
-330.1
-308.554
-284.839
-259.007
-231.694
-203.094
-173.594
-144.143
-113.613
-82.5503
-46.7054
-15.8735
70.1305
85.7644
101.729
117.158
130.58
142.066
151.039
156.928
159.773
159.847
157.491
153.114
147.016
139.445
130.644
120.766
109.968
98.3955
86.1725
73.4229
60.2611
46.8215
33.2538
19.814
6.93508
-4.90252
-15.3755
-24.389
-31.909
-37.8342
-42.0806
-44.6384
-45.4359
-44.4292
-41.6247
-36.663
-29.4839
-17.7457
-2.9745
47.5017
30.0647
9.66988
-12.9501
-36.5423
-62.1376
-88.9981
-116.512
-144.701
-173.111
-201.443
-229.483
-256.82
-283.048
-307.713
-330.308
-350.289
-367.15
-380.369
-389.609
-394.516
-394.992
-391.157
-383.331
-371.998
-357.738
-341.184
-322.697
-302.266
-279.634
-254.872
-228.557
-200.82
-172.011
-143.057
-112.997
-82.4829
-47.5336
-17.4551
63.1742
77.7671
92.7194
107.242
119.941
130.922
139.652
145.553
148.667
149.243
147.594
144.093
138.998
132.519
124.85
116.111
106.412
95.8771
84.6069
72.7088
60.3065
47.5305
34.5435
21.5952
9.08447
-2.52759
-12.9157
-21.9372
-29.523
-35.5699
-39.9827
-42.7393
-43.7691
-43.0174
-40.4607
-35.7337
-28.7765
-17.4878
-3.57669
41.8663
25.5596
6.50292
-14.596
-36.5117
-60.2765
-85.1853
-110.66
-136.761
-163.086
-189.363
-215.452
-240.999
-265.677
-289.079
-310.741
-330.173
-346.877
-360.364
-370.262
-376.2
-378.015
-375.737
-369.618
-360.032
-347.417
-332.306
-315.071
-295.774
-274.243
-250.562
-225.276
-198.453
-170.384
-141.974
-112.399
-82.4213
-48.384
-19.109
56.5448
70.204
84.2674
97.9599
110.016
120.535
129.002
134.88
138.184
139.16
138.083
135.302
131.059
125.527
118.867
111.163
102.499
92.962
82.6375
71.6142
60.0003
47.93
35.5552
23.1288
11.0313
-0.31168
-10.565
-19.556
-27.1804
-33.3229
-37.8845
-40.8259
-42.0743
-41.5691
-39.2638
-34.7863
-28.0786
-17.2726
-4.20194
36.4634
21.1814
3.31138
-16.434
-36.8669
-58.9919
-82.1423
-105.79
-130.004
-154.423
-178.821
-203.086
-226.926
-250.066
-272.179
-292.839
-311.591
-327.979
-341.517
-351.847
-358.591
-361.513
-360.598
-355.998
-348.006
-336.949
-323.247
-307.263
-289.109
-268.693
-246.121
-221.871
-195.978
-168.686
-140.842
-111.776
-82.342
-49.2447
-20.8224
50.2412
63.0735
76.3279
89.2874
100.748
110.837
119.045
124.858
128.296
129.583
128.979
126.795
123.264
118.548
112.778
106.012
98.3039
89.7193
80.3135
70.1619
59.3585
48.0186
36.2926
24.4143
12.7604
1.73644
-8.33733
-17.2559
-24.8882
-31.1031
-35.7925
-38.9043
-40.3596
-40.0925
-38.0355
-33.8214
-27.388
-17.0937
-4.84542
31.302
16.9441
0.167627
-18.3641
-37.4683
-58.1302
-79.7099
-101.692
-124.198
-146.877
-169.541
-192.122
-214.354
-236.018
-256.832
-276.444
-294.432
-310.373
-323.813
-334.371
-341.714
-345.54
-345.782
-342.533
-335.986
-326.383
-314.05
-299.309
-282.308
-263.011
-241.529
-218.31
-193.357
-166.868
-139.64
-111.116
-82.2434
-50.1166
-22.5869
44.2704
56.3543
68.8888
81.1725
92.0922
101.771
109.731
115.454
118.968
120.499
120.276
118.596
115.668
111.646
106.654
100.729
93.901
86.2073
77.6862
68.387
58.3931
47.8051
36.7504
25.4529
14.2685
3.59868
-6.2452
-15.0511
-22.6574
-28.9201
-33.717
-36.9807
-38.6297
-38.5904
-36.7819
-32.8409
-26.7057
-16.9502
-5.50744
26.3912
12.8743
-2.9148
-20.3146
-38.2267
-57.569
-77.7247
-98.2238
-119.163
-140.253
-161.327
-182.338
-203.07
-223.328
-242.879
-261.415
-278.58
-293.98
-307.189
-317.827
-325.572
-330.115
-331.333
-329.255
-324.015
-315.759
-304.733
-291.217
-275.36
-257.176
-236.792
-214.593
-190.581
-164.925
-138.345
-110.414
-82.139
-51.0178
-24.4038
38.6348
50.0487
61.9115
73.5847
84.0035
93.2897
100.998
106.629
110.181
111.888
111.976
110.712
108.302
104.877
100.558
95.3776
89.348
82.4846
74.8008
66.3308
57.1327
47.2969
36.933
26.2382
15.5576
5.2721
-4.30506
-12.9531
-20.4993
-26.7809
-31.6652
-35.065
-36.8929
-37.073
-35.5071
-31.8484
-26.0319
-16.8373
-6.18472
21.7567
8.98637
-5.90246
-22.2816
-39.0731
-57.2171
-76.0928
-95.2305
-114.766
-134.4
-154.01
-173.568
-192.887
-211.82
-230.159
-247.636
-263.935
-278.721
-291.594
-302.183
-310.184
-315.263
-317.282
-316.216
-312.133
-305.12
-295.334
-283.006
-268.285
-251.205
-231.894
-210.706
-187.642
-162.847
-136.977
-109.691
-82.0513
-51.9617
-26.2682
33.3396
44.1289
55.3747
66.4809
76.4359
85.354
92.8101
98.3245
101.902
103.741
104.069
103.152
101.179
98.2763
94.543
90.0147
84.7014
78.6005
71.7062
64.028
55.6092
46.5155
36.8447
26.7728
16.6193
6.75438
-2.52334
-10.979
-18.4261
-24.6977
-29.6442
-33.1633
-35.1565
-35.5429
-34.2185
-30.8476
-25.3681
-16.7528
-6.87643
17.3975
5.31995
-8.76325
-24.2146
-40.0044
-57.0189
-74.7146
-92.6291
-110.871
-129.19
-147.451
-165.666
-183.67
-201.345
-218.527
-234.973
-250.406
-264.521
-276.974
-287.406
-295.525
-301.005
-303.66
-303.448
-300.388
-294.501
-285.88
-274.697
-261.084
-245.096
-226.86
-206.675
-184.565
-160.661
-135.536
-108.955
-81.999
-52.9605
-28.1797
28.358
38.5768
49.2522
59.8288
69.3532
77.917
85.1275
90.5154
94.0834
96.0365
96.5586
95.9182
94.3142
91.8577
88.6444
84.6925
80.0132
74.6036
68.4411
61.5167
53.8483
45.4859
36.5022
27.0582
17.4541
8.03714
-0.903159
-9.13517
-16.4529
-22.6802
-27.6641
-31.2827
-33.4286
-34.0121
-32.9202
-29.8425
-24.7153
-16.6909
-7.57594
13.2861
1.86223
-11.4652
-26.08
-40.9539
-56.9599
-73.5488
-90.3245
-107.395
-124.497
-141.537
-158.511
-175.292
-191.785
-207.855
-223.304
-237.882
-251.312
-263.28
-273.466
-281.587
-287.337
-290.498
-290.99
-288.814
-283.946
-276.407
-266.32
-253.79
-238.872
-221.689
-202.503
-181.355
-158.365
-134.046
-108.223
-81.9899
-54.0112
-30.1281
23.677
33.3689
43.5282
53.6112
62.7128
70.9501
77.9161
83.1671
86.7061
88.7312
89.4271
89.0196
87.7162
85.6422
82.8782
79.4442
75.3323
70.5411
65.0486
58.8289
51.8802
44.2266
35.9236
27.1062
18.0608
9.11727
0.544589
-7.4264
-14.5867
-20.7433
-25.7345
-29.4316
-31.7138
-32.4834
-31.622
-28.8377
-24.075
-16.6499
-8.28013
9.41786
-1.40756
-14.019
-27.842
-41.8905
-56.9698
-72.5667
-88.2814
-104.26
-120.252
-136.153
-151.994
-167.641
-183.028
-198.047
-212.528
-226.266
-239.007
-250.46
-260.33
-268.355
-274.257
-277.799
-278.877
-277.454
-273.487
-266.948
-257.897
-246.412
-232.543
-216.404
-198.214
-178.034
-155.981
-132.496
-107.483
-82.0223
-55.108
-32.1142
19.28
28.4933
38.1671
47.8023
56.508
64.4066
71.1448
76.2557
79.746
81.8169
82.6426
82.4469
81.4021
79.6444
77.2695
74.2872
70.6906
66.4589
61.5713
56.0014
49.7304
42.7621
35.1244
26.9333
18.449
9.99098
1.81416
-5.86472
-12.8329
-18.8933
-23.869
-27.6198
-30.0218
-30.9661
-30.3278
-27.839
-23.4484
-16.6238
-8.98231
5.78718
-4.48768
-16.4464
-29.5151
-42.7775
-57.0156
-71.7023
-86.4623
-101.422
-116.378
-131.237
-146.017
-160.624
-174.983
-189.013
-202.572
-215.48
-227.528
-238.448
-247.962
-255.813
-261.767
-265.576
-267.12
-266.344
-263.169
-257.536
-249.46
-238.978
-226.129
-211.01
-193.809
-174.601
-153.5
-130.894
-106.737
-82.0841
-56.2372
-34.1259
15.1709
23.9339
33.1561
42.3565
50.6985
58.2849
64.7756
69.7517
73.1853
75.2757
76.2007
76.1719
75.3659
73.885
71.8354
69.247
66.1043
62.3857
58.0508
53.0727
47.4313
41.113
34.1239
26.5492
18.6302
10.6648
2.89952
-4.45801
-11.2036
-17.1362
-22.0735
-25.8588
-28.3597
-29.465
-29.0453
-26.8511
-22.8392
-16.6116
-9.67854
2.40409
-7.36865
-18.725
-31.1148
-43.6338
-57.0676
-70.9162
-84.7999
-98.8422
-112.833
-126.719
-140.524
-154.149
-167.558
-180.666
-193.35
-205.46
-216.813
-227.18
-236.308
-243.939
-249.86
-253.837
-255.741
-255.502
-253.024
-248.208
-241.034
-231.507
-219.644
-205.527
-189.309
-171.074
-150.936
-129.229
-105.968
-82.1666
-57.389
-36.163
11.3376
19.6757
28.461
37.2563
45.2469
52.5396
58.8009
63.6204
66.9974
69.0969
70.0922
70.1974
69.5842
68.3606
66.6001
64.3449
61.6006
58.3372
54.5129
50.0805
45.0174
39.3068
32.9369
25.9677
18.6109
11.1474
3.8047
-3.21381
-9.70834
-15.4842
-20.3544
-24.1551
-26.7398
-27.9907
-27.7795
-25.878
-22.2479
-16.6093
-10.3625
-0.745987
-10.0457
-20.8488
-32.6092
-44.4613
-57.1368
-70.1893
-83.2585
-96.4534
-109.576
-122.555
-135.448
-148.167
-160.674
-172.922
-184.786
-196.137
-206.813
-216.615
-225.324
-232.695
-238.528
-242.589
-244.756
-244.956
-243.077
-238.996
-232.653
-224.025
-213.112
-199.968
-184.719
-167.455
-148.284
-127.507
-105.176
-82.2567
-58.5529
-38.2081
7.75303
15.6939
24.0765
32.4728
40.1329
47.1429
53.1842
57.8551
61.1501
63.2564
64.3093
64.5184
64.0645
63.0534
61.5625
59.6064
57.2017
54.34
50.9719
47.0476
42.5223
37.3746
31.5878
25.2019
18.4017
11.4414
4.53484
-2.13068
-8.35563
-13.9473
-18.7234
-22.514
-25.1665
-26.5509
-26.5393
-24.9252
-21.6776
-16.6164
-11.0314
-3.69776
-12.5336
-22.8116
-33.9897
-45.2237
-57.2183
-69.521
-81.8216
-94.2267
-106.541
-118.703
-130.747
-142.619
-154.29
-165.715
-176.808
-187.44
-197.467
-206.71
-214.976
-222.047
-227.743
-231.83
-234.179
-234.724
-233.355
-229.926
-224.345
-216.56
-206.551
-194.354
-180.06
-163.76
-145.559
-125.723
-104.351
-82.3512
-59.7204
-40.2557
4.39701
11.9608
19.9591
27.9976
35.3328
42.0709
47.8979
52.4249
55.6419
57.727
58.8332
59.133
58.807
57.9726
56.7067
55.0317
52.935
50.4181
47.4548
43.9876
39.9662
35.3462
30.1045
24.2721
18.0119
11.5539
5.08913
-1.20646
-7.14589
-12.5351
-17.1914
-20.9475
-23.6466
-25.1525
-25.3319
-23.9973
-21.1282
-16.6291
-11.6799
-6.46277
-14.8709
-24.6323
-35.2519
-45.9091
-57.2704
-68.9037
-80.4814
-92.1422
-103.703
-115.099
-126.375
-137.459
-148.349
-159.009
-169.359
-179.307
-188.714
-197.415
-205.236
-211.977
-217.484
-221.545
-224.018
-224.83
-223.883
-221.025
-216.135
-209.136
-199.986
-188.698
-175.341
-159.996
-142.762
-123.888
-103.495
-82.4379
-60.88
-42.2797
1.24029
8.44657
16.0912
23.7914
30.8293
37.3018
42.9243
47.3069
50.4448
52.5071
53.6376
54.0232
53.8128
53.1239
52.0472
50.6076
48.8007
46.5995
43.9859
40.9257
37.3608
33.2385
28.512
23.202
17.4581
11.4912
5.47177
-0.444247
-6.07936
-11.2488
-15.7675
-19.466
-22.1899
-23.7994
-24.1626
-23.1017
-20.604
-16.6473
-12.305
-9.06325
-17.0544
-26.3398
-36.4134
-46.5202
-57.2869
-68.2906
-79.2248
-90.1906
-101.04
-111.722
-122.274
-132.642
-142.806
-152.75
-162.406
-171.691
-180.5
-188.677
-196.059
-202.462
-207.744
-211.723
-214.265
-215.285
-214.685
-212.318
-208.05
-201.777
-193.438
-183.024
-170.58
-156.177
-139.909
-122
-102.602
-82.5156
-62.0208
-44.2725
-1.72217
5.15567
12.4568
19.8312
26.5881
32.815
38.2361
42.4852
45.5402
47.5749
48.7253
49.1669
49.0657
48.5103
47.5911
46.3504
44.7878
42.8841
40.5933
37.8874
34.7306
31.0622
26.8253
22.013
16.7607
11.2669
5.68603
0.156531
-5.16153
-10.0914
-14.4551
-18.0792
-20.8073
-22.5023
-23.0345
-22.2394
-20.1058
-16.6684
-12.9031
-11.4898
-19.1043
-27.9261
-37.4985
-47.069
-57.2683
-67.6805
-78.0044
-88.3485
-98.5399
-108.551
-118.428
-128.117
-137.616
-146.894
-155.9
-164.563
-172.787
-180.451
-187.404
-193.468
-198.507
-202.363
-204.915
-206.087
-205.777
-203.833
-200.115
-194.509
-186.93
-177.35
-165.792
-152.313
-137.002
-120.067
-101.673
-82.5678
-63.1288
-46.2084
-4.48036
2.07273
9.04183
16.1005
22.5841
28.5811
33.8167
37.9309
40.9126
42.9148
44.0773
44.5685
44.546
44.1167
43.3438
42.2705
40.9153
39.2637
37.2773
34.9005
32.1014
28.8409
25.0536
20.7185
15.9387
10.8983
5.74265
0.597392
-4.39379
-9.0693
-13.2575
-16.7904
-19.5077
-21.2704
-21.9568
-21.4147
-19.636
-16.6946
-13.472
-13.7377
-20.9998
-29.404
-38.4945
-47.5733
-57.2237
-67.0703
-76.8222
-86.575
-96.1745
-105.567
-114.812
-123.868
-132.734
-141.398
-149.798
-157.877
-165.551
-172.709
-179.233
-184.958
-189.747
-193.457
-195.974
-197.241
-197.166
-195.586
-192.356
-187.353
-180.484
-171.697
-160.994
-148.419
-134.054
-118.088
-100.703
-82.5942
-64.1914
-48.0852
-7.06444
-0.818659
5.83433
12.5898
18.8119
24.578
29.6363
33.6295
36.5347
38.5127
39.6815
40.2127
40.2611
39.927
39.292
38.375
37.1954
35.758
34.0307
31.9645
29.4999
26.6003
23.2194
19.3258
15.0016
10.4003
5.65587
0.885935
-3.77728
-8.18645
-12.1829
-15.6044
-18.295
-20.1122
-20.9362
-20.6315
-19.1922
-16.7219
-14.0108
-15.8435
-22.7483
-30.7578
-39.4076
-48.0154
-57.162
-66.4683
-75.6739
-84.8703
-93.9063
-102.74
-111.404
-119.87
-128.146
-136.222
-144.059
-151.593
-158.749
-165.429
-171.523
-176.902
-181.434
-184.985
-187.442
-188.757
-188.858
-187.589
-184.792
-180.336
-174.122
-166.083
-156.201
-144.507
-131.073
-116.071
-99.691
-82.5739
-65.1951
-49.8828
-9.48626
-3.53527
2.82356
9.29304
15.2599
20.807
25.6819
29.5532
32.3919
34.3409
35.5236
36.0888
36.1975
35.9494
35.4205
34.6509
33.6363
32.3815
30.8747
29.074
26.9263
24.366
21.3476
17.8551
13.9556
9.78034
5.43728
1.03375
-3.30609
-7.44495
-11.2366
-14.5298
-17.1739
-19.0309
-19.9805
-19.8969
-18.7793
-16.7512
-14.5168
-17.8127
-24.382
-31.9944
-40.224
-48.4012
-57.0657
-65.8738
-74.5626
-83.2309
-91.7345
-100.034
-108.171
-116.096
-123.824
-131.353
-138.65
-145.672
-152.341
-158.571
-164.259
-169.287
-173.548
-176.926
-179.305
-180.638
-180.867
-179.853
-177.436
-173.477
-167.865
-160.528
-151.432
-140.591
-128.067
-114.017
-98.6337
-82.5102
-66.1306
-51.6016
-11.7594
-6.0772
0.007498
6.20694
11.9268
17.2532
21.9545
25.6952
28.4615
30.3874
31.5779
32.184
32.3463
32.1731
31.7403
31.086
30.2265
29.1437
27.8259
26.2521
24.3759
22.1371
19.4623
16.3313
12.8195
9.04361
5.09229
1.0491
-2.97204
-6.84158
-10.4218
-13.5727
-16.1535
-18.0312
-19.0909
-19.2143
-18.3975
-16.7815
-14.99
-19.652
-25.9049
-33.1438
-40.9539
-48.7185
-56.9393
-65.273
-73.4824
-81.6535
-89.6559
-97.4514
-105.083
-112.514
-119.74
-126.763
-133.557
-140.087
-146.296
-152.099
-157.403
-162.097
-166.078
-169.263
-171.546
-172.878
-173.201
-172.393
-170.303
-166.79
-161.734
-155.053
-146.702
-136.683
-125.046
-111.931
-97.5298
-82.3855
-66.9871
-53.2248
-13.8703
-8.4304
-2.60338
3.32564
8.80313
13.9156
18.439
22.0564
24.7394
26.6326
27.8335
28.4731
28.6956
28.5906
28.242
27.6917
26.9549
26.0331
24.8946
23.5165
21.8727
19.9113
17.5624
14.7758
11.6167
8.2068
4.62445
0.935443
-2.76912
-6.37005
-9.73711
-12.7374
-15.2401
-17.1213
-18.272
-18.5855
-18.0522
-16.8154
-15.4295
-21.3414
-27.3148
-34.2048
-41.6242
-48.9819
-56.7752
-64.6665
-72.4208
-80.13
-87.6621
-94.9859
-102.141
-109.097
-115.862
-122.423
-128.753
-134.825
-140.59
-145.986
-150.923
-155.299
-159.015
-161.993
-164.155
-165.463
-165.858
-165.219
-163.408
-160.29
-155.743
-149.674
-142.028
-132.797
-122.018
-109.818
-96.3808
-82.2045
-67.7588
-54.7509
-15.7992
-10.6012
-5.03888
0.641289
5.88387
10.7826
15.1316
18.6218
21.227
23.0751
24.2741
24.948
25.2217
25.19
24.9195
24.461
23.8342
23.0414
22.0697
20.8772
19.4355
17.7124
15.6466
13.1877
10.3662
7.29162
4.04874
0.695078
-2.6961
-6.02727
-9.17816
-12.0232
-14.4382
-16.3073
-17.5302
-18.0119
-17.7402
-16.8543
-15.8393
-22.8717
-28.5933
-35.1737
-42.2316
-49.209
-56.5851
-64.0513
-71.3777
-78.6471
-85.7414
-92.6247
-99.3366
-105.847
-112.168
-118.3
-124.206
-129.857
-135.21
-140.212
-144.795
-148.866
-152.327
-155.107
-157.134
-158.39
-158.83
-158.333
-156.763
-153.994
-149.909
-144.408
-137.426
-128.945
-118.993
-107.682
-95.1846
-81.9533
-68.436
-56.1642
-17.5807
-12.6235
-7.30507
-1.86869
3.15992
7.85353
12.0251
15.3859
17.9086
19.7165
20.9003
21.5935
21.917
21.9494
21.7612
21.3883
20.859
20.1814
19.344
18.3241
17.0747
15.56
13.7386
11.5664
9.06695
6.31508
3.38526
0.341269
-2.75146
-5.81308
-8.74377
-11.4278
-13.7478
-15.5935
-16.8717
-17.4998
-17.4646
-16.8984
-16.2191
-24.289
-29.7407
-36.0353
-42.7686
-49.396
-56.3826
-63.4367
-70.3541
-77.2079
-83.8835
-90.3547
-96.6534
-102.751
-108.657
-114.376
-119.887
-125.152
-130.128
-134.765
-139.005
-142.776
-145.99
-148.579
-150.474
-151.66
-152.115
-151.732
-150.373
-147.915
-144.245
-139.267
-132.908
-125.14
-115.981
-105.529
-93.9456
-81.6368
-69.0145
-57.4605
-19.2466
-14.5118
-9.42056
-4.21028
0.611525
5.11808
9.11808
12.3449
14.7799
16.5407
17.713
18.4121
18.7696
18.8626
18.7466
18.4624
18.0245
17.4489
16.7317
15.8515
14.7802
13.4647
11.8586
9.93524
7.71941
5.27587
2.64903
-0.107561
-2.92381
-5.72726
-8.43539
-10.9513
-13.1674
-14.9796
-16.299
-17.0524
-17.2273
-16.9482
-16.5735
-25.6177
-30.8077
-36.7993
-43.2229
-49.534
-56.1625
-62.8338
-69.3565
-75.8135
-82.0926
-88.168
-94.0787
-99.7927
-105.316
-110.65
-115.78
-120.682
-125.312
-129.616
-133.54
-137.02
-139.989
-142.39
-144.155
-145.271
-145.72
-145.418
-144.239
-142.058
-138.765
-134.266
-128.487
-121.393
-112.991
-103.365
-92.6623
-81.2442
-69.4873
-58.631
-20.804
-16.2746
-11.3967
-6.4015
-1.77466
2.55558
6.40249
9.49824
11.8379
13.5438
14.6971
15.4052
15.7833
15.9202
15.8711
15.6644
15.3199
14.8405
14.2293
13.4741
12.5485
11.4168
10.0173
8.31511
6.34641
4.17515
1.838
-0.638621
-3.19648
-5.75992
-8.25315
-10.5961
-12.6983
-14.4649
-15.8124
-16.673
-17.0324
-17.0074
-16.9012
-26.8572
-31.8057
-37.5061
-43.6096
-49.6166
-55.9173
-62.235
-68.3913
-74.4685
-80.3693
-86.0698
-91.6062
-96.9571
-102.125
-107.106
-111.883
-116.436
-120.738
-124.735
-128.371
-131.585
-134.315
-136.525
-138.16
-139.205
-139.643
-139.398
-138.365
-136.429
-133.477
-129.417
-124.177
-117.715
-110.032
-101.196
-91.3392
-80.781
-69.8529
-59.6704
-22.2584
-17.9214
-13.2455
-8.45529
-4.01558
0.147259
3.85338
6.83738
9.08388
10.7255
11.8499
12.558
12.959
13.1261
13.1263
12.9906
12.7277
12.3453
11.8344
11.1898
10.3939
9.41443
8.20514
6.71557
4.96837
3.03495
0.954133
-1.25448
-3.55877
-5.89606
-8.18872
-10.3627
-12.3432
-14.0511
-15.4107
-16.3606
-16.8814
-17.0792
-17.2111
-28.0037
-32.73
-38.1607
-43.9612
-49.6591
-55.6438
-61.6351
-67.4519
-73.1757
-78.717
-84.0608
-89.2423
-94.2416
-99.0703
-103.723
-108.177
-112.41
-116.396
-120.101
-123.471
-126.443
-128.957
-130.98
-132.479
-133.448
-133.87
-133.672
-132.759
-131.032
-128.387
-124.73
-119.987
-114.116
-107.111
-99.0259
-89.9766
-80.2397
-70.1071
-60.5793
-23.6022
-19.4608
-14.9928
-10.3945
-6.12707
-2.12187
1.45111
4.33535
6.50801
8.0872
9.17183
9.86884
10.2827
10.4815
10.5178
10.4347
10.2453
9.94749
9.53697
8.99676
8.31594
7.47179
6.42152
5.12791
3.59367
1.87507
0.0185866
-1.95251
-4.01351
-6.12686
-8.22855
-10.2437
-12.1029
-13.741
-15.0962
-16.1145
-16.7747
-17.1667
-17.5027
-29.0531
-33.5702
-38.754
-44.2768
-49.6847
-55.3545
-61.0309
-66.5339
-71.9297
-77.1361
-82.1423
-86.9874
-91.6532
-96.1525
-100.49
-104.643
-108.583
-112.281
-115.705
-118.82
-121.568
-123.887
-125.744
-127.108
-127.992
-128.389
-128.229
-127.421
-125.874
-123.501
-120.21
-115.926
-110.605
-104.236
-96.8618
-88.5799
-79.6268
-70.2523
-61.3516
-24.8536
-20.9072
-16.6427
-12.233
-8.12527
-4.26605
-0.818227
1.97257
4.08257
5.61854
6.66502
7.33952
7.75354
7.97327
8.04648
8.00314
7.86831
7.6454
7.3221
6.88546
6.31371
5.58912
4.68047
3.5525
2.21469
0.703209
-0.949192
-2.71215
-4.55744
-6.45522
-8.36539
-10.227
-11.9707
-13.5355
-14.8714
-15.937
-16.7114
-17.2714
-17.7856
-30.0297
-34.3309
-39.2784
-44.544
-49.6855
-55.0624
-60.433
-65.6347
-70.7269
-75.6223
-80.3131
-84.8402
-89.1913
-93.3786
-97.4087
-101.269
-104.935
-108.372
-111.542
-114.412
-116.943
-119.08
-120.788
-122.035
-122.833
-123.195
-123.061
-122.344
-120.958
-118.825
-115.863
-112.002
-107.191
-101.416
-94.7088
-87.1506
-78.9401
-70.2877
-61.9962
-26.0345
-22.2699
-18.1856
-13.9639
-10.0189
-6.2965
-2.96533
-0.263321
1.78798
3.29084
4.31794
4.97215
5.37487
5.60191
5.70053
5.69706
5.6042
5.43672
5.18959
4.84283
4.3779
3.76726
2.98436
2.00367
0.833391
-0.487502
-1.9426
-3.51479
-5.17072
-6.87726
-8.60215
-10.3068
-11.9357
-13.4281
-14.737
-15.8306
-16.694
-17.3933
-18.0575
-30.948
-35.0354
-39.7416
-44.7561
-49.6511
-54.7581
-59.8458
-64.7603
-69.5637
-74.1709
-78.5687
-82.7986
-86.8528
-90.7468
-94.4859
-98.0611
-101.459
-104.648
-107.588
-110.239
-112.563
-114.524
-116.092
-117.235
-117.963
-118.285
-118.162
-117.522
-116.281
-114.363
-111.697
-108.219
-103.879
-98.6562
-92.573
-85.6951
-78.1863
-70.2189
-62.5056
-27.1371
-23.5368
-19.6301
-15.5837
-11.8011
-8.2207
-5.00004
-2.38049
-0.385419
1.08566
2.10228
2.7541
3.14853
3.37177
3.48142
3.50574
3.45439
3.33016
3.13902
2.86962
2.49742
1.99767
1.33436
0.485255
-0.535924
-1.69377
-2.96764
-4.35475
-5.83577
-7.37405
-8.93444
-10.4858
-11.9932
-13.4094
-14.6873
-15.7962
-16.7255
-17.5364
-18.326
-31.7961
-35.6926
-40.1635
-44.9245
-49.5772
-54.4321
-59.2587
-63.9081
-68.4401
-72.777
-76.9051
-80.8595
-84.6354
-88.2526
-91.7192
-95.025
-98.1601
-101.106
-103.826
-106.278
-108.42
-110.213
-111.644
-112.69
-113.357
-113.65
-113.534
-112.952
-111.836
-110.113
-107.716
-104.584
-100.675
-95.9627
-90.4601
-84.2174
-77.3675
-70.0473
-62.8951
-28.1548
-24.71
-20.9685
-17.0965
-13.4718
-10.0334
-6.92865
-4.38813
-2.44499
-1.00475
0.00102143
0.657841
1.06117
1.2842
1.39427
1.43144
1.40905
1.32726
1.18057
0.967904
0.674364
0.270447
-0.277357
-1.00124
-1.88873
-2.90123
-4.02001
-5.23756
-6.54784
-7.92909
-9.34414
-10.7591
-12.1459
-13.4757
-14.7138
-15.829
-16.8074
-17.704
-18.5911
-32.568
-36.2885
-40.5472
-45.0665
-49.4775
-54.0835
-58.6625
-63.0668
-67.3494
-71.4359
-75.3146
-79.0169
-82.5359
-85.8932
-89.1023
-92.1567
-95.0444
-97.7503
-100.252
-102.513
-104.489
-106.136
-107.438
-108.389
-108.998
-109.269
-109.164
-108.633
-107.623
-106.073
-103.919
-101.103
-97.5853
-93.3415
-88.3758
-82.7243
-76.4906
-69.7809
-63.1564
-29.0861
-25.7926
-22.2141
-18.5045
-15.0334
-11.7361
-8.7487
-6.29184
-4.39885
-2.9866
-1.99205
-1.33224
-0.914173
-0.675092
-0.560211
-0.520138
-0.528533
-0.580683
-0.684298
-0.851367
-1.08725
-1.41081
-1.85898
-2.46311
-3.22351
-4.10505
-5.08533
-6.1574
-7.31153
-8.53839
-9.81596
-11.1096
-12.3887
-13.6299
-14.8146
-15.9224
-16.9369
-17.8999
-18.862
-33.2645
-36.8207
-40.8834
-45.1837
-49.3644
-53.7249
-58.0597
-62.2296
-66.2801
-70.1369
-73.7871
-77.26
-80.5463
-83.6652
-86.6327
-89.4491
-92.1065
-94.5878
-96.8738
-98.942
-100.756
-102.271
-103.464
-104.325
-104.875
-105.124
-105.034
-104.555
-103.639
-102.241
-100.305
-97.776
-94.6148
-90.7985
-86.3259
-81.2206
-75.5609
-69.4232
-63.31
-29.9349
-26.7904
-23.3736
-19.8214
-16.4911
-13.3286
-10.4598
-8.09101
-6.25293
-4.86783
-3.88273
-3.22106
-2.79156
-2.53206
-2.39686
-2.34847
-2.35225
-2.39
-2.46351
-2.58661
-2.77533
-3.03988
-3.4053
-3.90615
-4.54582
-5.30324
-6.158
-7.09985
-8.11989
-9.20572
-10.3467
-11.5235
-12.7055
-13.8667
-14.9923
-16.0755
-17.1087
-18.1222
-19.1395
-33.8991
-37.293
-41.172
-45.2684
-49.2389
-53.3663
-57.462
-61.401
-65.2281
-68.8698
-72.3101
-75.5748
-78.653
-81.5588
-84.3064
-86.8997
-89.3386
-91.611
-93.696
-95.5739
-97.2215
-98.6045
-99.6981
-100.485
-100.982
-101.206
-101.13
-100.702
-99.8773
-98.6155
-96.8728
-94.6028
-91.7658
-88.3384
-84.3164
-79.7137
-74.586