/*--------------------------------*- C++ -*----------------------------------*\
| =========                 |                                                 |
| \\      /  F ield         | OpenFOAM: The Open Source CFD Toolbox           |
|  \\    /   O peration     | Version:  3.0.0                                 |
|   \\  /    A nd           | Web:      www.OpenFOAM.org                      |
|    \\/     M anipulation  |                                                 |
\*---------------------------------------------------------------------------*/
FoamFile
{
    version     2.0;
    format      ascii;
    class       surfaceScalarField;
    location    "50";
    object      phi;
}
// * * * * * * * * * * * * * * * * * * * * * * * * * * * * * * * * * * * * * //

dimensions      [0 3 -1 0 0 0 0];

internalField   nonuniform List<scalar> 
21254
(
-0.200749
0.221251
-0.0197205
0.243312
-0.0220001
0.262799
-0.0196025
0.280559
-0.0177478
0.297415
-0.0169388
0.311477
-0.0140719
0.323027
-0.0116081
0.332771
-0.00975555
0.339771
-0.00700691
0.345
-0.00522167
0.348728
-0.00371511
0.350812
-0.00207118
0.351704
-0.00087926
0.351361
0.000353118
0.349488
0.0018789
0.346209
0.0032811
0.34123
0.00498058
0.334754
0.00647587
0.326787
0.00796689
0.317548
0.00923892
0.306745
0.0108008
0.295024
0.0117184
0.282802
0.012219
0.271313
0.0114799
0.261638
0.00966472
0.253191
0.00846055
0.244871
0.00832467
0.236351
0.00852681
0.227269
0.00902962
0.217627
0.00959769
0.207536
0.0101686
0.196757
0.0108096
0.185041
0.0116513
0.172226
0.0128923
0.157458
0.0146996
0.139968
0.0174751
0.117671
0.022308
0.0860569
0.0316062
0.0884147
-0.00248003
-0.177937
-0.0227754
-0.153978
-0.0237702
-0.125189
-0.0288024
-0.0938058
-0.0313127
-0.0610112
-0.0328287
-0.0273946
-0.0336046
0.00524318
-0.0326143
0.035805
-0.0305198
0.0636034
-0.0277677
0.0877554
-0.0241293
0.108111
-0.020342
0.125105
-0.0169846
0.139201
-0.0140928
0.150858
-0.0116537
0.16082
-0.0099608
0.169367
-0.00854603
0.176992
-0.00762513
0.183893
-0.00689968
0.190377
-0.00648433
0.196561
-0.00618298
0.20258
-0.00601996
0.208428
-0.00584843
0.214005
-0.0055802
0.218652
-0.00465077
0.222187
-0.00354159
0.224872
-0.00268902
0.226728
-0.00185395
0.227871
-0.0011356
0.228281
-0.000418886
0.227934
0.000325616
0.226789
0.00115784
0.225001
0.0017913
0.222671
0.00231099
0.219904
0.00279506
0.216507
0.00336015
0.212159
0.00435298
0.205841
0.00629128
0.192796
0.0131782
0.176619
0.0159687
-0.1835
0.204796
-0.0408228
0.226415
-0.0435948
0.249147
-0.0423195
0.270535
-0.0391429
0.291452
-0.0378752
0.310922
-0.0335643
0.328512
-0.0292107
0.344499
-0.0257679
0.358525
-0.0210311
0.370605
-0.0172922
0.380734
-0.0138314
0.388948
-0.0102702
0.395365
-0.00728471
0.40027
-0.00454234
0.403907
-0.00175457
0.406034
0.00115611
0.406519
0.00449373
0.405403
0.00759071
0.402174
0.0111932
0.397025
0.0143842
0.389454
0.0183665
0.379695
0.0214711
0.36775
0.0241573
0.354154
0.02507
0.34007
0.023737
0.325988
0.0225273
0.31206
0.02225
0.298481
0.0221181
0.285019
0.0224856
0.271625
0.022964
0.25817
0.0236412
0.244355
0.024589
0.229902
0.0260603
0.214717
0.0280958
0.198149
0.0312554
0.179245
0.0363738
0.15671
0.0448397
0.121917
0.0663327
0.0918644
0.0274148
-0.161863
-0.0442965
-0.138663
-0.046898
-0.111566
-0.0558569
-0.0829933
-0.0598689
-0.052723
-0.0630876
-0.0211459
-0.0651922
0.0103805
-0.0641157
0.0397968
-0.0599086
0.0663339
-0.054281
0.0900016
-0.0477782
0.110579
-0.0409066
0.128385
-0.0347816
0.143804
-0.0295063
0.157037
-0.0248823
0.168556
-0.0214763
0.17867
-0.0186568
0.187659
-0.0166119
0.195851
-0.0150894
0.203487
-0.0141185
0.210663
-0.0133564
0.217552
-0.0129083
0.224201
-0.0124957
0.230542
-0.0119212
0.236078
-0.0101857
0.240508
-0.00797082
0.244076
-0.00625612
0.246755
-0.00453087
0.248619
-0.00299631
0.249732
-0.00153122
0.250223
-0.000169729
0.25021
0.00116295
0.24959
0.00239289
0.248263
0.00360896
0.24627
0.00477741
0.243473
0.00612972
0.239766
0.00806654
0.235276
0.0107779
0.225333
0.023233
0.208319
0.0328025
-0.17852
0.200276
-0.0624698
0.222266
-0.0655443
0.245937
-0.0659479
0.267607
-0.0608103
0.288358
-0.0586013
0.308275
-0.053489
0.32612
-0.0470728
0.342315
-0.0419578
0.356437
-0.0351531
0.368698
-0.029546
0.379084
-0.0242062
0.387757
-0.018931
0.394571
-0.0140869
0.399885
-0.00984798
0.403384
-0.00524795
0.405725
-0.00118124
0.406749
0.00347102
0.406782
0.00755962
0.405527
0.0124492
0.402995
0.016917
0.399139
0.022224
0.393839
0.026773
0.387042
0.0309547
0.378824
0.0332837
0.369649
0.0329085
0.359545
0.0326549
0.348357
0.0334497
0.336161
0.0343152
0.323072
0.0355077
0.309218
0.0367759
0.294778
0.0381627
0.279618
0.0398054
0.263606
0.0420168
0.246716
0.0450696
0.228335
0.049564
0.207568
0.0571268
0.18329
0.0691269
0.148348
0.101299
0.102809
0.0729494
-0.156757
-0.0659711
-0.133136
-0.0704905
-0.104946
-0.0839896
-0.0757306
-0.0890719
-0.0453122
-0.0935115
-0.0138046
-0.096674
0.0172228
-0.0951278
0.0459952
-0.0886609
0.072254
-0.08052
0.0959192
-0.0714287
0.116678
-0.0616547
0.134744
-0.0528413
0.150489
-0.0452476
0.164197
-0.0385888
0.17619
-0.0334688
0.186824
-0.0292911
0.19637
-0.0261578
0.205102
-0.023821
0.213231
-0.0222481
0.220909
-0.0210344
0.228322
-0.0203227
0.23548
-0.0196557
0.242263
-0.0187071
0.248361
-0.01629
0.253465
-0.0130841
0.257687
-0.0104857
0.261103
-0.00794519
0.263722
-0.00560753
0.265615
-0.00343597
0.266782
-0.00136519
0.267324
0.000641063
0.267233
0.00249891
0.266507
0.00431913
0.265137
0.00619529
0.262963
0.00826165
0.259711
0.0113251
0.255056
0.0153962
0.245501
0.0328808
0.228302
0.0498553
-0.173024
0.195607
-0.0849698
0.218288
-0.088184
0.243199
-0.090835
0.265972
-0.0835403
0.288112
-0.0807417
0.309412
-0.0747739
0.328991
-0.0666458
0.346718
-0.0596979
0.362781
-0.0512132
0.376944
-0.0437016
0.389313
-0.0365633
0.399885
-0.0294905
0.40869
-0.0228807
0.415728
-0.0168779
0.421269
-0.0107854
0.425055
-0.00496531
0.427222
0.00130378
0.427516
0.00726379
0.426154
0.0138091
0.423017
0.0200509
0.418272
0.0269645
0.412143
0.0328969
0.404753
0.038339
0.396632
0.0413962
0.388254
0.0412737
0.379675
0.0412168
0.370487
0.0426302
0.360559
0.0442514
0.349676
0.0463885
0.337682
0.0487492
0.324572
0.0512921
0.310119
0.054231
0.294241
0.0578572
0.276919
0.0624004
0.257648
0.068823
0.235615
0.0791531
0.209596
0.095145
0.173679
0.137158
0.122118
0.124381
-0.150737
-0.0882331
-0.126898
-0.0942768
-0.0980355
-0.112841
-0.0684731
-0.118613
-0.0377428
-0.124222
-0.00590052
-0.12852
0.0252185
-0.12623
0.0538635
-0.117287
0.0799029
-0.106542
0.103393
-0.0949045
0.124045
-0.0822953
0.142135
-0.0709243
0.158077
-0.0611846
0.172118
-0.052627
0.184602
-0.0459502
0.195746
-0.0404325
0.20586
-0.0362688
0.215126
-0.0330856
0.223784
-0.0309033
0.231976
-0.0292252
0.239804
-0.0281492
0.247331
-0.0271813
0.254496
-0.0258711
0.260945
-0.0227387
0.266445
-0.0185829
0.271056
-0.0150959
0.274823
-0.0117107
0.277811
-0.00859194
0.28002
-0.00564265
0.281533
-0.00288128
0.28242
-0.000251816
0.282671
0.00223034
0.282302
0.00466302
0.281344
0.00714531
0.279597
0.00998275
0.276835
0.0140935
0.272489
0.0197404
0.26364
0.0418171
0.246385
0.0669668
-0.170148
0.19357
-0.108352
0.217175
-0.111763
0.243551
-0.117181
0.26714
-0.107118
0.290318
-0.103885
0.312679
-0.0971361
0.33311
-0.0870878
0.35177
-0.078351
0.368914
-0.068359
0.383936
-0.058718
0.397195
-0.049814
0.40863
-0.0409157
0.418494
-0.0327363
0.426465
-0.024842
0.432684
-0.0170001
0.437164
-0.00944167
0.440007
-0.00153845
0.44125
0.00602254
0.440644
0.014416
0.438438
0.0222579
0.434507
0.0308977
0.428969
0.0384375
0.422027
0.0452827
0.414112
0.0493099
0.405793
0.0495936
0.397252
0.049784
0.38835
0.0515471
0.379048
0.0535561
0.3692
0.0561544
0.35867
0.0592291
0.347232
0.0628255
0.334496
0.0670428
0.320128
0.0721605
0.303917
0.0787176
0.28518
0.0874775
0.263128
0.101189
0.236286
0.121997
0.199509
0.173971
0.146367
0.177566
-0.146826
-0.11153
-0.122294
-0.118797
-0.0921866
-0.142918
-0.0617609
-0.149036
-0.0302619
-0.155725
0.00230019
-0.161063
0.0339553
-0.157876
0.0628309
-0.146149
0.0888886
-0.132586
0.112337
-0.11834
0.132901
-0.10285
0.150966
-0.0889829
0.167003
-0.0772183
0.181225
-0.0668465
0.193972
-0.0586963
0.205526
-0.0519864
0.21606
-0.046803
0.225762
-0.0427876
0.234844
-0.0399858
0.243448
-0.0378295
0.251677
-0.0363791
0.259554
-0.0350607
0.267043
-0.0333638
0.273864
-0.0295649
0.27973
-0.0244592
0.284703
-0.0200766
0.288806
-0.0158144
0.292091
-0.0118711
0.294594
-0.00815868
0.296327
-0.00464839
0.297397
-0.00129908
0.297834
0.00181648
0.297611
0.00486834
0.296787
0.00803198
0.295204
0.0115164
0.292626
0.0166826
0.288464
0.0238595
0.280257
0.0500823
0.263417
0.0837018
-0.168075
0.192497
-0.132749
0.217356
-0.13661
0.245071
-0.144875
0.269814
-0.131829
0.293941
-0.128015
0.317578
-0.120762
0.338902
-0.108407
0.358711
-0.0981735
0.376735
-0.0863824
0.392847
-0.0748258
0.407274
-0.0642326
0.419826
-0.0534589
0.430703
-0.0436046
0.439873
-0.0340059
0.447195
-0.0243184
0.452956
-0.0152003
0.456815
-0.00539792
0.458841
0.00399566
0.459129
0.014126
0.45752
0.0238645
0.45405
0.0343644
0.448907
0.0435771
0.442219
0.0519644
0.434397
0.0571241
0.425951
0.0580265
0.417115
0.0586035
0.40783
0.0608224
0.398152
0.0632405
0.38804
0.0662685
0.377457
0.0697964
0.366409
0.073894
0.354508
0.078921
0.341393
0.0852393
0.326707
0.0934078
0.309514
0.104659
0.28873
0.121973
0.262537
0.148198
0.22579
0.210662
0.172813
0.230422
-0.143775
-0.135816
-0.11838
-0.144177
-0.0869275
-0.174376
-0.0553056
-0.180649
-0.0227292
-0.188292
0.0108212
-0.194624
0.0433026
-0.190348
0.0726836
-0.175518
0.0989861
-0.158874
0.122517
-0.141859
0.143066
-0.123388
0.161064
-0.106974
0.177102
-0.0932517
0.191428
-0.0811689
0.204352
-0.0716175
0.216149
-0.063782
0.226999
-0.0576509
0.237098
-0.0528847
0.24657
-0.0494561
0.255562
-0.0468195
0.26417
-0.0449856
0.272423
-0.0433126
0.280247
-0.0411863
0.287454
-0.0367706
0.293715
-0.0307191
0.299014
-0.0253747
0.303463
-0.020262
0.307045
-0.015449
0.309797
-0.0109071
0.31177
-0.0066213
0.313021
-0.00255554
0.313578
0.0012436
0.313436
0.00498781
0.312679
0.00878103
0.31109
0.013083
0.308523
0.0192556
0.304274
0.0281078
0.296395
0.0580205
0.280084
0.0999193
-0.16702
0.192745
-0.158467
0.218663
-0.162512
0.247927
-0.174124
0.2739
-0.157799
0.299259
-0.153346
0.323948
-0.145457
0.346391
-0.130861
0.367019
-0.118798
0.386013
-0.10538
0.402985
-0.0917963
0.418174
-0.079416
0.4317
-0.066979
0.443426
-0.0553243
0.453402
-0.043977
0.461674
-0.0325875
0.468083
-0.021608
0.472785
-0.0100985
0.475645
0.00113658
0.476671
0.0131005
0.475804
0.0247329
0.473096
0.0370737
0.46859
0.0480861
0.462565
0.0579919
0.455218
0.0644704
0.447046
0.0662019
0.438272
0.0673985
0.42889
0.07022
0.41892
0.0732119
0.408404
0.0766885
0.397345
0.0807987
0.385825
0.0855181
0.373684
0.0911455
0.36069
0.0981603
0.346605
0.107616
0.330612
0.120555
0.311541
0.141025
0.287179
0.172574
0.251921
0.245958
0.200143
0.282266
-0.141516
-0.161318
-0.115021
-0.170675
-0.082073
-0.20731
-0.0491132
-0.213617
-0.0152864
-0.22213
0.0195612
-0.229461
0.0530912
-0.223877
0.083228
-0.205647
0.110003
-0.185638
0.133812
-0.165656
0.154432
-0.143997
0.172408
-0.124944
0.188426
-0.109265
0.202782
-0.0955226
0.215793
-0.0846269
0.227746
-0.0757351
0.238843
-0.068747
0.249238
-0.0632798
0.25906
-0.0592778
0.268402
-0.0561623
0.277355
-0.0539391
0.285933
-0.0518931
0.294125
-0.0493805
0.301654
-0.0443059
0.3083
-0.0373724
0.314
-0.0310834
0.318763
-0.0250275
0.322665
-0.0193485
0.325682
-0.0139403
0.327878
-0.00885909
0.329315
-0.00396944
0.330005
0.000580466
0.329971
0.00500162
0.329242
0.0095813
0.327661
0.0146036
0.32504
0.0218929
0.320653
0.0324441
0.312863
0.0658405
0.297072
0.115641
-0.166586
0.193645
-0.185524
0.220972
-0.189835
0.251898
-0.205043
0.279067
-0.184946
0.305657
-0.179947
0.331551
-0.171346
0.354977
-0.154287
0.376748
-0.140584
0.396513
-0.125148
0.414337
-0.109619
0.430469
-0.0955435
0.444765
-0.0812689
0.45729
-0.0678433
0.468136
-0.0548184
0.477226
-0.0416747
0.48452
-0.0289004
0.490054
-0.0156325
0.493761
-0.00257031
0.495524
0.0113371
0.495337
0.0249179
0.493286
0.0391224
0.489378
0.0519916
0.483814
0.0635522
0.476913
0.0713641
0.46902
0.0740845
0.46038
0.0760256
0.451027
0.0795644
0.440962
0.0832832
0.430155
0.0874998
0.418715
0.0922273
0.406681
0.0975674
0.393951
0.103852
0.38038
0.111696
0.366007
0.121991
0.35015
0.136404
0.332024
0.159158
0.309613
0.195003
0.276975
0.278537
0.227514
0.331608
-0.139851
-0.188057
-0.112173
-0.198343
-0.0775151
-0.241984
-0.0429982
-0.248129
-0.00769169
-0.257434
0.0285879
-0.265755
0.0634051
-0.25869
0.0944687
-0.236702
0.121875
-0.213034
0.146107
-0.189877
0.16692
-0.164801
0.184934
-0.14295
0.200931
-0.125257
0.21527
-0.109859
0.228314
-0.0976681
0.240399
-0.0878186
0.251646
-0.0799917
0.262259
-0.0738916
0.272354
-0.0693717
0.282017
-0.0658234
0.291276
-0.0631971
0.300195
-0.060811
0.30871
-0.0578935
0.316622
-0.0522169
0.323642
-0.0443905
0.329699
-0.0371403
0.334828
-0.0301546
0.339041
-0.0235573
0.342344
-0.0172384
0.344765
-0.0112779
0.346392
-0.00560037
0.347232
-0.000274914
0.347282
0.00492988
0.34661
0.0102437
0.345008
0.0161857
0.342311
0.024595
0.337796
0.0369619
0.330023
0.0736513
0.314752
0.130856
-0.166868
0.195289
-0.213941
0.224052
-0.218597
0.256677
-0.237656
0.285214
-0.213489
0.313251
-0.207967
0.340453
-0.198559
0.365036
-0.178883
0.387669
-0.163215
0.408496
-0.145981
0.427111
-0.128235
0.443897
-0.112327
0.45893
-0.0962977
0.472233
-0.0811427
0.483821
-0.066404
0.49367
-0.0515218
0.501791
-0.0370193
0.508056
-0.0218978
0.512441
-0.00695395
0.514917
0.00886118
0.515409
0.0244259
0.513991
0.0405419
0.510699
0.055285
0.505696
0.0685578
0.499273
0.0777872
0.491732
0.0816266
0.483297
0.0844751
0.474
0.0888724
0.463888
0.0933899
0.452969
0.0983247
0.441255
0.103869
0.428844
0.110087
0.415608
0.117179
0.401423
0.125803
0.386356
0.13719
0.369941
0.152715
0.351672
0.177402
0.330313
0.216379
0.30052
0.308371
0.254166
0.378059
-0.138654
-0.216259
-0.109639
-0.227369
-0.0731791
-0.278425
-0.0370721
-0.284246
-8.58146e-05
-0.294432
0.0378561
-0.303691
0.0741952
-0.295032
0.106367
-0.26887
0.134552
-0.24121
0.159334
-0.214648
0.180465
-0.185922
0.198613
-0.161091
0.214636
-0.141276
0.228949
-0.124169
0.241991
-0.110708
0.254112
-0.099938
0.26549
-0.0913695
0.276256
-0.0846572
0.286548
-0.0796629
0.296476
-0.0757517
0.306063
-0.0727855
0.315269
-0.070018
0.324099
-0.0667268
0.332359
-0.0604799
0.339785
-0.0518242
0.346202
-0.0435642
0.35168
-0.0356374
0.356207
-0.0280843
0.359801
-0.0208515
0.362483
-0.0140018
0.364306
-0.00740806
0.365293
-0.00123268
0.365445
0.00475492
0.36482
0.0109505
0.363227
0.0177076
0.360494
0.0273522
0.355807
0.041591
0.348064
0.0814064
0.333326
0.145549
-0.167534
0.197551
-0.243952
0.227845
-0.248879
0.26233
-0.27214
0.292328
-0.243473
0.321646
-0.237299
0.350299
-0.227209
0.376018
-0.204602
0.399721
-0.186933
0.421485
-0.167748
0.440942
-0.147692
0.458537
-0.129921
0.474378
-0.112135
0.488311
-0.0950725
0.500536
-0.0786251
0.511179
-0.0621626
0.519954
-0.0457923
0.526938
-0.0288808
0.531998
-0.0120135
0.53519
0.0056683
0.536426
0.0231904
0.535585
0.0413821
0.532905
0.0579638
0.528442
0.073018
0.522499
0.0837262
0.51532
0.0887992
0.507043
0.0927434
0.497845
0.098066
0.487755
0.103486
0.476695
0.10939
0.464805
0.115748
0.452112
0.122792
0.438455
0.13081
0.423756
0.140468
0.408051
0.152897
0.390884
0.169875
0.371847
0.196452
0.350425
0.237822
0.322697
0.336031
0.279593
0.421041
-0.137942
-0.245857
-0.10744
-0.257852
-0.0690179
-0.316861
-0.0310377
-0.322221
0.00766252
-0.333133
0.0474702
-0.343516
0.0854325
-0.332993
0.118903
-0.302336
0.148042
-0.270341
0.173514
-0.24011
0.195045
-0.207445
0.213403
-0.179442
0.22952
-0.157388
0.24383
-0.138476
0.25684
-0.123716
0.268972
-0.112069
0.280408
-0.102803
0.291288
-0.0955365
0.301761
-0.0901344
0.311885
-0.0858751
0.321694
-0.0825935
0.331218
-0.0795405
0.340369
-0.0758765
0.348967
-0.0690766
0.356738
-0.0595938
0.363559
-0.0503844
0.369376
-0.0414518
0.37424
-0.0329438
0.378131
-0.0247381
0.381056
-0.0169229
0.383114
-0.00946807
0.384252
-0.00238702
0.384513
0.00447265
0.383967
0.0114866
0.382358
0.0192986
0.379552
0.0301657
0.374781
0.0463668
0.367069
0.0891419
0.352831
0.159755
-0.168741
0.200342
-0.275546
0.232205
-0.280743
0.268595
-0.308521
0.300221
-0.275104
0.331143
-0.268209
0.361257
-0.257334
0.388114
-0.231471
0.413006
-0.211823
0.435739
-0.190487
0.456079
-0.168034
0.474432
-0.148272
0.490877
-0.128579
0.505552
-0.109745
0.518538
-0.0916085
0.529695
-0.0733181
0.539185
-0.0552825
0.546841
-0.0365362
0.552637
-0.0178089
0.556423
0.00188147
0.558257
0.0213563
0.558098
0.0415423
0.555957
0.0601052
0.552034
0.0769423
0.546563
0.0891961
0.539755
0.0956065
0.531784
0.100721
0.522692
0.107162
0.512565
0.113602
0.501466
0.120401
0.489355
0.127774
0.476395
0.135872
0.462418
0.144889
0.447284
0.155528
0.431029
0.169287
0.413148
0.187647
0.393253
0.216318
0.371017
0.260082
0.344287
0.3628
0.30384
0.461592
-0.137465
-0.277119
-0.105441
-0.289886
-0.0649199
-0.357368
-0.0249914
-0.362162
0.0156698
-0.373806
0.0573711
-0.385213
0.0971454
-0.372774
0.132085
-0.337274
0.162349
-0.3006
0.188603
-0.266356
0.210647
-0.22948
0.229283
-0.19807
0.245566
-0.173666
0.25992
-0.152827
0.272919
-0.136712
0.285011
-0.12416
0.296457
-0.114248
0.30743
-0.106509
0.318007
-0.100711
0.32829
-0.0961586
0.338329
-0.0926328
0.348113
-0.0893258
0.357555
-0.0853198
0.366497
-0.0780227
0.374629
-0.0677301
0.381798
-0.0575602
0.388004
-0.0476632
0.393198
-0.0381408
0.3974
-0.0289586
0.400603
-0.0201665
0.402849
-0.0117049
0.404194
-0.00370516
0.404572
0.00407287
0.404083
0.012063
0.402488
0.0208138
0.399642
0.0330425
0.394744
0.0512008
0.387087
0.0967995
0.373394
0.173417
-0.170206
0.20361
-0.308943
0.237241
-0.314365
0.275656
-0.346935
0.308868
-0.308306
0.341348
-0.300702
0.373026
-0.28901
0.40137
-0.259817
0.427386
-0.237851
0.451162
-0.214265
0.472342
-0.189214
0.491525
-0.167454
0.508791
-0.145842
0.524051
-0.125003
0.537616
-0.105171
0.549469
-0.0851689
0.55956
-0.0653716
0.56782
-0.044795
0.574202
-0.0241905
0.578626
-0.00254215
0.581079
0.018904
0.581519
0.0411025
0.580011
0.0616136
0.576633
0.0803205
0.571624
0.0942028
0.565177
0.10205
0.557455
0.108439
0.548522
0.116096
0.538456
0.123675
0.527259
0.131602
0.515019
0.140005
0.5018
0.1491
0.487475
0.159186
0.47196
0.171008
0.455198
0.186049
0.436708
0.206129
0.416055
0.236987
0.392771
0.283388
0.366077
0.389413
0.327455
0.500082
-0.137283
-0.310047
-0.103527
-0.32363
-0.060863
-0.400047
-0.018816
-0.404205
0.0239236
-0.416548
0.0676865
-0.428993
0.109414
-0.414503
0.145906
-0.373764
0.177426
-0.332114
0.204644
-0.293566
0.227314
-0.252142
0.246305
-0.217054
0.262761
-0.190117
0.277213
-0.167276
0.290225
-0.149723
0.302305
-0.136239
0.313709
-0.125651
0.324696
-0.117495
0.335386
-0.1114
0.345802
-0.106574
0.355999
-0.10283
0.365977
-0.0993025
0.37573
-0.0950715
0.385009
-0.0873007
0.393495
-0.0762152
0.401027
-0.0650908
0.407567
-0.0542015
0.413133
-0.0437024
0.417627
-0.0334481
0.421109
-0.0236448
0.423609
-0.0142065
0.425111
-0.00522135
0.425648
0.00351503
0.425223
0.012477
0.423635
0.0223837
0.420756
0.0359289
0.415757
0.0562077
0.408195
0.104375
0.395088
0.186506
-0.172111
0.207232
-0.34406
0.242726
-0.34986
0.283312
-0.387515
0.318361
-0.343362
0.352567
-0.334898
0.385828
-0.32228
0.415559
-0.289558
0.442898
-0.265187
0.46773
-0.239101
0.489866
-0.21135
0.509822
-0.187409
0.52776
-0.163778
0.543794
-0.141035
0.558027
-0.119403
0.570457
-0.0975978
0.581078
-0.0759923
0.589919
-0.0536362
0.596931
-0.0312024
0.601972
-0.00758393
0.604957
0.0159188
0.605958
0.0401014
0.604961
0.0626105
0.602123
0.0831575
0.597624
0.0987004
0.591631
0.10804
0.584185
0.115886
0.575433
0.124848
0.56543
0.133665
0.554189
0.142767
0.541805
0.152309
0.528377
0.16264
0.513732
0.173932
0.497785
0.186893
0.480541
0.203425
0.461484
0.225077
0.440176
0.258258
0.415956
0.307636
0.388771
0.416637
0.351242
0.537722
-0.137297
-0.344851
-0.101888
-0.359044
-0.0568492
-0.445073
-0.0125822
-0.448484
0.0324476
-0.461589
0.0785217
-0.475064
0.122241
-0.458228
0.160441
-0.411966
0.193312
-0.36498
0.221615
-0.321863
0.245025
-0.275545
0.26447
-0.236494
0.281181
-0.206824
0.295752
-0.181843
0.308809
-0.162777
0.320885
-0.148314
0.332268
-0.137033
0.343227
-0.128454
0.353931
-0.122104
0.364465
-0.117108
0.374812
-0.113177
0.384991
-0.109482
0.394959
-0.105041
0.404566
-0.0969096
0.413406
-0.0850592
0.421293
-0.0729831
0.428186
-0.0610992
0.434054
-0.0495742
0.438901
-0.0383112
0.442672
-0.0274489
0.445412
-0.0169428
0.447142
-0.00692954
0.447798
0.00283849
0.447481
0.0128838
0.445912
0.0238674
0.443005
0.0388719
0.437949
0.0611943
0.430435
0.111883
0.417951
0.198975
-0.174267
0.2113
-0.38109
0.248737
-0.38729
0.291621
-0.430401
0.328576
-0.380309
0.364564
-0.370898
0.399554
-0.357268
0.43077
-0.320773
0.459383
-0.293811
0.485431
-0.26515
0.508559
-0.234477
0.529451
-0.208299
0.54811
-0.182435
0.564783
-0.157705
0.57965
-0.134268
0.592595
-0.110541
0.603856
-0.0872523
0.613253
-0.0630316
0.620767
-0.0387162
0.626401
-0.0132168
0.630006
0.0123148
0.631546
0.0385627
0.631092
0.0630657
0.628762
0.0854888
0.624752
0.102711
0.619145
0.113646
0.611993
0.123038
0.60346
0.133384
0.59356
0.143573
0.582321
0.154009
0.569821
0.164801
0.556153
0.176314
0.541213
0.188841
0.524852
0.203216
0.507136
0.221139
0.487529
0.244673
0.465624
0.280179
0.440564
0.332721
0.412765
0.444343
0.37588
0.574465
-0.137681
-0.381438
-0.100235
-0.396481
-0.0528098
-0.492512
-0.00615855
-0.495131
0.0412417
-0.508991
0.0897158
-0.523555
0.135742
-0.504257
0.175757
-0.451981
0.210102
-0.39932
0.239564
-0.35132
0.263833
-0.299807
0.283814
-0.256469
0.300859
-0.223865
0.315565
-0.196546
0.328663
-0.175874
0.340772
-0.160422
0.352151
-0.148411
0.363068
-0.139371
0.373754
-0.13279
0.384335
-0.127688
0.394816
-0.123658
0.405168
-0.119834
0.415369
-0.115241
0.425229
-0.106769
0.434401
-0.0942297
0.44265
-0.0812319
0.449892
-0.0683391
0.456111
-0.0557897
0.461264
-0.0434608
0.465351
-0.0315328
0.468345
-0.0199376
0.47026
-0.00885718
0.471099
0.00197951
0.470862
0.0131108
0.469339
0.0253724
0.466424
0.0417949
0.461309
0.0663186
0.453942
0.119256
0.442057
0.21085
-0.176737
0.215861
-0.420209
0.255281
-0.426714
0.300535
-0.47565
0.33944
-0.41922
0.377376
-0.408825
0.414321
-0.394221
0.447039
-0.353499
0.47703
-0.323799
0.504381
-0.292503
0.52859
-0.258686
0.550369
-0.230076
0.569855
-0.20192
0.587103
-0.174952
0.602569
-0.149732
0.616217
-0.124188
0.628014
-0.0990492
0.637977
-0.0729946
0.645999
-0.0467383
0.652033
-0.0192512
0.656157
0.00818962
0.658268
0.0364509
0.658293
0.0630402
0.656453
0.0873273
0.652904
0.106257
0.647753
0.118794
0.640973
0.129816
0.63262
0.141735
0.622849
0.153331
0.611657
0.165147
0.599072
0.177319
0.585221
0.190264
0.569964
0.204191
0.553253
0.219887
0.535055
0.239466
0.514869
0.264759
0.492384
0.30262
0.466661
0.358475
0.43822
0.472819
0.401852
0.610951
-0.138125
-0.420044
-0.0987688
-0.435843
-0.0486591
-0.54261
0.000462631
-0.544265
0.0503439
-0.558882
0.101436
-0.574643
0.149833
-0.552661
0.191876
-0.494027
0.227777
-0.43522
0.258507
-0.382045
0.283683
-0.324978
0.304342
-0.277123
0.321799
-0.241319
0.336731
-0.211476
0.349902
-0.189044
0.362003
-0.172522
0.373373
-0.15978
0.384293
-0.15029
0.394961
-0.143458
0.405524
-0.138251
0.416065
-0.134199
0.426598
-0.130367
0.437022
-0.125666
0.447132
-0.116881
0.456597
-0.103697
0.465183
-0.0898224
0.472788
-0.0759468
0.479331
-0.0623364
0.484806
-0.0489471
0.489161
-0.0359101
0.49245
-0.0232267
0.494607
-0.0109994
0.495584
0.000987348
0.495493
0.013292
0.49401
0.0267716
0.491101
0.0447435
0.485983
0.0713637
0.478696
0.126534
0.467484
0.222059
-0.179513
0.220827
-0.461522
0.262386
-0.468267
0.3101
-0.523364
0.351022
-0.460137
0.391048
-0.44886
0.429956
-0.433127
0.464399
-0.387942
0.49592
-0.355328
0.524498
-0.321081
0.54975
-0.283938
0.572499
-0.252824
0.592857
-0.222277
0.610953
-0.193047
0.626991
-0.165768
0.641146
-0.138342
0.653481
-0.111383
0.663962
-0.0834746
0.672507
-0.0552826
0.67912
-0.0258627
0.683672
0.00363849
0.686233
0.0338914
0.686801
0.0624747
0.685413
0.0887164
0.682302
0.109369
0.677534
0.123563
0.671115
0.136238
0.663039
0.149816
0.653406
0.162974
0.642255
0.1763
0.629609
0.189961
0.615599
0.204277
0.600091
0.219668
0.582986
0.236955
0.56432
0.258127
0.543607
0.285457
0.52056
0.32568
0.494218
0.384845
0.465237
0.501697
0.429356
0.646685
-0.138712
-0.460847
-0.0971829
-0.477364
-0.0443656
-0.595441
0.00740093
-0.596026
0.0599099
-0.611394
0.113675
-0.628424
0.164626
-0.603615
0.208826
-0.538226
0.246482
-0.472872
0.278561
-0.41412
0.304733
-0.351145
0.32608
-0.298465
0.344035
-0.259271
0.359257
-0.226696
0.372565
-0.202351
0.384681
-0.184637
0.396018
-0.171116
0.406922
-0.161193
0.417581
-0.154117
0.428153
-0.148822
0.438702
-0.144748
0.449314
-0.140978
0.459953
-0.136305
0.470358
-0.127285
0.480089
-0.113427
0.488948
-0.0986808
0.49689
-0.0838877
0.50379
-0.0692335
0.509589
-0.0547434
0.514257
-0.0405756
0.517795
-0.0267662
0.520185
-0.0134002
0.521375
-0.000220933
0.521382
0.0132768
0.519994
0.0281429
0.51709
0.0476569
0.511977
0.0764854
0.504858
0.133655
0.494318
0.232594
-0.18245
0.226017
-0.505087
0.269935
-0.512189
0.32035
-0.573775
0.363452
-0.503243
0.405569
-0.490971
0.446482
-0.474047
0.482774
-0.42424
0.51593
-0.388482
0.545873
-0.351025
0.572284
-0.310349
0.596096
-0.276635
0.617283
-0.243463
0.636142
-0.211904
0.652893
-0.182519
0.667588
-0.153037
0.680435
-0.124229
0.691406
-0.094446
0.70048
-0.0643569
0.707529
-0.0329122
0.712573
-0.00140673
0.715548
0.0309158
0.716542
0.06148
0.715645
0.0896124
0.712962
0.112049
0.70862
0.127901
0.70252
0.142335
0.694724
0.157611
0.685263
0.172427
0.674161
0.187366
0.661508
0.202567
0.647349
0.218512
0.631602
0.235487
0.614166
0.254373
0.59505
0.277352
0.573828
0.306591
0.55018
0.349283
0.523303
0.411752
0.493877
0.531156
0.458516
0.682172
-0.139426
-0.503866
-0.0957115
-0.521086
-0.040006
-0.651135
0.0146228
-0.650667
0.0699396
-0.666718
0.126508
-0.684989
0.180149
-0.657262
0.226597
-0.584677
0.266166
-0.51244
0.299748
-0.447698
0.326994
-0.378387
0.34908
-0.320548
0.367583
-0.277772
0.383172
-0.242283
0.396665
-0.215843
0.40887
-0.196841
0.42018
-0.182426
0.431036
-0.172049
0.441682
-0.164764
0.452247
-0.159387
0.462835
-0.155336
0.473489
-0.151632
0.484265
-0.147081
0.494912
-0.137933
0.504933
-0.12345
0.514092
-0.107842
0.522306
-0.092104
0.529553
-0.0764826
0.535687
-0.0608836
0.540661
-0.0455639
0.544468
-0.0305744
0.547097
-0.0160209
0.548494
-0.00162681
0.54864
0.0132064
0.547331
0.0293747
0.544479
0.0505458
0.539414
0.0814782
0.53244
0.140614
0.522573
0.242472
-0.185718
0.23165
-0.551019
0.278022
-0.558555
0.331173
-0.626927
0.376767
-0.548833
0.42101
-0.535223
0.464104
-0.517139
0.502206
-0.462341
0.537065
-0.423349
0.568573
-0.382534
0.596277
-0.338054
0.62101
-0.301368
0.643156
-0.265608
0.662748
-0.231494
0.680209
-0.199979
0.69562
-0.168446
0.708948
-0.137557
0.720403
-0.1059
0.729927
-0.0738801
0.737491
-0.0404746
0.742956
-0.00687066
0.746338
0.027536
0.747763
0.0600563
0.747246
0.0901315
0.744989
0.114309
0.741012
0.131881
0.735248
0.148102
0.727731
0.165136
0.718481
0.181685
0.707515
0.198334
0.694837
0.215243
0.680567
0.232782
0.664594
0.251433
0.646837
0.272096
0.627314
0.296865
0.605554
0.328333
0.581382
0.373459
0.55398
0.439183
0.524133
0.560893
0.489364
0.716794
-0.140407
-0.54918
-0.0943357
-0.567151
-0.0355385
-0.709945
0.0220634
-0.708263
0.0804371
-0.725094
0.140064
-0.74463
0.196447
-0.713647
0.245304
-0.633534
0.286843
-0.553977
0.3221
-0.482952
0.350563
-0.406848
0.373496
-0.343478
0.392557
-0.296831
0.408526
-0.25825
0.422286
-0.229602
0.434594
-0.209148
0.445948
-0.19378
0.456734
-0.182835
0.467318
-0.175347
0.477879
-0.169947
0.488492
-0.165948
0.499212
-0.162352
0.510087
-0.157955
0.520917
-0.148763
0.531228
-0.13376
0.540679
-0.117294
0.549173
-0.100597
0.556674
-0.0839813
0.563148
-0.0673561
0.568445
-0.0508609
0.572546
-0.0346766
0.575397
-0.0188814
0.576998
-0.00324102
0.577342
0.0128542
0.576119
0.0305831
0.573343
0.053332
0.568348
0.0864829
0.561588
0.147373
0.552408
0.251649
-0.1893
0.237696
-0.599414
0.286484
-0.607346
0.342685
-0.683126
0.390636
-0.596787
0.437445
-0.582025
0.482765
-0.562466
0.522877
-0.50246
0.559416
-0.459885
0.592488
-0.415609
0.621554
-0.36712
0.647551
-0.327365
0.670561
-0.288618
0.691008
-0.25194
0.709184
-0.218154
0.725217
-0.184479
0.739152
-0.151491
0.751066
-0.117815
0.760978
-0.0837918
0.768919
-0.0484162
0.774832
-0.0127839
0.778671
0.023696
0.780405
0.0583218
0.780253
0.090283
0.778415
0.116144
0.77482
0.135473
0.769426
0.153494
0.762184
0.172378
0.753119
0.190747
0.742261
0.20917
0.72963
0.227847
0.715266
0.247193
0.699107
0.267639
0.681064
0.290134
0.661134
0.31688
0.638924
0.350474
0.614219
0.398123
0.586321
0.467117
0.556124
0.591117
0.521959
0.75109
-0.141532
-0.596945
-0.0929375
-0.615751
-0.0309154
-0.771956
0.029768
-0.768958
0.0913447
-0.786678
0.154248
-0.80753
0.213692
-0.773098
0.265024
-0.684868
0.308621
-0.597574
0.345592
-0.519921
0.375406
-0.436659
0.399306
-0.367376
0.419019
-0.316543
0.435402
-0.274632
0.449427
-0.243626
0.46192
-0.22164
0.473328
-0.205188
0.484113
-0.19362
0.494619
-0.185853
0.505141
-0.180469
0.515755
-0.176561
0.526554
-0.173152
0.537538
-0.168939
0.54851
-0.159735
0.559024
-0.144274
0.568754
-0.127026
0.577577
-0.109421
0.585359
-0.0917639
0.592065
-0.0740661
0.597705
-0.0565085
0.602108
-0.0390824
0.605224
-0.0219941
0.607012
-0.00503364
0.607498
0.0124246
0.606457
0.0315611
0.603762
0.0560576
0.598875
0.0913005
0.592324
0.153907
0.583829
0.260168
-0.193173
0.244207
-0.650447
0.295603
-0.658738
0.354771
-0.742294
0.405412
-0.647424
0.454692
-0.631313
0.502597
-0.610368
0.544703
-0.544566
0.583097
-0.498287
0.617794
-0.450308
0.648314
-0.397641
0.675518
-0.354569
0.699674
-0.312773
0.720936
-0.273202
0.739818
-0.237036
0.75645
-0.20111
0.771013
-0.166053
0.783427
-0.130228
0.793766
-0.0941298
0.80211
-0.0567597
0.808375
-0.0190474
0.812571
0.0195016
0.814695
0.0562009
0.814876
0.0901039
0.81336
0.117662
0.810151
0.138684
0.805076
0.158574
0.798104
0.179357
0.789291
0.199567
0.778575