/*--------------------------------*- C++ -*----------------------------------*\
| =========                 |                                                 |
| \\      /  F ield         | OpenFOAM: The Open Source CFD Toolbox           |
|  \\    /   O peration     | Version:  3.0.0                                 |
|   \\  /    A nd           | Web:      www.OpenFOAM.org                      |
|    \\/     M anipulation  |                                                 |
\*---------------------------------------------------------------------------*/
FoamFile
{
    version     2.0;
    format      ascii;
    class       volVectorField;
    location    "50";
    object      U;
}
// * * * * * * * * * * * * * * * * * * * * * * * * * * * * * * * * * * * * * //

dimensions      [0 1 -1 0 0 0 0];

internalField   nonuniform List<vector> 
10720
(
(0.881904 23.8372 6.12263e-18)
(2.39622 26.2364 -5.51737e-18)
(4.36403 28.4471 0)
(6.64254 30.1778 -3.23378e-16)
(9.19623 31.5917 3.65105e-16)
(11.9827 32.6239 2.84142e-16)
(14.8542 33.1347 4.00641e-16)
(17.6968 33.1302 0)
(20.4271 32.6662 0)
(22.9706 31.7911 0)
(25.3176 30.5992 1.04325e-16)
(27.4528 29.1712 0)
(29.3403 27.5265 2.24637e-15)
(30.986 25.7173 0)
(32.3472 23.7342 0)
(33.4179 21.6168 0)
(34.1599 19.3832 -3.86358e-15)
(34.5782 17.0676 -5.7763e-15)
(34.6888 14.7034 5.15255e-15)
(34.5018 12.37 0)
(33.9962 10.0987 4.29523e-15)
(33.2078 7.96622 -8.49538e-15)
(32.1928 6.02478 4.27845e-15)
(31.0634 4.34147 -1.2923e-16)
(29.9966 2.97037 0)
(29.0872 1.8584 1.77191e-15)
(28.2505 0.922286 2.76864e-17)
(27.374 0.121286 -8.04324e-16)
(26.4017 -0.572339 -2.98722e-15)
(25.297 -1.17057 -1.09744e-14)
(24.0835 -1.67502 4.93148e-15)
(22.7964 -2.07632 9.07453e-15)
(21.4424 -2.37261 7.96663e-15)
(20.0271 -2.56875 2.81976e-14)
(18.4895 -2.67051 -1.21021e-14)
(16.7468 -2.68059 -8.9949e-17)
(14.4811 -2.53893 4.61082e-17)
(11.9256 -2.23785 1.76064e-14)
(6.01727 -1.76628 -4.21617e-15)
(-0.222727 21.3792 -5.09188e-18)
(-1.08501 18.753 -2.26227e-17)
(-1.59941 15.7769 7.84199e-17)
(-1.64569 12.3708 -2.0846e-16)
(-1.0754 8.87219 -7.22099e-16)
(0.0861758 5.51087 1.30288e-15)
(1.65277 2.57955 6.79515e-15)
(3.432 0.0220232 1.96919e-15)
(5.53741 -2.25206 0)
(7.80563 -4.01178 0)
(9.9968 -5.18877 1.2374e-15)
(11.9906 -5.88286 4.53717e-16)
(13.7564 -6.22106 -7.70417e-16)
(15.2886 -6.30196 6.25388e-16)
(16.6169 -6.22684 1.00888e-15)
(17.7746 -6.05317 6.34654e-16)
(18.7985 -5.82357 7.63976e-16)
(19.7222 -5.56552 4.77501e-16)
(20.5703 -5.29119 0)
(21.3739 -5.00033 0)
(22.1436 -4.69681 -4.53703e-16)
(22.8929 -4.36468 -1.07793e-17)
(23.6256 -3.98795 8.48696e-17)
(24.2996 -3.5312 9.75569e-17)
(24.8547 -2.98721 2.523e-17)
(25.264 -2.39945 0)
(25.5585 -1.79348 -2.08405e-16)
(25.7646 -1.18523 0)
(25.8808 -0.584434 0)
(25.906 0.00236475 -2.69337e-16)
(25.8147 0.567324 0)
(25.6199 1.10369 1.11876e-15)
(25.3457 1.60211 2.05189e-15)
(25.0031 2.05303 9.6484e-15)
(24.6035 2.45135 -3.46175e-15)
(24.1439 2.7996 1.2743e-17)
(23.5033 3.09988 0)
(22.6693 3.32816 -3.08216e-15)
(20.0758 3.58132 8.42698e-17)
(6.52702 20.7483 -1.06569e-17)
(8.16677 22.5094 2.95267e-18)
(10.2151 24.1259 0)
(12.5637 25.522 0)
(15.1229 26.6441 -1.0866e-16)
(17.9147 27.4138 -2.70853e-16)
(20.8298 27.7623 0)
(23.7277 27.7019 0)
(26.545 27.2507 6.20571e-16)
(29.2 26.46 0)
(31.6439 25.3884 2.33193e-15)
(33.8522 24.0811 0)
(35.8017 22.5789 8.58514e-16)
(37.478 20.9124 -8.46745e-16)
(38.9029 19.1466 1.72729e-15)
(40.0671 17.3241 -3.48195e-15)
(40.9503 15.4615 3.71787e-15)
(41.5332 13.5795 3.41663e-15)
(41.828 11.702 3.34826e-15)
(41.8164 9.85819 2.03885e-16)
(41.4904 8.07176 -3.49912e-15)
(40.831 6.3745 3.34341e-15)
(39.8656 4.79488 -1.89304e-16)
(38.6191 3.39815 0)
(37.1848 2.23302 0)
(35.712 1.24504 0)
(34.2638 0.357852 1.50406e-16)
(32.8302 -0.44223 -3.42896e-17)
(31.3819 -1.15418 2.1735e-15)
(29.8985 -1.77547 3.80384e-17)
(28.3775 -2.28776 -2.84337e-17)
(26.825 -2.67819 -8.58655e-17)
(25.2385 -2.94817 5.40461e-15)
(23.6222 -3.11984 -9.33238e-15)
(21.9247 -3.2127 -5.53795e-17)
(20.0872 -3.22792 -1.24885e-14)
(17.8134 -3.10367 0)
(15.3869 -2.83558 -4.78448e-15)
(9.57331 -2.04944 -2.41879e-15)
(5.24482 18.8946 1.43427e-17)
(4.14734 16.8778 -5.45761e-17)
(3.25944 14.5396 -6.35349e-16)
(2.66951 11.9144 8.06304e-16)
(2.56391 9.11132 0)
(3.00358 6.29608 -1.64822e-15)
(3.9501 3.64552 -1.06614e-15)
(5.27428 1.23865 -5.81638e-15)
(6.90615 -0.802249 1.52277e-15)
(8.744 -2.35849 -1.15186e-15)
(10.6306 -3.42997 1.49166e-15)
(12.442 -4.10106 -4.2683e-16)
(14.1187 -4.46837 0)
(15.6342 -4.61535 -2.6468e-16)
(16.9791 -4.62369 5.88234e-17)
(18.1764 -4.54131 -5.46162e-16)
(19.2459 -4.40761 0)
(20.2126 -4.24295 0)
(21.1041 -4.06094 -4.6578e-17)
(21.9387 -3.85579 4.49614e-17)
(22.7389 -3.62194 -4.32078e-16)
(23.5144 -3.33937 -3.46343e-17)
(24.2657 -2.98496 1.19532e-17)
(24.9713 -2.51771 -2.76132e-17)
(25.5652 -1.95383 1.93451e-16)
(26.0292 -1.36548 2.40253e-16)
(26.3804 -0.782347 0)
(26.6325 -0.213812 0)
(26.7977 0.339629 0)
(26.8738 0.872421 9.34746e-18)
(26.8848 1.37845 0)
(26.8215 1.85131 0)
(26.6699 2.28117 -3.42747e-15)
(26.4428 2.66133 -3.17095e-15)
(26.1319 2.99327 2.82014e-15)
(25.7587 3.29136 -2.36434e-15)
(25.2255 3.56905 3.75404e-15)
(24.7622 3.84237 2.2236e-15)
(22.7186 3.97181 7.62262e-18)
(8.34973 19.1733 -2.42035e-18)
(9.52667 20.7122 -5.15144e-18)
(10.9844 22.224 2.24323e-18)
(12.6788 23.6258 -2.85222e-17)
(14.5795 24.8135 -1.4371e-16)
(16.6932 25.7637 5.15419e-16)
(18.9452 26.4291 -3.64554e-16)
(21.2579 26.7739 -4.50159e-16)
(23.5732 26.7983 9.05435e-18)
(25.8373 26.5118 -5.94406e-16)
(28.0012 25.9311 5.76567e-16)
(30.0356 25.081 -1.47795e-15)
(31.9177 23.9859 -7.2354e-16)
(33.6264 22.663 0)
(35.1357 21.1385 -1.73308e-15)
(36.4286 19.4502 3.5263e-15)
(37.5198 17.6225 0)
(38.401 15.6996 -6.74816e-15)
(39.0638 13.712 -3.37776e-15)
(39.495 11.7159 3.97422e-16)
(39.6882 9.745 -3.93618e-16)
(39.6294 7.85377 -1.80981e-16)
(39.318 6.08815 -2.58876e-15)
(38.754 4.51294 1.31164e-15)
(37.9866 3.17189 0)
(37.0857 2.00631 1.17269e-15)
(36.0717 0.941643 -1.40163e-16)
(34.923 -0.0273336 0)
(33.6338 -0.896176 1.91483e-15)
(32.2136 -1.65029 3.58329e-15)
(30.6873 -2.26544 -6.34732e-15)
(29.0921 -2.72445 -5.48895e-15)
(27.4361 -3.03856 -1.05209e-16)
(25.7305 -3.24077 -8.14959e-15)
(23.9359 -3.36045 -6.86977e-15)
(21.9959 -3.40049 1.0699e-14)
(19.6513 -3.29798 0)
(17.1791 -2.99473 -3.76854e-15)
(11.9325 -2.38469 3.56284e-15)
(7.4172 17.5746 -1.72996e-17)
(6.62512 15.8552 -6.01617e-17)
(6.00613 13.8539 2.54173e-16)
(5.56302 11.6269 0)
(5.4323 9.26541 4.42467e-16)
(5.65574 6.85865 0)
(6.24875 4.52247 2.78441e-15)
(7.18771 2.36166 1.28846e-15)
(8.41919 0.480557 1.08961e-15)
(9.85066 -1.06461 0)
(11.3669 -2.26019 -1.56073e-15)
(12.8767 -3.13027 -3.24106e-16)
(14.3238 -3.72459 1.46661e-15)
(15.6745 -4.09803 0)
(16.9143 -4.30429 -6.41522e-16)
(18.0441 -4.38539 -1.90745e-16)
(19.0779 -4.37603 7.34189e-16)
(20.03 -4.30049 3.58869e-16)
(20.9189 -4.1765 8.75009e-17)
(21.764 -4.00738 -5.20973e-17)
(22.575 -3.7936 3.90589e-16)
(23.3659 -3.52377 0)
(24.1333 -3.18149 0)
(24.855 -2.74333 2.57725e-17)
(25.4873 -2.22506 0)
(26.0008 -1.67943 -4.56319e-16)
(26.4142 -1.12567 8.09891e-18)
(26.7397 -0.567455 8.69638e-17)
(26.9796 -0.00599875 0)
(27.1377 0.553493 2.20844e-16)
(27.2099 1.1037 -4.39179e-16)
(27.203 1.63108 0)
(27.1192 2.11792 1.69625e-15)
(26.9612 2.55067 0)
(26.7297 2.92857 0)
(26.4286 3.26451 3.67585e-17)
(25.9489 3.58009 -8.26238e-17)
(25.4461 3.85224 -2.21105e-15)
(23.651 4.02263 1.96604e-17)
(10.6851 17.6607 -1.31728e-17)
(11.7616 18.9691 -1.16037e-17)
(13.0825 20.26 3.09018e-18)
(14.6234 21.4563 -6.21772e-18)
(16.3441 22.4762 0)
(18.2541 23.3064 0)
(20.3009 23.899 -6.36428e-16)
(22.4267 24.2155 7.63362e-16)
(24.5868 24.2464 0)
(26.7279 23.9892 -9.66178e-16)
(28.8033 23.4537 -1.22311e-15)
(30.776 22.6592 -1.1775e-15)
(32.6142 21.6295 1.40434e-15)
(34.2902 20.3878 1.34225e-15)
(35.773 18.9648 0)
(37.0434 17.3986 2.1589e-15)
(38.0756 15.736 7.53025e-16)
(38.853 14.0207 6.09415e-15)
(39.3684 12.2816 3.70907e-16)
(39.6258 10.5474 -3.67233e-16)
(39.6419 8.84301 3.132e-15)
(39.4308 7.20343 -5.14478e-16)
(39.0165 5.66537 2.82142e-15)
(38.4354 4.27684 1.19664e-15)
(37.7456 3.06804 -7.16843e-17)
(37.0098 1.9952 -1.05782e-15)
(36.2235 0.996275 7.96721e-18)
(35.3483 0.0602887 -7.99865e-18)
(34.3527 -0.804463 -1.8314e-15)
(33.2091 -1.57628 -4.89897e-17)
(31.9227 -2.21976 3.09661e-15)
(30.5089 -2.71099 -5.31443e-15)
(28.9748 -3.05593 -4.3333e-15)
(27.3378 -3.28693 -2.62365e-17)
(25.5625 -3.43646 6.19808e-15)
(23.6108 -3.50154 0)
(21.25 -3.41958 6.56374e-15)
(18.7084 -3.07733 3.24489e-15)
(13.8287 -2.54851 -1.47337e-15)
(9.80894 16.3034 -2.78332e-17)
(9.04958 14.8504 7.9876e-17)
(8.42607 13.1527 3.35443e-16)
(7.95195 11.2526 0)
(7.73917 9.23388 -3.8338e-16)
(7.81883 7.15586 0)
(8.19769 5.09665 -2.04145e-15)
(8.86414 3.15302 -7.85122e-17)
(9.78587 1.41788 8.30597e-16)
(10.9001 -0.0602015 7.1374e-16)
(12.1312 -1.25529 2.448e-17)
(13.4038 -2.16908 1.19525e-15)
(14.6684 -2.83096 -7.32612e-16)
(15.8872 -3.28131 2.34988e-16)
(17.0372 -3.56221 7.64356e-16)
(18.112 -3.71244 8.07206e-16)
(19.1102 -3.76396 -6.92382e-16)
(20.042 -3.74129 9.43225e-18)
(20.9173 -3.66242 0)
(21.7501 -3.53534 5.79789e-16)
(22.5521 -3.36031 2.21131e-17)
(23.3269 -3.12798 -3.05024e-16)
(24.0788 -2.8247 0)
(24.7862 -2.43163 2.48227e-17)
(25.411 -1.95796 0)
(25.9325 -1.44541 1.96478e-16)
(26.3531 -0.915731 0)
(26.6914 -0.376936 -8.19915e-17)
(26.9491 0.167326 4.21376e-18)
(27.1245 0.710492 -2.89884e-18)
(27.2252 1.24163 3.99866e-16)
(27.2481 1.74587 1.25238e-17)
(27.2005 2.20705 0)
(27.0905 2.61464 -1.41302e-15)
(26.9099 2.97149 -2.13945e-17)
(26.6693 3.29144 2.25326e-15)
(26.2644 3.59991 -7.13401e-15)
(25.803 3.84566 -1.07368e-17)
(24.2241 4.02996 0)
(12.332 16.4865 -1.7161e-17)
(13.2512 17.6402 -3.78293e-18)
(14.3792 18.7999 2.57348e-18)
(15.6847 19.8977 1.0186e-16)
(17.1374 20.857 -4.0317e-17)
(18.7568 21.6746 -1.68643e-16)
(20.5033 22.3057 2.70909e-16)
(22.3336 22.7133 0)
(24.2177 22.8857 1.11218e-15)
(26.1112 22.8126 5.18664e-16)
(27.9743 22.4928 0)
(29.7751 21.9348 1.12499e-15)
(31.4802 21.1526 -6.00589e-16)
(33.0613 20.1618 1.68438e-15)
(34.4912 18.9835 0)
(35.7439 17.6439 -2.80803e-15)
(36.8011 16.1681 2.71569e-15)
(37.6518 14.5721 -1.51909e-16)
(38.2838 12.884 0)
(38.6849 11.1457 2.96459e-15)
(38.8478 9.39989 -2.98859e-15)
(38.7739 7.69782 -1.54196e-16)
(38.4739 6.0903 -2.36218e-15)
(37.983 4.63156 -2.17943e-15)
(37.3635 3.35427 0)
(36.6759 2.22489 0)
(35.9446 1.18546 -2.44269e-16)
(35.1567 0.218996 -2.7852e-17)
(34.2917 -0.669279 1.73043e-15)
(33.3304 -1.45891 -4.64918e-17)
(32.2611 -2.11992 4.64685e-17)
(31.0845 -2.63207 4.9435e-15)
(29.7851 -3.00438 0)
(28.3499 -3.26822 1.43085e-14)
(26.738 -3.45235 -5.01761e-17)
(24.9051 -3.54993 0)
(22.6361 -3.49523 -2.78031e-17)
(20.1164 -3.13468 0)
(15.4959 -2.61208 1.32854e-15)
(11.5746 15.2948 2.69147e-17)
(10.9121 14.0296 -1.71853e-16)
(10.3495 12.5486 1.8375e-16)
(9.89394 10.8899 2.87693e-16)
(9.64641 9.1319 -1.16438e-15)
(9.62998 7.3088 -1.4629e-15)
(9.86323 5.47587 1.54717e-15)
(10.3372 3.72454 -1.46102e-15)
(11.0333 2.13683 -6.41689e-16)
(11.909 0.747992 -5.58694e-16)
(12.9059 -0.416758 1.07717e-15)
(13.9705 -1.35093 -1.01656e-15)
(15.0577 -2.07113 -4.28604e-16)
(16.1356 -2.60221 4.18656e-16)
(17.1788 -2.97201 -8.61769e-16)
(18.1752 -3.21165 1.59901e-16)
(19.1215 -3.34651 0)
(20.0155 -3.39692 -5.21489e-16)
(20.8664 -3.37784 1.74254e-16)
(21.6809 -3.2981 -6.13796e-16)
(22.4673 -3.1606 0)
(23.2313 -2.9597 2.63149e-16)
(23.9674 -2.6851 1.51773e-16)
(24.6651 -2.32444 -1.71015e-17)
(25.288 -1.8844 0)
(25.8134 -1.3994 1.40744e-16)
(26.2468 -0.892298 0)
(26.5932 -0.371323 0)
(26.8627 0.158942 0)
(27.0526 0.69075 -1.69858e-16)
(27.1641 1.21283 0)
(27.2062 1.71122 0)
(27.1751 2.1699 1.40027e-15)
(27.0834 2.57837 1.34154e-15)
(26.9271 2.93906 0)
(26.7081 3.26393 2.05949e-15)
(26.3413 3.5778 7.20344e-17)
(25.9191 3.81455 0)
(24.5414 3.99664 4.87771e-17)
(13.7865 15.4721 2.00906e-17)
(14.6133 16.494 -1.41636e-17)
(15.6257 17.5284 0)
(16.7942 18.5119 1.07115e-17)
(18.0873 19.3757 -1.09326e-16)
(19.5338 20.1223 1.57993e-16)
(21.0962 20.7106 4.14606e-17)
(22.7412 21.1079 -7.10677e-16)
(24.4479 21.3016 -7.60795e-17)
(26.1784 21.2796 1.08358e-15)
(27.9 21.0367 -3.85512e-16)
(29.5839 20.5741 8.81723e-16)
(31.1983 19.8981 4.43837e-16)
(32.714 19.0196 3.38152e-16)
(34.1033 17.9545 0)
(35.3402 16.7235 -6.14945e-16)
(36.4011 15.3498 -1.35392e-15)
(37.263 13.8657 -5.09425e-15)
(37.9043 12.3083 1.51134e-15)
(38.3169 10.7128 -1.90722e-15)
(38.499 9.11332 -2.99877e-16)
(38.4519 7.54688 0)
(38.1907 6.05319 2.10646e-15)
(37.7437 4.67343 1.34891e-16)
(37.1596 3.43662 -6.12871e-17)
(36.4939 2.32436 -8.59156e-16)
(35.7694 1.29412 2.00254e-16)
(34.9887 0.334259 4.23947e-16)
(34.1442 -0.546786 -1.60623e-15)
(33.2216 -1.32845 -8.69632e-17)
(32.2281 -1.9853 2.78913e-15)
(31.1705 -2.50331 4.57198e-15)
(30.0306 -2.89394 0)
(28.7929 -3.18532 6.20127e-18)
(27.3956 -3.40361 -5.55509e-15)
(25.7806 -3.5356 0)
(23.7255 -3.51393 -1.13371e-14)
(21.364 -3.15644 0)
(17.0039 -2.63223 -1.20138e-15)
(13.0961 14.4189 -2.70358e-17)
(12.4902 13.3068 6.63645e-17)
(11.9597 12.0015 0)
(11.5164 10.5361 0)
(11.245 8.98599 4.87219e-16)
(11.1655 7.36729 2.27213e-15)
(11.2943 5.72376 0)
(11.6318 4.13883 -1.07245e-15)
(12.1597 2.68455 -1.01931e-15)
(12.8511 1.38907 1.0191e-15)
(13.6625 0.274634 -4.54878e-17)
(14.5498 -0.647312 4.29257e-16)
(15.4832 -1.38711 3.16697e-17)
(16.4307 -1.96073 1.0757e-15)
(17.3705 -2.38402 9.25587e-16)
(18.2875 -2.68025 -8.47207e-16)
(19.1747 -2.87069 1.10926e-16)
(20.0293 -2.9727 -2.00868e-16)
(20.849 -2.99934 9.01711e-17)
(21.6415 -2.9589 4.68431e-16)
(22.4089 -2.85516 5.66354e-17)
(23.1548 -2.68646 -2.73697e-17)
(23.8772 -2.44479 -1.20934e-16)
(24.5582 -2.12044 0)
(25.1754 -1.71818 -5.06925e-18)
(25.7024 -1.26523 -2.39887e-16)
(26.1386 -0.78424 3.33159e-18)
(26.4947 -0.285376 -3.30408e-18)
(26.7692 0.225209 0)
(26.9683 0.738228 1.59699e-16)
(27.0919 1.24208 0)
(27.1419 1.72368 0)
(27.1256 2.1687 -1.29559e-15)
(27.044 2.56802 -1.22557e-15)
(26.8967 2.92412 0)
(26.6892 3.24594 -1.92321e-15)
(26.3347 3.55584 6.06142e-15)
(25.9269 3.77525 -1.79866e-17)
(24.7017 3.93705 -5.95806e-17)
(15.0007 14.6063 2.14243e-19)
(15.747 15.5221 -1.26185e-17)
(16.6576 16.4561 1.41395e-18)
(17.705 17.3475 -1.37404e-18)
(18.8565 18.1359 7.53316e-17)
(20.1435 18.83 0)
(21.5335 19.3932 -3.30834e-16)
(22.998 19.7953 -4.14439e-18)
(24.5254 20.0243 -3.21257e-16)
(26.0848 20.0675 -6.56649e-16)
(27.648 19.9172 0)
(29.1931 19.5713 -1.60638e-15)
(30.6909 19.0297 -1.38028e-15)
(32.1141 18.2965 -3.37619e-15)
(33.4369 17.3817 0)
(34.6313 16.3011 -2.09892e-15)
(35.6743 15.0753 -2.20628e-15)
(36.5432 13.7259 2.40791e-15)
(37.2196 12.2751 -2.36979e-15)
(37.6884 10.7572 2.20744e-15)
(37.9419 9.21121 2.71481e-16)
(37.9794 7.68071 -2.34297e-15)
(37.8055 6.20863 0)
(37.4437 4.83656 -2.0315e-15)
(36.9343 3.59338 1.19301e-16)
(36.3223 2.47013 8.96007e-16)
(35.6379 1.43487 0)
(34.8844 0.476766 -3.11423e-17)
(34.057 -0.397964 6.79791e-17)
(33.1508 -1.17215 2.64205e-15)
(32.1732 -1.82662 -2.46326e-15)
(31.1426 -2.35157 -4.31583e-15)
(30.0542 -2.75784 3.7229e-15)
(28.9024 -3.07031 -4.5188e-17)
(27.6482 -3.31127 5.26666e-15)
(26.2399 -3.46706 7.94465e-15)
(24.4475 -3.47354 5.44186e-15)
(22.3716 -3.13044 -4.19867e-17)
(18.3518 -2.62277 1.22025e-17)
(14.3735 13.6634 1.01377e-17)
(13.8179 12.6736 1.23425e-16)
(13.3203 11.5086 1.68421e-16)
(12.8916 10.1985 -3.22379e-16)
(12.6074 8.81634 -1.27102e-15)
(12.484 7.3652 3.72439e-16)
(12.5406 5.88084 8.83119e-16)
(12.775 4.44217 2.22501e-15)
(13.1784 3.10886 8.86668e-16)
(13.7269 1.90377 -8.2218e-16)
(14.3897 0.848612 -2.51595e-17)
(15.1317 -0.0448396 -3.80983e-16)
(15.9277 -0.783646 0)
(16.7572 -1.37954 -1.90818e-17)
(17.596 -1.84173 -5.77621e-16)
(18.4319 -2.18454 2.39023e-16)
(19.2548 -2.42387 -2.34693e-16)
(20.0595 -2.5744 0)
(20.8446 -2.64685 3.11194e-16)
(21.6071 -2.64823 -4.93547e-16)
(22.3519 -2.58128 0)
(23.0772 -2.4453 2.74916e-16)
(23.7804 -2.23576 0)
(24.4493 -1.9457 -1.50984e-18)
(25.0556 -1.57846 1.49506e-18)
(25.5835 -1.15646 1.02488e-16)
(26.0244 -0.70132 1.06661e-18)
(26.3845 -0.225336 2.86965e-18)
(26.67 0.263675 -2.08629e-18)
(26.8755 0.75657 1.39788e-16)
(27.0097 1.24241 2.953e-16)
(27.0721 1.71008 -5.86869e-16)
(27.0633 2.14712 -1.87784e-17)
(26.994 2.54425 2.61254e-17)
(26.8535 2.90183 0)
(26.6502 3.22424 -2.4878e-17)
(26.3077 3.52999 -2.7528e-15)
(25.9045 3.73056 -9.7255e-18)
(24.7911 3.86446 -9.64551e-17)
(16.0534 13.8461 3.69249e-18)
(16.7354 14.6728 1.6778e-17)
(17.568 15.5196 0)
(18.52 16.3293 -2.17941e-17)
(19.561 17.0463 3.51025e-17)
(20.725 17.683 0)
(21.9799 18.2076 -1.3397e-16)
(23.3025 18.5941 9.53296e-16)
(24.6858 18.8307 -1.32796e-15)
(26.1045 18.9031 4.25532e-16)
(27.5376 18.8024 5.72078e-16)
(28.9639 18.5248 2.06842e-15)
(30.36 18.0689 1.48712e-15)
(31.7009 17.434 1.75707e-15)
(32.9612 16.6245 4.67715e-16)
(34.1152 15.6513 1.53918e-15)
(35.1359 14.531 2.11525e-15)
(36.0036 13.2851 2.07432e-15)
(36.6931 11.941 -1.53216e-15)
(37.187 10.529 -4.67347e-15)
(37.4766 9.08302 0)
(37.5592 7.64085 7.77867e-17)
(37.4439 6.24108 1.8377e-15)
(37.1452 4.92 1.93e-15)
(36.697 3.70529 -1.09997e-16)
(36.1408 2.59731 -8.09538e-16)
(35.5006 1.57552 5.8734e-18)
(34.7869 0.631547 -4.17995e-16)
(33.9938 -0.230949 4.41883e-17)
(33.1136 -0.99854 -4.93043e-15)
(32.1583 -1.65619 -7.73559e-18)
(31.14 -2.19448 -6.7335e-17)
(30.0576 -2.61977 -3.54839e-15)
(28.9236 -2.94946 -4.68988e-17)
(27.7174 -3.20224 -4.90402e-15)
(26.4192 -3.36555 -1.50591e-14)
(24.835 -3.38454 5.13061e-15)
(23.0831 -3.05541 2.45731e-15)
(19.4997 -2.58056 -1.26953e-15)
(15.4741 12.9966 -4.36804e-17)
(14.9586 12.1086 -1.64699e-16)
(14.4891 11.0608 -1.16431e-16)
(14.0732 9.88037 -3.04179e-16)
(13.784 8.63581 6.94677e-16)
(13.6296 7.32301 -5.88273e-17)
(13.6325 5.97395 -2.20425e-15)
(13.7926 4.66223 -7.62421e-16)
(14.0981 3.43947 2.02421e-17)
(14.5374 2.32024 0)
(15.0805 1.32594 -6.94995e-16)
(15.7021 0.470316 6.31788e-16)
(16.3824 -0.252984 -5.96777e-16)
(17.1029 -0.852688 -3.04221e-16)
(17.8492 -1.33536 2.38473e-16)
(18.6054 -1.71055 2.37691e-16)
(19.3635 -1.98686 8.08572e-16)
(20.1154 -2.17516 -1.87293e-16)
(20.8581 -2.28513 -2.9169e-16)
(21.5904 -2.32282 0)
(22.3071 -2.29029 -3.70756e-16)
(23.0101 -2.18638 -2.31455e-16)
(23.6927 -2.00774 -1.12454e-17)
(24.3441 -1.75109 -1.55169e-17)
(24.9431 -1.41943 2.38388e-18)
(25.4653 -1.03024 -6.97365e-17)
(25.9098 -0.603929 4.99729e-18)
(26.2751 -0.153488 -4.95102e-17)
(26.5649 0.312189 -1.55523e-17)
(26.7817 0.783933 -1.29281e-16)
(26.9222 1.25191 -1.15639e-17)
(26.9947 1.70629 1.15675e-15)
(26.9971 2.13545 1.06105e-15)
(26.9335 2.52959 1.06137e-15)
(26.803 2.88661 2.94129e-17)
(26.6045 3.20617 -1.36178e-17)
(26.2702 3.50314 2.5104e-15)
(25.8768 3.68209 1.39245e-15)
(24.8552 3.78483 8.37255e-17)
(16.9672 13.1732 -1.01624e-17)
(17.5967 13.9229 -6.20937e-18)
(18.3623 14.6945 -3.92697e-18)
(19.2351 15.434 -5.46307e-17)
(20.1827 16.0893 7.62697e-17)
(21.2405 16.6751 -1.60363e-16)
(22.3813 17.1619 4.83477e-16)
(23.5805 17.5284 0)
(24.8368 17.7672 4.0649e-16)
(26.1283 17.8627 1.55259e-17)
(27.4369 17.8046 -4.97632e-16)
(28.7504 17.5873 -1.9149e-15)
(30.0433 17.2077 -7.72212e-16)
(31.2964 16.6656 0)
(32.4865 15.9616 0)
(33.588 15.1005 0)
(34.5774 14.0944 0)
(35.429 12.9614 -1.99437e-15)
(36.1253 11.7234 2.00183e-15)
(36.6446 10.4063 1.95928e-15)
(36.9737 9.04026 -1.58627e-15)
(37.1087 7.66224 1.38613e-15)
(37.0516 6.31214 -1.43445e-15)
(36.8196 5.02753 -1.05323e-16)
(36.4353 3.83592 -4.85536e-17)
(35.9336 2.74227 8.1761e-16)
(35.3432 1.73321 1.77812e-16)
(34.6713 0.801493 0)
(33.9177 -0.0522533 0)
(33.0752 -0.818405 3.54852e-17)
(32.1493 -1.48451 0)
(31.1538 -2.04028 3.73664e-15)
(30.0841 -2.48575 -3.36151e-15)
(28.9542 -2.83027 -5.50733e-15)
(27.7573 -3.08812 9.10107e-15)
(26.4938 -3.24717 7.13187e-15)
(25.0107 -3.26398 -4.86341e-15)
(23.5144 -2.93824 -4.74682e-15)
(20.4131 -2.4998 1.21765e-15)
(16.4284 12.4036 0)
(15.9485 11.6009 4.50704e-17)
(15.5023 10.6522 2.25379e-16)
(15.1022 9.58085 -9.49794e-16)
(14.8095 8.45351 8.35304e-16)
(14.6362 7.2564 -6.34491e-16)
(14.5982 6.02184 1.47698e-17)
(14.7008 4.81994 5.84068e-16)
(14.9339 3.69584 6.1468e-16)
(15.2839 2.65949 0)
(15.733 1.72656 2.8364e-16)
(16.2548 0.912125 -8.6413e-16)
(16.8363 0.212733 1.3316e-15)
(17.463 -0.379318 2.3272e-16)
(18.1207 -0.868714 -4.71528e-16)
(18.8024 -1.26338 -4.25123e-16)
(19.4953 -1.56836 -3.7585e-16)
(20.1933 -1.78845 0)
(20.8908 -1.93063 0)
(21.5854 -2.0008 0)
(22.2745 -2.00069 3.49384e-16)
(22.9506 -1.92895 0)
(23.6119 -1.78197 -1.59308e-16)
(24.2447 -1.55784 -1.62618e-17)
(24.8309 -1.26073 -1.84716e-17)
(25.3513 -0.904805 6.39898e-17)
(25.7936 -0.507903 0)
(26.1642 -0.0833054 4.24318e-17)
(26.4599 0.359763 1.64277e-17)
(26.6817 0.811758 -3.37141e-18)
(26.8338 1.26299 -5.04702e-16)
(26.9124 1.70472 -1.97854e-17)
(26.9244 2.12596 -1.03474e-15)
(26.8709 2.51607 9.47451e-16)
(26.7452 2.87082 0)
(26.5553 3.18554 2.14187e-17)
(26.2305 3.47134 -7.80069e-17)
(25.8456 3.62864 -1.32159e-15)
(24.9109 3.70003 5.30704e-18)
(17.7687 12.5717 1.18546e-17)
(18.3542 13.2543 0)
(19.0649 13.9584 1.85855e-17)
(19.8705 14.6346 1.00856e-17)
(20.7405 15.235 -4.33902e-17)
(21.7099 15.7744 1.49994e-16)
(22.7517 16.2251 -2.17314e-16)
(23.8479 16.5677 -2.63717e-16)
(24.9949 16.7976 0)
(26.1758 16.904 -4.37229e-16)
(27.3761 16.8749 -4.72229e-16)
(28.5841 16.7031 4.685e-16)
(29.7837 16.3829 1.72462e-15)
(30.9528 15.9119 6.87074e-16)
(32.074 15.2919 -2.08506e-15)
(33.1228 14.5249 -1.5032e-15)
(34.0753 13.617 1.18499e-15)
(34.91 12.5816 8.71803e-16)
(35.6023 11.4382 -4.41102e-16)
(36.1368 10.2136 4.40446e-16)
(36.4947 8.93574 1.11226e-15)
(36.6688 7.63569 2.07801e-16)
(36.6623 6.34981 -1.96688e-16)
(36.4844 5.11447 -1.31363e-15)
(36.1598 3.95724 0)
(35.7125 2.88593 -6.95725e-16)
(35.1668 1.89274 -3.34122e-16)
(34.5384 0.972421 -3.11363e-16)
(33.8234 0.124519 -1.16349e-15)
(33.0175 -0.642942 4.39311e-15)
(32.1275 -1.31846 1.82653e-15)
(31.1605 -1.89021 1.58149e-17)
(30.1144 -2.35274 3.13035e-17)
(29.0017 -2.70805 0)
(27.8137 -2.96671 -4.28379e-15)
(26.5599 -3.1173 0)
(25.1105 -3.12605 0)
(23.7495 -2.79394 2.28347e-15)
(21.0902 -2.38354 -2.20519e-17)
(17.2658 11.8701 -4.0005e-17)
(16.8146 11.1398 1.39918e-16)
(16.3915 10.2749 1.44935e-17)
(16.0043 9.29763 2.11988e-16)
(15.7143 8.26993 -7.31626e-16)
(15.526 7.1755 5.056e-16)
(15.4594 6.03963 2.25332e-17)
(15.5167 4.93218 -4.83351e-16)
(15.6926 3.89488 -4.65484e-16)
(15.9749 2.9345 -4.97933e-16)
(16.3444 2.06385 -9.63688e-16)
(16.7858 1.29354 0)
(17.2832 0.6219 -4.82853e-16)
(17.8278 0.0447018 -2.01901e-17)
(18.4079 -0.441953 0)
(19.0159 -0.844504 -3.73892e-16)
(19.6472 -1.16734 -1.75022e-16)
(20.2905 -1.41268 -1.59164e-16)
(20.9421 -1.58229 5.07733e-16)
(21.5968 -1.68018 4.227e-16)
(22.2518 -1.70865 -3.74025e-17)
(22.9028 -1.66679 2.64954e-16)
(23.539 -1.55123 3.4209e-17)
(24.1532 -1.35959 -1.67488e-17)
(24.7251 -1.09558 1.79051e-17)
(25.2381 -0.772131 -3.80196e-19)
(25.6822 -0.404899 0)
(26.0522 -0.00638315 0)
(26.3541 0.413906 3.03872e-18)
(26.5825 0.846342 -9.90965e-18)
(26.7399 1.28085 4.68693e-16)
(26.8301 1.70889 -1.94027e-17)
(26.8481 2.12022 -9.6066e-16)
(26.8037 2.50384 -9.10279e-16)
(26.6874 2.85367 -2.43892e-17)
(26.5016 3.16157 3.65376e-18)
(26.1899 3.43514 -4.36255e-15)
(25.8152 3.57198 1.20693e-15)
(24.9599 3.61378 -5.02516e-18)
(18.4781 12.0285 4.0739e-18)
(19.0241 12.6536 0)
(19.6868 13.2985 -1.51033e-17)
(20.4363 13.9166 0)
(21.2396 14.4659 -1.03255e-16)
(22.1332 14.9632 9.98378e-17)
(23.0912 15.3808 1.79316e-16)
(24.0947 15.7013 2.48091e-16)
(25.1479 15.9197 0)
(26.2304 16.0274 -3.04997e-16)
(27.3331 16.018 4.75853e-16)
(28.4472 15.882 -9.81189e-16)
(29.5555 15.6123 -5.4427e-16)
(30.6461 15.2038 -5.58854e-16)
(31.697 14.6555 1.32886e-15)
(32.6904 13.9711 1.43534e-15)
(33.6031 13.1545 -1.53619e-15)
(34.4121 12.2139 -1.53777e-15)
(35.098 11.164 0)
(35.6375 10.0265 4.06373e-16)
(36.0193 8.82957 -7.86e-16)
(36.2298 7.60324 1.92807e-16)
(36.2674 6.37961 3.44277e-18)
(36.1431 5.19299 3.10694e-15)
(35.871 4.07047 -1.70699e-16)
(35.4768 3.02232 1.01438e-16)
(34.9785 2.0449 3.10634e-16)
(34.389 1.13472 3.31491e-16)
(33.7133 0.291699 1.00344e-15)
(32.9434 -0.476585 -2.03024e-15)
(32.0869 -1.1582 -1.6781e-15)
(31.1537 -1.7407 -6.6553e-15)
(30.1366 -2.2146 5.8035e-15)
(29.0492 -2.57634 -8.26533e-17)
(27.8817 -2.83406 4.02809e-15)
(26.6424 -2.97638 -1.38214e-16)
(25.2083 -2.97846 8.02193e-17)
(23.8887 -2.63733 -2.33979e-17)
(21.5743 -2.2402 1.4516e-15)
(18.0051 11.3851 1.78582e-17)
(17.581 10.7169 -7.38649e-17)
(17.1774 9.92419 1.44068e-16)
(16.803 9.02833 0)
(16.5157 8.08635 4.12296e-16)
(16.3202 7.0824 0)
(16.23 6.037 0)
(16.2547 5.01201 0)
(16.3843 4.05045 8.71244e-16)
(16.6116 3.15819 -4.20342e-16)
(16.9196 2.34623 4.8526e-16)
(17.2908 1.62328 0)
(17.7191 0.983562 0)
(18.192 0.424948 -4.05703e-16)
(18.7027 -0.0529563 0)
(19.2451 -0.455881 3.49418e-16)
(19.8136 -0.787302 9.3918e-18)
(20.4049 -1.04953 0)
(21.0095 -1.24233 -3.67448e-16)
(21.6239 -1.36511 -5.06622e-16)
(22.2429 -1.41903 -3.20189e-16)
(22.8626 -1.40437 -2.41242e-16)
(23.4762 -1.31842 3.39515e-16)
(24.0684 -1.15891 0)
(24.6262 -0.92784 3.98527e-17)
(25.1297 -0.635599 -1.84629e-17)
(25.5702 -0.297286 -3.56168e-17)
(25.9442 0.0750478 0)
(26.2468 0.472218 9.62885e-18)
(26.4824 0.884544 9.19808e-17)
(26.6469 1.30187 -4.21769e-16)
(26.7428 1.71544 -1.89041e-17)
(26.7726 2.11524 8.83562e-16)
(26.7339 2.49041 -7.84744e-16)
(26.6265 2.83388 -2.22915e-18)
(26.4495 3.13428 -2.2121e-17)
(26.1469 3.39576 4.07919e-15)
(25.7856 3.5149 -1.13448e-15)
(25.0056 3.5302 -3.76429e-16)
(19.1092 11.5323 1.18168e-18)
(19.6216 12.108 -1.08692e-17)
(20.2419 12.7019 0)
(20.9407 13.2693 2.73338e-17)
(21.6881 13.7707 0)
(22.5157 14.2262 0)
(23.4011 14.6127 2.04427e-17)
(24.3265 14.9115 2.2734e-16)
(25.2933 15.1189 5.11293e-16)
(26.291 15.2248 1.26336e-15)
(27.3056 15.2246 7.1166e-16)
(28.3338 15.1143 8.12872e-16)
(29.361 14.8849 0)
(30.3735 14.5299 1.55757e-15)
(31.3595 14.0448 -5.49185e-16)
(32.2957 13.4302 0)
(33.1661 12.6922 1.30106e-15)
(33.9474 11.8368 1.47106e-15)
(34.6192 10.8745 0)
(35.1624 9.82156 1.45444e-15)
(35.557 8.70295 -1.42063e-15)
(35.7975 7.54901 0)
(35.8754 6.38966 -1.68569e-16)
(35.7961 5.25473 3.7947e-17)
(35.5757 4.16968 8.04875e-17)
(35.229 3.14642 1.21597e-15)
(34.7764 2.18569 -3.70702e-18)
(34.2287 1.28672 -3.30343e-17)
(33.5883 0.450125 -2.84476e-17)
(32.8554 -0.315942 6.13038e-17)
(32.034 -0.998874 1.69768e-15)
(31.1329 -1.58645 6.03402e-15)
(30.1483 -2.0669 5.88364e-17)
(29.0897 -2.43254 -4.53433e-15)
(27.948 -2.68964 -3.64945e-15)
(26.7327 -2.82613 -5.85197e-15)
(25.3229 -2.82543 -4.0874e-15)
(24.0039 -2.47937 6.84081e-17)
(21.9284 -2.08196 -1.37441e-15)
(18.6641 10.9406 -4.27976e-17)
(18.2634 10.3273 -1.62844e-16)
(17.8767 9.59956 3.254e-16)
(17.5163 8.77407 0)
(17.2317 7.90614 6.28422e-16)
(17.031 6.97963 0)
(16.9261 6.01565 -3.37878e-16)
(16.9225 5.06815 1.35006e-15)
(17.0181 4.17381 -1.03855e-15)
(17.2 3.3421 0)
(17.4569 2.58369 7.62786e-16)
(17.7729 1.90625 7.17137e-16)
(18.139 1.30281 0)
(18.5518 0.767443 -6.8268e-16)
(19.0007 0.301807 1.60377e-16)
(19.4835 -0.0965796 -1.60386e-16)
(19.9955 -0.430631 1.52491e-16)
(20.532 -0.70188 2.51687e-16)
(21.0915 -0.910904 -1.49694e-17)
(21.6647 -1.05569 2.67752e-16)
(22.2477 -1.13321 6.86034e-17)
(22.8346 -1.14298 -6.67682e-17)
(23.42 -1.08391 -1.64191e-16)
(23.9931 -0.954403 1.07238e-16)
(24.5332 -0.755693 -3.61e-17)
(25.0272 -0.494861 1.58212e-17)
(25.4621 -0.184839 3.3911e-17)
(25.835 0.161614 9.55452e-19)
(26.1432 0.535162 -1.01565e-17)
(26.3806 0.926608 -8.8018e-17)
(26.5532 1.32583 1.00705e-17)
(26.6567 1.72412 -1.83279e-17)
(26.6925 2.11143 -8.15395e-16)
(26.6656 2.47679 8.06523e-16)
(26.564 2.8126 -2.13864e-17)
(26.3953 3.10523 1.24285e-15)
(26.1065 3.35518 -1.93772e-15)
(25.7555 3.45922 0)
(25.0476 3.45131 3.50313e-16)
(19.6751 11.0767 6.26363e-18)
(20.1568 11.6074 0)
(20.7397 12.1564 0)
(21.3945 12.68 -7.26576e-17)
(22.0897 13.1409 -2.0237e-17)
(22.8616 13.5569 0)
(23.6826 13.9106 0)
(24.5389 14.1876 -7.6139e-16)
(25.4334 14.3828 -2.52276e-17)
(26.3509 14.4874 -3.21959e-17)
(27.2887 14.494 -1.65655e-15)
(28.2378 14.3995 -4.20909e-16)
(29.1896 14.201 8.15872e-16)
(30.1323 13.89 -5.79685e-17)
(31.0515 13.4611 0)
(31.9347 12.911 0)
(32.7594 12.2418 -3.58574e-15)
(33.5097 11.4619 -6.56929e-16)
(34.1644 10.5806 6.72605e-16)
(34.7034 9.60919 -1.40891e-15)
(35.1102 8.56754 2.68245e-15)
(35.3705 7.4824 1.27415e-15)
(35.4836 6.3845 -1.23401e-15)
(35.4474 5.3019 -1.38953e-15)
(35.2712 4.25646 2.21198e-16)
(34.9725 3.26041 -1.2012e-15)
(34.5624 2.31806 -1.3612e-16)
(34.0552 1.43212 3.07773e-17)
(33.4537 0.604879 -3.0682e-17)
(32.7551 -0.155445 1.05209e-16)
(31.9694 -0.835812 -3.76731e-17)
(31.1026 -1.42453 -2.98247e-15)
(30.1492 -1.90881 -1.03867e-16)
(29.1211 -2.27817 1.14351e-16)
(28.0081 -2.53668 0)
(26.82 -2.67053 5.43977e-15)
(25.4464 -2.66978 3.8145e-15)
(24.1264 -2.32536 0)
(22.2123 -1.91883 0)
(19.2539 10.5324 0)
(18.8727 9.96946 1.41615e-16)
(18.504 9.29894 -4.75419e-16)
(18.1551 8.53676 -2.33282e-16)
(17.8772 7.73262 -5.70527e-16)
(17.672 6.87321 0)
(17.5551 5.97883 0)
(17.5323 5.10193 -6.04163e-16)
(17.5976 4.2726 6.28056e-16)
(17.7454 3.49563 0)
(17.9592 2.78527 -3.15096e-16)
(18.2285 2.14987 -3.40022e-16)
(18.5451 1.58219 3.11263e-16)
(18.9024 1.07516 3.20581e-16)
(19.2986 0.626388 -5.76939e-16)
(19.7271 0.23548 0)
(20.187 -0.0972017 -1.21729e-16)
(20.6739 -0.372762 1.22156e-17)
(21.1847 -0.591353 5.05472e-16)
(21.7181 -0.752249 -8.56485e-17)
(22.2643 -0.85145 8.04915e-17)
(22.819 -0.884641 -4.89837e-17)
(23.3749 -0.850228 6.52322e-17)
(23.9233 -0.748129 -2.26612e-16)
(24.4486 -0.57968 -5.07873e-17)
(24.9296 -0.350112 -1.55768e-18)
(25.3589 -0.0690387 1.48485e-18)
(25.7289 0.251889 0)
(26.0378 0.602076 7.44948e-18)
(26.2823 0.972207 -6.88294e-17)
(26.4577 1.35265 1.74088e-16)
(26.57 1.73486 -3.85833e-16)
(26.6137 2.10892 1.54148e-15)
(26.5931 2.46374 -1.47408e-15)
(26.5035 2.79104 2.1803e-17)
(26.3405 3.07546 -1.17501e-15)
(26.0651 3.31431 -2.2863e-17)