/*--------------------------------*- C++ -*----------------------------------*\
| =========                 |                                                 |
| \\      /  F ield         | OpenFOAM: The Open Source CFD Toolbox           |
|  \\    /   O peration     | Version:  3.0.0                                 |
|   \\  /    A nd           | Web:      www.OpenFOAM.org                      |
|    \\/     M anipulation  |                                                 |
\*---------------------------------------------------------------------------*/
FoamFile
{
    version     2.0;
    format      ascii;
    class       volScalarField;
    location    "8.5";
    object      k;
}
// * * * * * * * * * * * * * * * * * * * * * * * * * * * * * * * * * * * * * //

dimensions      [0 2 -2 0 0 0 0];

internalField   nonuniform List<scalar> 
400
(
1.40471e-06
2.97426e-06
1.10478e-05
0.00010493
0.000339353
0.000531152
0.000626303
0.000671946
0.000685935
0.000685909
0.000644114
0.000606293
0.000544052
0.000490433
0.000424963
0.000364597
0.000302376
0.000238733
0.000167638
0.000100248
4.85494e-06
1.77735e-05
6.43989e-05
0.000196205
0.000302138
0.00034558
0.000356684
0.000359134
0.00035961
0.000367797
0.00038123
0.000408991
0.000439667
0.000472445
0.000507551
0.000533798
0.000544965
0.000543207
0.000497981
0.000452917
1.50376e-05
7.12049e-05
0.000154327
0.000237389
0.000297476
0.000326646
0.00035318
0.000379196
0.000420112
0.000453704
0.000485869
0.000507092
0.000529595
0.000557611
0.000594316
0.00064074
0.000690845
0.000721782
0.00076675
0.00089498
4.14264e-05
0.000120654
0.000190728
0.000255231
0.000306944
0.000344632
0.000398079
0.000440563
0.000469669
0.000487699
0.000503717
0.000514196
0.000532538
0.000559339
0.000602885
0.000663086
0.000743674
0.000826551
0.000896548
0.00117814
7.40911e-05
0.0001508
0.000215354
0.000275835
0.00032924
0.000375426
0.000409117
0.000424778
0.000427908
0.000410544
0.000400775
0.00039811
0.000416916
0.000453879
0.00052002
0.000618909
0.000751166
0.000882082
0.00100981
0.00139522
0.000113359
0.000170759
0.000227712
0.000289107
0.00034278
0.000373381
0.000386466
0.00036613
0.000323331
0.000295754
0.000283405
0.000280079
0.000297132
0.000334435
0.000403033
0.000517866
0.000702173
0.000906654
0.00109475
0.00155678
0.000153913
0.000171387
0.000233385
0.000297542
0.000340801
0.000356481
0.000335521
0.000282056
0.000237477
0.000214862
0.000205156
0.000203752
0.000224223
0.000258157
0.00031935
0.00042618
0.000629846
0.000912417
0.00117901
0.00169408
0.000201525
0.000169159
0.000231961
0.000298343
0.000331076
0.000327618
0.000282086
0.000220759
0.000182064
0.000163615
0.000157015
0.000159662
0.000179701
0.000211918
0.000264299
0.000355386
0.000553806
0.000892197
0.00125667
0.00180677
0.000243017
0.000164527
0.000227954
0.000294264
0.000316045
0.00030276
0.000246368
0.000183365
0.00014843
0.000132246
0.000127053
0.000132585
0.000151764
0.000182623
0.000229534
0.000307157
0.000487056
0.000861306
0.00133365
0.00191265
0.000294593
0.000154447
0.00021938
0.000286982
0.000308217
0.000286482
0.00022296
0.000160562
0.000128529
0.000114178
0.000109841
0.00011597
0.000133548
0.000164463
0.000207097
0.000276688
0.000432614
0.000829002
0.0014089
0.00201078
0.000331423
0.000150882
0.000206373
0.000274216
0.000298113
0.000277191
0.000220087
0.000160579
0.000125575
0.000108507
0.000103642
0.000109154
0.000124729
0.00015569
0.000196069
0.000260047
0.000394017
0.000796299
0.00147938
0.00211442
0.000363614
0.000153586
0.000187785
0.000260211
0.000290179
0.000275218
0.000225305
0.000167053
0.000130641
0.000111687
0.000106452
0.000109709
0.000122472
0.000152791
0.000192118
0.000252301
0.000375557
0.000775879
0.00154935
0.00222535
0.000362747
0.000159326
0.000171002
0.000236832
0.000275094
0.00027023
0.000239932
0.000183435
0.000145453
0.000123431
0.000117904
0.000121359
0.000132943
0.000160432
0.000194162
0.00025027
0.000367657
0.000766035
0.001621
0.00235743
0.000343484
0.000171226
0.000163549
0.000204651
0.000259456
0.000261924
0.000248815
0.000214932
0.000178408
0.000152035
0.000144192
0.00014724
0.000157267
0.000180881
0.000209394
0.000259001
0.000366611
0.000765006
0.00171698
0.00251879
0.000291948
0.000169669
0.000156419
0.000174939
0.000225234
0.000243584
0.000242407
0.000232354
0.00021218
0.000193809
0.000183942
0.000185686
0.000192559
0.000208239
0.000228068
0.000273379
0.000382987
0.000801364
0.0018481
0.00273405
0.000182361
0.00015343
0.000147337
0.000159819
0.000197722
0.000225573
0.000230493
0.00022843
0.000222185
0.000216035
0.000212448
0.000213621
0.00021627
0.000224755
0.000242697
0.000291992
0.000416773
0.000870275
0.0020209
0.00302092
5.44295e-05
0.000108005
0.000125142
0.000134539
0.000155295
0.000183667
0.000197217
0.000204426
0.00020604
0.000206775
0.000208336
0.000212429
0.000218802
0.000232865
0.000261886
0.000337063
0.000505785
0.00103028
0.00231127
0.00343616
3.00338e-05
7.09828e-05
0.000102886
0.00012652
0.000147644
0.000172069
0.000186663
0.000197335
0.000202858
0.000210249
0.000217
0.000231223
0.000248914
0.000288836
0.000359107
0.000527626
0.000789603
0.00144204
0.00289082
0.00408207
0.000147768
0.000308963
0.000374491
0.000406852
0.000431185
0.00047104
0.000501467
0.000556482
0.000597615
0.000678636
0.000742351
0.000864869
0.000972495
0.00116537
0.0013327
0.00173303
0.0021425
0.00297984
0.00454703
0.00527962
0.00307287
0.00593669
0.00682151
0.00681318
0.00672411
0.00661732
0.00654306
0.00652886
0.00653239
0.00655311
0.00658034
0.00664123
0.00669475
0.00678022
0.00688544
0.00697517
0.00706655
0.00719821
0.00769828
0.00672046
)
;

boundaryField
{
    movingWall
    {
        type            kqRWallFunction;
        value           nonuniform List<scalar> 
20
(
0.00307287
0.00593669
0.00682151
0.00681318
0.00672411
0.00661732
0.00654306
0.00652886
0.00653239
0.00655311
0.00658034
0.00664123
0.00669475
0.00678022
0.00688544
0.00697517
0.00706655
0.00719821
0.00769828
0.00672046
)
;
    }
    fixedWalls
    {
        type            kqRWallFunction;
        value           nonuniform List<scalar> 
60
(
1.40471e-06
4.85494e-06
1.50376e-05
4.14264e-05
7.40911e-05
0.000113359
0.000153913
0.000201525
0.000243017
0.000294593
0.000331423
0.000363614
0.000362747
0.000343484
0.000291948
0.000182361
5.44295e-05
3.00338e-05
0.000147768
0.00307287
0.000100248
0.000452917
0.00089498
0.00117814
0.00139522
0.00155678
0.00169408
0.00180677
0.00191265
0.00201078
0.00211442
0.00222535
0.00235743
0.00251879
0.00273405
0.00302092
0.00343616
0.00408207
0.00527962
0.00672046
1.40471e-06
2.97426e-06
1.10478e-05
0.00010493
0.000339353
0.000531152
0.000626303
0.000671946
0.000685935
0.000685909
0.000644114
0.000606293
0.000544052
0.000490433
0.000424963
0.000364597
0.000302376
0.000238733
0.000167638
0.000100248
)
;
    }
    frontAndBack
    {
        type            empty;
    }
}


// ************************************************************************* //
