/*--------------------------------*- C++ -*----------------------------------*\
| =========                 |                                                 |
| \\      /  F ield         | OpenFOAM: The Open Source CFD Toolbox           |
|  \\    /   O peration     | Version:  3.0.0                                 |
|   \\  /    A nd           | Web:      www.OpenFOAM.org                      |
|    \\/     M anipulation  |                                                 |
\*---------------------------------------------------------------------------*/
FoamFile
{
    version     2.0;
    format      ascii;
    class       volScalarField;
    location    "8.5";
    object      nut;
}
// * * * * * * * * * * * * * * * * * * * * * * * * * * * * * * * * * * * * * //

dimensions      [0 2 -1 0 0 0 0];

internalField   nonuniform List<scalar> 
400
(
1.09728e-08
2.32297e-08
8.62186e-08
8.11569e-07
2.56819e-06
3.95145e-06
4.62087e-06
4.9382e-06
5.03498e-06
5.03479e-06
4.74497e-06
4.48096e-06
4.04281e-06
3.66161e-06
3.19133e-06
2.75291e-06
2.29606e-06
1.82344e-06
1.28892e-06
7.75693e-07
3.79114e-08
3.55351e-07
8.6435e-07
2.34188e-06
3.60097e-06
4.73826e-06
5.68931e-06
6.86228e-06
8.08009e-06
9.42526e-06
1.04996e-05
1.15546e-05
1.20485e-05
1.20785e-05
1.19699e-05
1.11289e-05
9.73164e-06
7.85523e-06
5.33812e-06
3.39278e-06
1.17311e-07
1.43344e-06
2.67881e-06
4.09743e-06
6.28564e-06
8.89509e-06
1.17331e-05
1.47961e-05
1.78382e-05
2.00413e-05
2.16894e-05
2.21524e-05
2.17907e-05
2.11283e-05
1.97828e-05
1.79582e-05
1.5322e-05
1.18469e-05
8.35469e-06
6.45508e-06
3.22354e-07
2.54545e-06
4.06828e-06
6.31918e-06
1.05759e-05
1.48619e-05
2.07447e-05
2.57474e-05
2.97462e-05
3.23084e-05
3.40261e-05
3.48272e-05
3.42298e-05
3.30464e-05
3.06457e-05
2.72351e-05
2.26634e-05
1.69854e-05
1.07956e-05
8.30556e-06
5.74729e-07
3.51981e-06
5.65725e-06
9.50317e-06
1.60345e-05
2.24841e-05
2.9623e-05
3.44956e-05
3.88629e-05
3.96433e-05
3.98937e-05
3.98787e-05
3.93096e-05
3.8412e-05
3.68224e-05
3.40629e-05
2.93183e-05
2.19715e-05
1.34827e-05
9.67176e-06
8.76054e-07
4.4102e-06
7.25732e-06
1.3048e-05
2.16286e-05
2.89443e-05
3.69467e-05
4.03433e-05
4.13254e-05
4.10277e-05
4.096e-05
4.08475e-05
4.03657e-05
4.00906e-05
3.93987e-05
3.79578e-05
3.46403e-05
2.69725e-05
1.62484e-05
1.06612e-05
1.18492e-06
4.86272e-06
8.73266e-06
1.64173e-05
2.61818e-05
3.39891e-05
4.07455e-05
4.08439e-05
4.06295e-05
4.01097e-05
3.97284e-05
3.95515e-05
3.94651e-05
3.94481e-05
3.92493e-05
3.86815e-05
3.72882e-05
3.14021e-05
1.91726e-05
1.14847e-05
1.54457e-06
5.15626e-06
9.90472e-06
1.91908e-05
2.94968e-05
3.68337e-05
4.15561e-05
3.99778e-05
3.92498e-05
3.85591e-05
3.82513e-05
3.83651e-05
3.89499e-05
3.93181e-05
3.92957e-05
3.88646e-05
3.84694e-05
3.45171e-05
2.22982e-05
1.21492e-05
1.85542e-06
5.28656e-06
1.07154e-05
2.07732e-05
3.07148e-05
3.79386e-05
4.149e-05
3.89139e-05
3.76123e-05
3.6633e-05
3.62541e-05
3.66865e-05
3.76531e-05
3.8257e-05
3.84176e-05
3.8056e-05
3.8312e-05
3.65175e-05
2.51453e-05
1.27646e-05
2.23856e-06
5.12497e-06
1.10635e-05
2.1601e-05
3.19269e-05
3.8878e-05
4.09434e-05
3.78474e-05
3.61172e-05
3.49274e-05
3.446e-05
3.49155e-05
3.6033e-05
3.72666e-05
3.76223e-05
3.73287e-05
3.75782e-05
3.77188e-05
2.83234e-05
1.33274e-05
2.50996e-06
4.77861e-06
1.07692e-05
2.08825e-05
3.08702e-05
3.76591e-05
4.02429e-05
3.77742e-05
3.54298e-05
3.39039e-05
3.3447e-05
3.39658e-05
3.48805e-05
3.6569e-05
3.70184e-05
3.65875e-05
3.62281e-05
3.7831e-05
3.07843e-05
1.39142e-05
2.74573e-06
4.29199e-06
9.65282e-06
1.95593e-05
2.95222e-05
3.66054e-05
3.98026e-05
3.78604e-05
3.56131e-05
3.39752e-05
3.33286e-05
3.34508e-05
3.43305e-05
3.61693e-05
3.66474e-05
3.60546e-05
3.5398e-05
3.76391e-05
3.32026e-05
1.45338e-05
2.73939e-06
3.73691e-06
8.30959e-06
1.71462e-05
2.67118e-05
3.39942e-05
3.90682e-05
3.78316e-05
3.61167e-05
3.45697e-05
3.38204e-05
3.39115e-05
3.43944e-05
3.55441e-05
3.54572e-05
3.52018e-05
3.48222e-05
3.73951e-05
3.50124e-05
1.52606e-05
2.59846e-06
3.20187e-06
6.95845e-06
1.37238e-05
2.34986e-05
3.03297e-05
3.62821e-05
3.86041e-05
3.76822e-05
3.62786e-05
3.53263e-05
3.52806e-05
3.53571e-05
3.569e-05
3.51836e-05
3.40269e-05
3.31318e-05
3.62447e-05
3.55845e-05
1.6133e-05
2.21899e-06
2.68878e-06
5.52279e-06
1.01669e-05
1.79796e-05
2.46879e-05
3.00499e-05
3.43093e-05
3.58424e-05
3.62397e-05
3.58388e-05
3.57364e-05
3.55365e-05
3.49984e-05
3.36722e-05
3.23433e-05
3.19503e-05
3.56797e-05
3.65099e-05
1.72715e-05
1.4002e-06
2.08755e-06
4.04876e-06
7.67511e-06
1.34504e-05
1.9645e-05
2.44089e-05
2.82588e-05
3.0727e-05
3.21947e-05
3.29316e-05
3.28758e-05
3.23718e-05
3.14792e-05
3.03821e-05
2.97048e-05
3.03519e-05
3.46009e-05
3.66033e-05
1.87463e-05
4.23008e-07
1.49487e-06
2.83384e-06
4.72169e-06
7.80118e-06
1.21279e-05
1.6033e-05
1.95375e-05
2.22369e-05
2.40179e-05
2.53754e-05
2.57611e-05
2.59159e-05
2.59454e-05
2.60432e-05
2.70779e-05
2.94372e-05
3.39655e-05
3.67725e-05
2.08019e-05
2.3396e-07
1.12121e-06
2.28317e-06
3.81266e-06
5.78253e-06
8.35992e-06
1.08213e-05
1.31149e-05
1.50699e-05
1.67027e-05
1.80336e-05
1.90996e-05
2.0009e-05
2.15577e-05
2.3563e-05
2.71099e-05
3.04587e-05
3.38105e-05
3.68634e-05
2.38334e-05
1.13827e-06
5.83474e-06
7.73761e-06
9.44639e-06
1.12642e-05
1.35596e-05
1.55831e-05
1.80597e-05
1.96746e-05
2.21183e-05
2.35886e-05
2.59499e-05
2.75428e-05
2.97965e-05
3.13763e-05
3.40396e-05
3.50543e-05
3.49097e-05
3.79039e-05
2.90042e-05
1.90084e-05
3.16336e-05
3.49811e-05
3.49505e-05
3.46226e-05
3.42268e-05
3.39499e-05
3.38969e-05
3.39101e-05
3.39876e-05
3.40892e-05
3.43159e-05
3.45142e-05
3.48296e-05
3.52153e-05
3.55421e-05
3.5873e-05
3.63463e-05
3.81082e-05
3.46093e-05
)
;

boundaryField
{
    movingWall
    {
        type            nutkWallFunction;
        Cmu             0.09;
        kappa           0.41;
        E               9.8;
        value           nonuniform List<scalar> 
20
(
0
0
0
0
0
0
0
0
0
0
0
0
0
0
0
0
0
5.97299e-08
3.30033e-07
0
)
;
    }
    fixedWalls
    {
        type            nutkWallFunction;
        Cmu             0.09;
        kappa           0.41;
        E               9.8;
        value           uniform 0;
    }
    frontAndBack
    {
        type            empty;
    }
}


// ************************************************************************* //
