/*--------------------------------*- C++ -*----------------------------------*\
| =========                 |                                                 |
| \\      /  F ield         | OpenFOAM: The Open Source CFD Toolbox           |
|  \\    /   O peration     | Version:  3.0.0                                 |
|   \\  /    A nd           | Web:      www.OpenFOAM.org                      |
|    \\/     M anipulation  |                                                 |
\*---------------------------------------------------------------------------*/
FoamFile
{
    version     2.0;
    format      ascii;
    class       volScalarField;
    location    "8.5";
    object      omega;
}
// * * * * * * * * * * * * * * * * * * * * * * * * * * * * * * * * * * * * * //

dimensions      [0 0 -1 0 0 0 0];

internalField   nonuniform List<scalar> 
400
(
128.017
128.037
128.137
129.293
132.137
134.42
135.538
136.071
136.234
136.234
135.747
135.304
134.573
133.939
133.162
132.441
131.693
130.925
130.061
129.236
128.06
50.0167
74.5055
83.7811
83.9047
72.9339
62.6937
52.3345
44.5057
39.0225
36.309
35.3963
36.4913
39.1145
42.4022
47.9649
55.9993
69.1522
93.2877
133.494
128.186
49.6741
57.6103
57.9362
47.3263
36.722
30.1012
25.6282
23.5513
22.6384
22.4012
22.8911
24.3037
26.3917
30.042
35.6796
45.0885
60.9256
91.7748
138.647
128.512
47.3999
46.8817
40.3899
29.023
23.1889
19.1894
17.111
15.7892
15.0951
14.8038
14.7642
15.5577
16.9259
19.6727
24.3467
32.8138
48.6624
83.0478
141.85
128.915
42.8432
38.0669
29.0255
20.5332
16.6974
13.8108
12.314
11.0107
10.356
10.0461
9.98301
10.6059
11.8161
14.1224
18.1696
25.6211
40.1467
74.8967
144.257
129.397
38.7192
31.3769
22.1572
15.8485
12.9
10.4601
9.07535
7.82401
7.20864
6.91905
6.85669
7.361
8.34199
10.2296
13.6432
20.2704
33.614
67.3759
146.023
129.893
35.2451
26.7255
18.1237
13.0167
10.4881
8.23456
6.90572
5.84494
5.35685
5.16396
5.15156
5.68156
6.54423
8.13644
11.0177
16.8913
29.056
61.4947
147.507
130.473
32.8065
23.4193
15.5461
11.2241
8.89452
6.78807
5.52203
4.63861
4.24324
4.10484
4.16165
4.61365
5.38983
6.7259
9.14421
14.396
25.848
56.3576
148.714
130.977
31.1217
21.2734
14.1655
10.2897
7.98027
5.93801
4.71206
3.94633
3.61002
3.50451
3.614
4.03057
4.77358
5.9747
8.07119
12.7129
23.5861
53.0376
149.84
131.6
30.1362
19.8292
13.2856
9.65384
7.36873
5.44557
4.24234
3.55868
3.269
3.18749
3.32145
3.70628
4.41314
5.50462
7.41221
11.5124
21.9785
49.7432
150.875
132.043
31.5744
19.1632
13.1314
9.65699
7.36053
5.46896
4.25102
3.54432
3.20043
3.0987
3.21366
3.57589
4.25744
5.29654
7.10755
10.876
21.0488
48.0562
151.961
132.429
35.7844
19.4539
13.3037
9.82918
7.5185
5.66056
4.41235
3.66832
3.28732
3.19402
3.27972
3.56744
4.22433
5.24233
6.99775
10.6096
20.6137
46.6635
153.115
132.419
42.6358
20.5789
13.8126
10.2986
7.94931
6.14137
4.84873
4.02732
3.57049
3.48619
3.57871
3.86527
4.51362
5.47595
7.10958
10.5581
20.4849
46.2978
154.478
132.188
53.4768
23.5037
14.9122
11.0413
8.6359
6.8578
5.56761
4.73454
4.19075
4.08172
4.17341
4.44796
5.06812
5.95147
7.61166
11.0652
21.1067
48.2509
156.126
131.568
63.1024
28.3225
17.2067
12.5272
9.86652
8.06683
6.77233
5.91982
5.34796
5.13248
5.196
5.41861
5.94994
6.7732
8.45243
11.987
22.4599
50.6192
158.298
130.24
73.4974
36.3906
20.823
14.7001
11.4825
9.443
8.08352
7.23095
6.71026
6.45118
6.49784
6.68082
7.13978
7.98816
9.82977
13.7314
25.1518
55.2109
161.147
128.672
72.2504
44.16
28.4938
19.9066
15.1442
12.3007
10.4633
9.26566
8.6092
8.21018
8.24612
8.44279
8.97518
10.0558
12.4479
17.1819
30.3332
62.8532
165.185
128.372
63.3092
45.0627
33.1841
25.5327
20.5826
17.2495
15.0466
13.4612
12.5877
12.0331
12.1062
12.4401
13.3983
15.2403
19.4625
25.9237
42.6505
78.4198
171.275
129.819
52.9524
48.3988
43.0696
38.2792
34.7385
32.1801
30.8134
30.375
30.6821
31.4708
33.3284
35.3085
39.1109
42.4748
50.9121
61.1196
85.3585
119.962
182.03
161.658
187.67
195.006
194.938
194.212
193.337
192.727
192.61
192.639
192.809
193.033
193.532
193.971
194.668
195.524
196.251
196.988
198.045
202.011
194.181
)
;

boundaryField
{
    movingWall
    {
        Cmu             0.09;
        kappa           0.41;
        E               9.8;
        beta1           0.075;
        type            omegaWallFunction;
        value           nonuniform List<scalar> 
20
(
161.658
187.67
195.006
194.938
194.212
193.337
192.727
192.61
192.639
192.809
193.033
193.532
193.971
194.668
195.524
196.251
196.988
198.045
202.011
194.181
)
;
    }
    fixedWalls
    {
        Cmu             0.09;
        kappa           0.41;
        E               9.8;
        beta1           0.075;
        type            omegaWallFunction;
        value           nonuniform List<scalar> 
60
(
128.017
128.06
128.186
128.512
128.915
129.397
129.893
130.473
130.977
131.6
132.043
132.429
132.419
132.188
131.568
130.24
128.672
128.372
129.819
161.658
129.236
133.494
138.647
141.85
144.257
146.023
147.507
148.714
149.84
150.875
151.961
153.115
154.478
156.126
158.298
161.147
165.185
171.275
182.03
194.181
128.017
128.037
128.137
129.293
132.137
134.42
135.538
136.071
136.234
136.234
135.747
135.304
134.573
133.939
133.162
132.441
131.693
130.925
130.061
129.236
)
;
    }
    frontAndBack
    {
        type            empty;
    }
}


// ************************************************************************* //
