/*--------------------------------*- C++ -*----------------------------------*\
| =========                 |                                                 |
| \\      /  F ield         | OpenFOAM: The Open Source CFD Toolbox           |
|  \\    /   O peration     | Version:  3.0.0                                 |
|   \\  /    A nd           | Web:      www.OpenFOAM.org                      |
|    \\/     M anipulation  |                                                 |
\*---------------------------------------------------------------------------*/
FoamFile
{
    version     2.0;
    format      ascii;
    class       volScalarField;
    location    "8.5";
    object      p;
}
// * * * * * * * * * * * * * * * * * * * * * * * * * * * * * * * * * * * * * //

dimensions      [0 2 -2 0 0 0 0];

internalField   nonuniform List<scalar> 
400
(
6.57796e-08
-0.00010029
-0.000219119
-0.000214226
-0.000670284
-0.00207358
-0.00408474
-0.00611005
-0.00779225
-0.00895302
-0.00949096
-0.00928988
-0.00829207
-0.00647422
-0.00382796
-0.000475271
0.0032657
0.00665327
0.00877195
0.00926373
1.13104e-05
-7.2762e-05
-0.000171024
-0.00062555
-0.00169357
-0.0033832
-0.00531988
-0.00718187
-0.00875243
-0.00984136
-0.0103382
-0.0101776
-0.00931989
-0.00769382
-0.00529309
-0.00217369
0.00139941
0.00486557
0.0073754
0.00860926
0.000292958
-1.8963e-05
-0.000628683
-0.00174692
-0.00340978
-0.00534804
-0.00727897
-0.00905368
-0.0104963
-0.0114361
-0.0118354
-0.0116609
-0.0108854
-0.00948966
-0.00746369
-0.00483116
-0.00170498
0.00163276
0.00458211
0.00636037
0.000319783
-0.00030477
-0.00155281
-0.00336972
-0.00547535
-0.00756329
-0.00945185
-0.0110097
-0.0121572
-0.0128894
-0.0131879
-0.013026
-0.012379
-0.0112315
-0.00958039
-0.00744078
-0.0048479
-0.00189976
0.000991356
0.00287394
-0.000343817
-0.00123688
-0.00298383
-0.00524164
-0.00752399
-0.00956743
-0.0112759
-0.0126069
-0.013562
-0.0141575
-0.01439
-0.0142446
-0.0137059
-0.0127663
-0.0114302
-0.00971388
-0.00763173
-0.00519379
-0.00265296
-0.000904511
-0.00172952
-0.00276082
-0.00475319
-0.00709607
-0.00932554
-0.011212
-0.0127257
-0.0138789
-0.0147045
-0.0152137
-0.01541
-0.0152871
-0.0148389
-0.0140647
-0.0129744
-0.011588
-0.00992812
-0.00798091
-0.00600949
-0.00439935
-0.00350925
-0.00457442
-0.00655047
-0.00876152
-0.0108172
-0.012511
-0.0138548
-0.0148741
-0.0156051
-0.0160569
-0.0162361
-0.0161403
-0.0157683
-0.0151238
-0.0142206
-0.0130799
-0.0117494
-0.0102031
-0.00872061
-0.00734204
-0.00526946
-0.00625369
-0.00808436
-0.0101193
-0.0119762
-0.0134919
-0.0146997
-0.0156189
-0.0162804
-0.0166936
-0.0168657
-0.0167959
-0.0164848
-0.0159383
-0.0151736
-0.0142083
-0.0131221
-0.0118756
-0.010769
-0.00960542
-0.006649
-0.00755101
-0.0092215
-0.0110991
-0.0127875
-0.0141652
-0.0152739
-0.0161231
-0.0167377
-0.0171263
-0.0172957
-0.017246
-0.0169782
-0.0164985
-0.0158287
-0.0149744
-0.0140633
-0.0129923
-0.0121719
-0.0111797
-0.00752189
-0.00833145
-0.00988052
-0.0116531
-0.0132292
-0.0145243
-0.0155769
-0.0163884
-0.0169786
-0.0173549
-0.0175236
-0.0174855
-0.0172424
-0.0167987
-0.0161817
-0.0153701
-0.0146
-0.0135534
-0.0130069
-0.0120499
-0.0078165
-0.00857371
-0.0100437
-0.0117687
-0.0132976
-0.0145697
-0.0156083
-0.0164145
-0.0170023
-0.0173783
-0.0175479
-0.0175119
-0.0172735
-0.0168337
-0.0162268
-0.0153964
-0.0147332
-0.0135633
-0.0133062
-0.0122242
-0.00753166
-0.00828571
-0.00971583
-0.0114426
-0.0129891
-0.0142923
-0.0153607
-0.0161958
-0.0168059
-0.0171951
-0.0173679
-0.0173242
-0.0170693
-0.0166027
-0.0159538
-0.0151047
-0.0143648
-0.0131301
-0.0130808
-0.0117119
-0.00675518
-0.00755658
-0.00898037
-0.0107028
-0.012317
-0.0136917
-0.0148287
-0.0157266
-0.0163853
-0.0168033
-0.0169833
-0.0169234
-0.0166309
-0.0161032
-0.015376
-0.0144507
-0.0135518
-0.0123035
-0.0122565
-0.0106013
-0.00574033
-0.00654737
-0.00792291
-0.00957433
-0.0112614
-0.012743
-0.0139934
-0.0149952
-0.0157349
-0.0162019
-0.0163971
-0.0163153
-0.0159661
-0.0153457
-0.0144978
-0.0134283
-0.0123371
-0.0110399
-0.0108777
-0.00900883
-0.00474851
-0.00547485
-0.00667704
-0.00815615
-0.00983016
-0.0114329
-0.0128425
-0.0139943
-0.014853
-0.0153957
-0.0156203
-0.0155178
-0.0150988
-0.0143576
-0.0133449
-0.01207
-0.0107526
-0.0093193
-0.0089911
-0.00694429
-0.00414412
-0.00452812
-0.00530098
-0.006474
-0.00804397
-0.0097593
-0.0113687
-0.0127202
-0.0137439
-0.014398
-0.0146764
-0.0145641
-0.0140778
-0.0132011
-0.0119896
-0.0104581
-0.0088512
-0.00715042
-0.00656187
-0.00411471
-0.00405088
-0.00389063
-0.00391514
-0.0046156
-0.0060049
-0.00779366
-0.00961246
-0.0112024
-0.012441
-0.0132569
-0.0136356
-0.0135534
-0.0130147
-0.0120039
-0.0105766
-0.00874271
-0.00673854
-0.00455624
-0.00331552
0.000640896
-0.00364348
-0.00319723
-0.00247685
-0.00268919
-0.00390345
-0.00574871
-0.00774118
-0.00953553
-0.0109861
-0.0119873
-0.0124963
-0.0124768
-0.0119385
-0.0108608
-0.00925818
-0.00711497
-0.00456926
-0.00151518
0.00139552
0.00953754
-0.00431274
-0.002796
-0.00132241
-0.00118427
-0.00231518
-0.0041916
-0.00630332
-0.00826795
-0.00988437
-0.0110349
-0.0116571
-0.011726
-0.011217
-0.0101026
-0.00834366
-0.00584365
-0.00251932
0.00214024
0.008399
0.0231918
-0.00216606
0.000850141
0.000898432
0.000138117
-0.00125393
-0.00318811
-0.00536685
-0.00746003
-0.00918632
-0.0104231
-0.0110955
-0.0111875
-0.0106602
-0.00950752
-0.00760998
-0.00481132
-0.000256098
0.00689145
0.0179349
0.0358282
)
;

boundaryField
{
    movingWall
    {
        type            zeroGradient;
    }
    fixedWalls
    {
        type            zeroGradient;
    }
    frontAndBack
    {
        type            empty;
    }
}


// ************************************************************************* //
