/*--------------------------------*- C++ -*----------------------------------*\
| =========                 |                                                 |
| \\      /  F ield         | OpenFOAM: The Open Source CFD Toolbox           |
|  \\    /   O peration     | Version:  3.0.0                                 |
|   \\  /    A nd           | Web:      www.OpenFOAM.org                      |
|    \\/     M anipulation  |                                                 |
\*---------------------------------------------------------------------------*/
FoamFile
{
    version     2.0;
    format      ascii;
    class       surfaceScalarField;
    location    "8.5";
    object      phi;
}
// * * * * * * * * * * * * * * * * * * * * * * * * * * * * * * * * * * * * * //

dimensions      [0 3 -1 0 0 0 0];

internalField   nonuniform List<scalar> 
760
(
2.81103e-07
-2.81109e-07
1.97241e-07
8.38613e-08
-3.51557e-07
5.48798e-07
-1.61386e-06
1.2623e-06
-3.31343e-06
1.69957e-06
-4.87971e-06
1.56628e-06
-6.19295e-06
1.31325e-06
-7.22348e-06
1.03052e-06
-7.96084e-06
7.37361e-07
-8.46649e-06
5.05649e-07
-8.72789e-06
2.61404e-07
-8.78456e-06
5.66658e-08
-8.59463e-06
-1.89931e-07
-8.18903e-06
-4.05598e-07
-7.46823e-06
-7.20798e-07
-6.41662e-06
-1.0516e-06
-4.94018e-06
-1.47644e-06
-3.10356e-06
-1.83662e-06
-1.13609e-06
-1.96747e-06
-1.13609e-06
-1.60605e-07
-1.20504e-07
-9.74167e-07
8.97423e-07
-2.51092e-06
2.08556e-06
-4.25617e-06
3.00754e-06
-5.55167e-06
2.99507e-06
-6.635e-06
2.64961e-06
-7.51179e-06
2.19004e-06
-8.18195e-06
1.70068e-06
-8.68948e-06
1.24489e-06
-8.99551e-06
8.11681e-07
-9.11872e-06
3.84609e-07
-9.02517e-06
-3.68779e-08
-8.80248e-06
-4.12625e-07
-8.37134e-06
-8.36743e-07
-7.73811e-06
-1.35403e-06
-6.82042e-06
-1.96929e-06
-5.57518e-06
-2.72168e-06
-3.89689e-06
-3.51491e-06
-1.89048e-06
-3.97388e-06
-3.02657e-06
-9.09535e-07
7.89031e-07
-2.34105e-06
2.32894e-06
-3.88949e-06
3.63399e-06
-5.0499e-06
4.16795e-06
-5.92865e-06
3.87382e-06
-6.63617e-06
3.35713e-06
-7.14358e-06
2.69745e-06
-7.46932e-06
2.02642e-06
-7.6466e-06
1.42217e-06
-7.68847e-06
8.53549e-07
-7.65334e-06
3.4948e-07
-7.54966e-06
-1.40559e-07
-7.33255e-06
-6.29736e-07
-6.98919e-06
-1.1801e-06
-6.51627e-06
-1.82696e-06
-5.86065e-06
-2.62492e-06
-4.97298e-06
-3.60935e-06
-3.74399e-06
-4.7439e-06
-2.09688e-06
-5.62098e-06
-5.12345e-06
-1.28255e-06
2.07158e-06
-2.79616e-06
3.84256e-06
-4.04168e-06
4.87951e-06
-4.85473e-06
4.98101e-06
-5.41082e-06
4.42991e-06
-5.75428e-06
3.70059e-06
-5.93318e-06
2.87635e-06
-6.03654e-06
2.12978e-06
-6.08638e-06
1.47202e-06
-6.10417e-06
8.71341e-07
-6.06327e-06
3.08579e-07
-5.95678e-06
-2.47047e-07
-5.7656e-06
-8.20925e-07
-5.48664e-06
-1.45906e-06
-5.11168e-06
-2.20192e-06
-4.63069e-06
-3.10591e-06
-4.0112e-06
-4.22884e-06
-3.14155e-06
-5.61355e-06
-1.82083e-06
-6.94169e-06
-6.94429e-06
-1.35676e-06
3.42834e-06
-2.65067e-06
5.13646e-06
-3.55392e-06
5.78276e-06
-4.11797e-06
5.54506e-06
-4.43275e-06
4.74468e-06
-4.59494e-06
3.86278e-06
-4.69216e-06
2.97357e-06
-4.76309e-06
2.20071e-06
-4.79421e-06
1.50313e-06
-4.78986e-06
8.66999e-07
-4.7385e-06
2.5722e-07
-4.63259e-06
-3.52959e-07
-4.46099e-06
-9.92529e-07
-4.22208e-06
-1.69797e-06
-3.91349e-06
-2.51051e-06
-3.5361e-06
-3.4833e-06
-3.07958e-06
-4.68536e-06
-2.46294e-06
-6.23019e-06
-1.49532e-06
-7.90931e-06
-8.43961e-06
-1.163e-06
4.59134e-06
-2.16603e-06
6.1395e-06
-2.83553e-06
6.45226e-06
-3.22522e-06
5.93474e-06
-3.43076e-06
4.95023e-06
-3.54309e-06
3.97511e-06
-3.61952e-06
3.05e-06
-3.6727e-06
2.25389e-06
-3.6979e-06
1.52833e-06
-3.69023e-06
8.59336e-07
-3.64335e-06
2.10333e-07
-3.55086e-06
-4.45446e-07
-3.40529e-06
-1.13809e-06
-3.20449e-06
-1.89877e-06
-2.95062e-06
-2.76438e-06
-2.65012e-06
-3.7838e-06
-2.32109e-06
-5.01439e-06
-1.90795e-06
-6.64333e-06
-1.16633e-06
-8.65094e-06
-9.60594e-06
-8.9901e-07
5.49035e-06
-1.60431e-06
6.8448e-06
-2.08634e-06
6.93428e-06
-2.36098e-06
6.20939e-06
-2.51572e-06
5.10497e-06
-2.60898e-06
4.06838e-06
-2.67839e-06
3.11941e-06
-2.72523e-06
2.30073e-06
-2.74993e-06
1.55304e-06
-2.74805e-06
8.57449e-07
-2.71506e-06
1.77343e-07
-2.64535e-06
-5.15156e-07
-2.53304e-06
-1.2504e-06
-2.375e-06
-2.0568e-06
-2.17445e-06
-2.96493e-06
-1.93587e-06
-4.02238e-06
-1.6783e-06
-5.27196e-06
-1.37868e-06
-6.94294e-06
-9.35943e-07
-9.09368e-06
-1.05419e-05
-5.60853e-07
6.05121e-06
-1.04518e-06
7.32913e-06
-1.38896e-06
7.27806e-06
-1.57863e-06
6.39905e-06
-1.69655e-06
5.22289e-06
-1.7759e-06
4.14773e-06
-1.83943e-06
3.18294e-06
-1.88306e-06
2.34436e-06
-1.90887e-06
1.57884e-06
-1.91445e-06
8.63031e-07
-1.89733e-06
1.60221e-07
-1.85341e-06
-5.59071e-07
-1.77847e-06
-1.32534e-06
-1.66872e-06
-2.16655e-06
-1.52682e-06
-3.10684e-06
-1.3584e-06
-4.1908e-06
-1.1811e-06
-5.44926e-06
-9.8055e-07
-7.14349e-06
-6.89237e-07
-9.38499e-06
-1.12311e-05
-2.92853e-07
6.34406e-06
-5.593e-07
7.59557e-06
-7.5005e-07
7.46881e-06
-8.69121e-07
6.51813e-06
-9.55532e-07
5.3093e-06
-1.02036e-06
4.21256e-06
-1.0752e-06
3.23778e-06
-1.11437e-06
2.38352e-06
-1.14042e-06
1.6049e-06
-1.15269e-06
8.75297e-07
-1.15078e-06
1.58309e-07
-1.13245e-06
-5.77401e-07
-1.09557e-06
-1.36222e-06
-1.03616e-06
-2.22596e-06
-9.54916e-07
-3.18808e-06
-8.52737e-07
-4.29298e-06
-7.59102e-07
-5.54289e-06
-6.59825e-07
-7.24276e-06
-5.37837e-07
-9.50698e-06
-1.1769e-05
3.82303e-09
6.34024e-06
-9.76443e-08
7.69704e-06
-1.67216e-07
7.53838e-06
-2.21897e-07
6.57281e-06
-2.71013e-07
5.35841e-06
-3.16761e-07
4.25831e-06
-3.58069e-07
3.27909e-06
-3.90253e-07
2.41571e-06
-4.14952e-07
1.6296e-06
-4.32797e-07
8.93142e-07
-4.45166e-07
1.70678e-07
-4.51556e-07
-5.71012e-07
-4.52147e-07
-1.36163e-06
-4.43191e-07
-2.23491e-06
-4.28883e-07
-3.20239e-06
-4.00068e-07
-4.3218e-06
-4.06943e-07
-5.53602e-06
-4.01304e-07
-7.2484e-06
-3.78791e-07
-9.52949e-06
-1.21477e-05
2.52616e-07
6.08762e-06
3.56661e-07
7.59299e-06
4.27135e-07
7.46791e-06
4.15711e-07
6.58423e-06
3.94845e-07
5.37928e-06
3.68947e-07
4.2842e-06
3.41922e-07
3.30611e-06
3.17983e-07
2.43965e-06
2.95286e-07
1.65229e-06
2.72343e-07
9.16085e-07
2.46159e-07
1.96863e-07
2.1558e-07
-5.40433e-07
1.78956e-07
-1.325e-06
1.34551e-07
-2.19051e-06
9.40376e-08
-3.16188e-06
-3.4192e-09
-4.22434e-06
-3.06634e-08
-5.50877e-06
-1.7821e-07
-7.10086e-06
-2.82355e-07
-9.42535e-06
-1.24301e-05
5.16759e-07
5.57086e-06
8.19111e-07
7.29064e-06
1.00512e-06
7.2819e-06
1.03928e-06
6.55007e-06
1.04815e-06
5.37041e-06
1.04859e-06
4.28376e-06
1.04326e-06
3.31144e-06
1.03358e-06
2.44932e-06
1.01667e-06
1.6692e-06
9.90668e-07
9.42088e-07
9.5098e-07
2.36551e-07
8.95248e-07
-4.84701e-07
8.1935e-07
-1.24911e-06
7.25187e-07
-2.09634e-06
5.9674e-07
-3.03343e-06
4.64598e-07
-4.0922e-06
2.68275e-07
-5.31245e-06
-7.52794e-10
-6.83183e-06
-1.39094e-07
-9.28701e-06
-1.25692e-05
7.63852e-07
4.80701e-06
1.23135e-06
6.82315e-06
1.55826e-06
6.955e-06
1.69196e-06
6.41637e-06
1.74303e-06
5.31934e-06
1.77515e-06
4.25164e-06
1.79313e-06
3.29347e-06
1.79782e-06
2.44463e-06
1.78614e-06
1.68088e-06
1.75597e-06
9.72262e-07
1.70126e-06
2.91264e-07
1.61861e-06
-4.02056e-07
1.50161e-06
-1.1321e-06
1.34789e-06
-1.94263e-06
1.14826e-06
-2.83379e-06
9.25883e-07
-3.86982e-06
6.03343e-07
-4.98991e-06
2.76516e-07
-6.505e-06
1.84536e-08
-9.02894e-06
-1.25507e-05
1.01736e-06
3.78965e-06
1.66943e-06
6.17108e-06
2.08548e-06
6.53894e-06
2.32463e-06
6.17722e-06
2.43865e-06
5.20532e-06
2.52058e-06
4.16971e-06
2.57826e-06
3.23578e-06
2.61152e-06
2.41138e-06
2.61632e-06
1.67607e-06
2.58999e-06
9.98591e-07
2.52447e-06
3.56791e-07
2.41521e-06
-2.92799e-07
2.25447e-06
-9.71361e-07
2.03928e-06
-1.72744e-06
1.75832e-06
-2.55283e-06
1.42084e-06
-3.53234e-06
9.75734e-07
-4.54481e-06
5.40487e-07
-6.06975e-06
1.56887e-07
-8.64534e-06
-1.23939e-05
1.17878e-06
2.61088e-06
1.96921e-06
5.38064e-06
2.54547e-06
5.96268e-06
2.97294e-06
5.74974e-06
3.21957e-06
4.9587e-06
3.37686e-06
4.01242e-06
3.4809e-06
3.13174e-06
3.54355e-06
2.34872e-06
3.56298e-06
1.65665e-06
3.53776e-06
1.02381e-06
3.45829e-06
4.3626e-07
3.31712e-06
-1.51627e-07
3.10753e-06
-7.61767e-07
2.82412e-06
-1.44403e-06
2.44655e-06
-2.17526e-06
1.98066e-06
-3.06646e-06
1.39599e-06
-3.96014e-06
8.19762e-07
-5.49352e-06
3.05317e-07
-8.1309e-06
-1.20885e-05
1.23384e-06
1.37704e-06
2.11528e-06
4.4992e-06
2.82401e-06
5.25395e-06
3.44647e-06
5.12729e-06
3.89121e-06
4.51396e-06
4.19465e-06
3.70898e-06
4.39843e-06
2.92797e-06
4.52741e-06
2.21975e-06
4.58654e-06
1.59751e-06
4.57945e-06
1.0309e-06
4.49651e-06
5.19199e-07
4.33994e-06
4.94258e-09
4.08392e-06
-5.05741e-07
3.73035e-06
-1.09047e-06
3.24386e-06
-1.68877e-06
2.63207e-06
-2.45467e-06
1.88193e-06
-3.21001e-06
1.13642e-06
-4.74801e-06
4.88619e-07
-7.4831e-06
-1.15999e-05
7.26071e-07
6.50969e-07
1.89407e-06
3.33121e-06
2.93768e-06
4.21034e-06
3.83795e-06
4.22702e-06
4.54705e-06
3.80485e-06
5.05999e-06
3.19603e-06
5.41695e-06
2.57101e-06
5.64879e-06
1.98791e-06
5.76997e-06
1.47633e-06
5.79798e-06
1.00289e-06
5.72143e-06
5.9575e-07
5.53883e-06
1.87545e-07
5.2271e-06
-1.94016e-07
4.79607e-06
-6.59432e-07
4.18748e-06
-1.08017e-06
3.42861e-06
-1.6958e-06
2.5104e-06
-2.2918e-06
1.57575e-06
-3.81336e-06
7.03063e-07
-6.61041e-06
-1.08969e-05
8.70708e-08
5.63898e-07
1.13997e-06
2.27831e-06
2.3841e-06
2.9662e-06
3.62664e-06
2.98449e-06
4.68382e-06
2.74766e-06
5.51261e-06
2.36724e-06
6.11949e-06
1.96414e-06
6.54688e-06
1.56051e-06
6.80173e-06
1.22149e-06
6.91797e-06
8.86641e-07
6.88349e-06
6.30231e-07
6.73419e-06
3.36849e-07
6.43505e-06
1.05124e-07
5.98161e-06
-2.05993e-07
5.3368e-06
-4.35369e-07
4.53458e-06
-8.9358e-07
3.55488e-06
-1.31209e-06
2.48776e-06
-2.74624e-06
1.18976e-06
-5.31241e-06
-9.7071e-06
-1.08375e-06
1.64765e-06
-1.07639e-07
1.30219e-06
1.52009e-06
1.33848e-06
3.10867e-06
1.39591e-06
4.46014e-06
1.3962e-06
5.56765e-06
1.25972e-06
6.43553e-06
1.09626e-06
7.096e-06
9.00041e-07
7.56284e-06
7.54646e-07
7.8595e-06
5.89984e-07
8.01351e-06
4.76217e-07
8.02541e-06
3.24953e-07
7.89762e-06
2.32911e-07
7.61339e-06
7.8242e-08
7.20076e-06
-2.27397e-08
6.60289e-06
-2.95708e-07
5.86131e-06
-5.70519e-07
4.75864e-06
-1.64357e-06
2.67747e-06
-3.23124e-06
-7.02962e-06
1.64765e-06
2.94984e-06
4.28832e-06
5.68423e-06
7.08042e-06
8.34015e-06
9.43641e-06
1.03364e-05
1.10911e-05
1.16811e-05
1.21573e-05
1.24822e-05
1.27152e-05
1.27934e-05
1.27707e-05
1.2475e-05
1.19044e-05
1.02609e-05
7.02962e-06
)
;

boundaryField
{
    movingWall
    {
        type            calculated;
        value           uniform 0;
    }
    fixedWalls
    {
        type            calculated;
        value           uniform 0;
    }
    frontAndBack
    {
        type            empty;
        value           nonuniform 0();
    }
}


// ************************************************************************* //
