/*--------------------------------*- C++ -*----------------------------------*\
| =========                 |                                                 |
| \\      /  F ield         | OpenFOAM: The Open Source CFD Toolbox           |
|  \\    /   O peration     | Version:  3.0.0                                 |
|   \\  /    A nd           | Web:      www.OpenFOAM.org                      |
|    \\/     M anipulation  |                                                 |
\*---------------------------------------------------------------------------*/
FoamFile
{
    version     2.0;
    format      ascii;
    class       volVectorField;
    location    "8.5";
    object      U;
}
// * * * * * * * * * * * * * * * * * * * * * * * * * * * * * * * * * * * * * //

dimensions      [0 1 -1 0 0 0 0];

internalField   nonuniform List<vector> 
400
(
(0.00294398 -0.00389118 0)
(0.00770091 -0.00156707 0)
(-0.000501118 0.00147895 0)
(-0.0116372 0.00784303 0)
(-0.049333 0.0173075 0)
(-0.0872057 0.0162635 0)
(-0.114443 0.0135699 0)
(-0.138482 0.0112234 0)
(-0.153934 0.00874018 0)
(-0.166861 0.00632445 0)
(-0.173411 0.00394433 0)
(-0.176431 0.00208133 0)
(-0.175708 -0.00150158 0)
(-0.168371 -0.0036597 0)
(-0.156796 -0.00770631 0)
(-0.137193 -0.0105515 0)
(-0.11154 -0.0147917 0)
(-0.0777599 -0.0166832 0)
(-0.0423458 -0.0168184 0)
(-0.00789783 -0.00341966 0)
(0.000386744 -0.00848237 0)
(-0.00724719 0.004953 0)
(-0.0293725 0.0227766 0)
(-0.068062 0.045103 0)
(-0.101946 0.0476997 0)
(-0.125397 0.042233 0)
(-0.145048 0.0356224 0)
(-0.158652 0.0279734 0)
(-0.171175 0.0193614 0)
(-0.178181 0.0126934 0)
(-0.182904 0.00567294 0)
(-0.182774 -0.000345177 0)
(-0.179793 -0.0073987 0)
(-0.172505 -0.0147018 0)
(-0.161306 -0.0241659 0)
(-0.14439 -0.0350915 0)
(-0.121969 -0.048132 0)
(-0.0929252 -0.0599075 0)
(-0.0588516 -0.0619741 0)
(-0.0176319 -0.0376842 0)
(-0.0073453 0.00475985 0)
(-0.0293374 0.0333135 0)
(-0.0616328 0.0597776 0)
(-0.0929649 0.0722867 0)
(-0.11314 0.0682331 0)
(-0.12819 0.0598563 0)
(-0.139705 0.0479647 0)
(-0.148206 0.0361811 0)
(-0.152502 0.026499 0)
(-0.153893 0.0164912 0)
(-0.154161 0.00742027 0)
(-0.152476 -0.00183909 0)
(-0.149871 -0.0111698 0)
(-0.143681 -0.0216453 0)
(-0.135516 -0.0339408 0)
(-0.123342 -0.049176 0)
(-0.107349 -0.0678363 0)
(-0.0855093 -0.0886282 0)
(-0.0577017 -0.102911 0)
(-0.0216905 -0.08732 0)
(-0.0107393 0.0292633 0)
(-0.0406396 0.0631365 0)
(-0.0724391 0.0866161 0)
(-0.0930248 0.0907824 0)
(-0.105318 0.0824368 0)
(-0.113852 0.0701083 0)
(-0.118165 0.0556811 0)
(-0.120256 0.0418598 0)
(-0.121273 0.0289265 0)
(-0.122427 0.0171974 0)
(-0.122098 0.00651744 0)
(-0.120762 -0.0039792 0)
(-0.117727 -0.0147815 0)
(-0.112972 -0.0268706 0)
(-0.106327 -0.0410666 0)
(-0.0976778 -0.0585625 0)
(-0.0861996 -0.0804617 0)
(-0.0701053 -0.106645 0)
(-0.048935 -0.129455 0)
(-0.0188059 -0.12608 0)
(-0.0117536 0.0543727 0)
(-0.0433069 0.0892913 0)
(-0.0661793 0.105732 0)
(-0.0807474 0.104596 0)
(-0.0873278 0.0916364 0)
(-0.0914463 0.0759934 0)
(-0.0929678 0.0590421 0)
(-0.0946643 0.0437949 0)
(-0.0956291 0.0299194 0)
(-0.0961689 0.0173852 0)
(-0.0956006 0.00556918 0)
(-0.0941233 -0.00613221 0)
(-0.0912748 -0.0183299 0)
(-0.087121 -0.0318092 0)
(-0.0815909 -0.0474536 0)
(-0.0748077 -0.0664347 0)
(-0.0665404 -0.0903165 0)
(-0.0541389 -0.121212 0)
(-0.0391748 -0.152259 0)
(-0.0161963 -0.157969 0)
(-0.00992724 0.0787697 0)
(-0.0375969 0.112214 0)
(-0.0533206 0.121497 0)
(-0.0641828 0.1144 0)
(-0.0674818 0.0971137 0)
(-0.0701689 0.0788045 0)
(-0.071353 0.0606032 0)
(-0.0730149 0.0448087 0)
(-0.0737534 0.0304569 0)
(-0.0741123 0.0173009 0)
(-0.0735668 0.00461468 0)
(-0.0722368 -0.00810882 0)
(-0.0698043 -0.0214681 0)
(-0.0662907 -0.0361193 0)
(-0.0616713 -0.0528363 0)
(-0.056113 -0.0726314 0)
(-0.050105 -0.0968513 0)
(-0.0404519 -0.128836 0)
(-0.0330587 -0.167876 0)
(-0.00886563 -0.182967 0)
(-0.00827956 0.0999112 0)
(-0.0290776 0.128406 0)
(-0.0390832 0.132707 0)
(-0.0475909 0.120965 0)
(-0.0489778 0.100542 0)
(-0.0514345 0.0806095 0)
(-0.052598 0.061841 0)
(-0.0541263 0.0456489 0)
(-0.0547674 0.0308695 0)
(-0.0551469 0.0171536 0)
(-0.0547989 0.00377648 0)
(-0.0538116 -0.00978964 0)
(-0.0519518 -0.024147 0)
(-0.0492066 -0.0398757 0)
(-0.0455532 -0.0576525 0)
(-0.0409227 -0.0784582 0)
(-0.0368428 -0.10333 0)
(-0.0281843 -0.13659 0)
(-0.026494 -0.178384 0)
(-0.00658183 -0.203181 0)
(-0.00456506 0.114891 0)
(-0.018953 0.141654 0)
(-0.0261885 0.14226 0)
(-0.0321171 0.126157 0)
(-0.0325701 0.103427 0)
(-0.034861 0.0822657 0)
(-0.0359411 0.0630913 0)
(-0.0372921 0.0464928 0)
(-0.0379154 0.0313308 0)
(-0.0383464 0.0171683 0)
(-0.0382341 0.00327945 0)
(-0.0376428 -0.0109078 0)
(-0.0364152 -0.0259882 0)
(-0.0345204 -0.0425062 0)
(-0.0320264 -0.0609959 0)
(-0.0282908 -0.0824077 0)
(-0.0264904 -0.107316 0)
(-0.0188147 -0.141168 0)
(-0.0218229 -0.18509 0)
(-0.00201856 -0.218658 0)
(-0.00204928 0.124665 0)
(-0.0104707 0.148825 0)
(-0.0142333 0.147086 0)
(-0.0179129 0.128936 0)
(-0.0178746 0.105156 0)
(-0.0198933 0.0835495 0)
(-0.020804 0.0642115 0)
(-0.0219357 0.0472902 0)
(-0.0225333 0.0318309 0)
(-0.0229946 0.0173391 0)
(-0.0231036 0.00309219 0)
(-0.0229037 -0.0115249 0)
(-0.022312 -0.0271116 0)
(-0.0212662 -0.0442417 0)
(-0.0201028 -0.0633395 0)
(-0.0171127 -0.0853404 0)
(-0.0178262 -0.110331 0)
(-0.0105426 -0.144537 0)
(-0.017797 -0.189224 0)
(-0.000469301 -0.230873 0)
(0.00201211 0.127921 0)
(-0.00192263 0.154247 0)
(-0.00296163 0.151166 0)
(-0.00484466 0.131531 0)
(-0.00452121 0.107149 0)
(-0.0060105 0.0849476 0)
(-0.00663787 0.0652827 0)
(-0.00749861 0.0480314 0)
(-0.00802454 0.0323397 0)
(-0.00849469 0.0176419 0)
(-0.00880156 0.00320619 0)
(-0.00897454 -0.0116256 0)
(-0.0090283 -0.0274481 0)
(-0.00879364 -0.0448825 0)
(-0.00914426 -0.0642699 0)
(-0.00687566 -0.0864008 0)
(-0.0104488 -0.111387 0)
(-0.0036011 -0.145121 0)
(-0.0148849 -0.19059 0)
(0.00274661 -0.239734 0)
(0.00492353 0.125736 0)
(0.00493063 0.153988 0)
(0.00765719 0.150519 0)
(0.00767407 0.131305 0)
(0.00846316 0.107104 0)
(0.00757083 0.0852507 0)
(0.00720234 0.0657734 0)
(0.00661492 0.0485106 0)
(0.0061765 0.0327831 0)
(0.00570136 0.0180414 0)
(0.00520629 0.00359246 0)
(0.00468227 -0.0112516 0)
(0.00395384 -0.027072 0)
(0.0034465 -0.044541 0)
(0.00163452 -0.0640005 0)
(0.00291127 -0.0858499 0)
(-0.00337287 -0.111172 0)
(0.00306136 -0.143592 0)
(-0.0125549 -0.190425 0)
(0.00438622 -0.246036 0)
(0.00719642 0.118837 0)
(0.0127822 0.151573 0)
(0.0178577 0.149538 0)
(0.0198165 0.132514 0)
(0.021101 0.108249 0)
(0.0209548 0.0860941 0)
(0.0210095 0.0663875 0)
(0.0208218 0.0489846 0)
(0.020575 0.033238 0)
(0.0201519 0.0185534 0)
(0.0194808 0.00426071 0)
(0.0186293 -0.0103768 0)
(0.0171774 -0.0259364 0)
(0.0159193 -0.0431421 0)
(0.0128661 -0.0623109 0)
(0.0125339 -0.0836852 0)
(0.00400072 -0.108547 0)
(0.00953721 -0.139784 0)
(-0.0107765 -0.187619 0)
(0.00787181 -0.249529 0)
(0.0099534 0.107683 0)
(0.0191168 0.143083 0)
(0.0276973 0.143013 0)
(0.0318418 0.129849 0)
(0.0345321 0.106212 0)
(0.0352384 0.0848978 0)
(0.0357552 0.0658172 0)
(0.0359678 0.0488226 0)
(0.0359275 0.0334361 0)
(0.0355573 0.0190977 0)
(0.0346575 0.00522068 0)
(0.0334943 -0.00895243 0)
(0.0312126 -0.0239456 0)
(0.0292679 -0.0405982 0)
(0.0246484 -0.0589932 0)
(0.0228742 -0.0801233 0)
(0.0121048 -0.103429 0)
(0.01593 -0.134037 0)
(-0.00861541 -0.183296 0)
(0.0109414 -0.251047 0)
(0.0125839 0.08861 0)
(0.0261244 0.133948 0)
(0.0380194 0.137286 0)
(0.0431585 0.128158 0)
(0.0475948 0.106663 0)
(0.04959 0.0849382 0)
(0.0510021 0.0657342 0)
(0.0519542 0.0488493 0)
(0.0523773 0.0337638 0)
(0.05229 0.0198429 0)
(0.0512406 0.00654375 0)
(0.0498684 -0.00694824 0)
(0.0466796 -0.0210709 0)
(0.0440224 -0.0367899 0)
(0.0376208 -0.0540573 0)
(0.0344032 -0.0742837 0)
(0.0209214 -0.0957641 0)
(0.0225624 -0.126471 0)
(-0.00610581 -0.177243 0)
(0.0156425 -0.250771 0)
(0.0144698 0.067444 0)
(0.0304932 0.116616 0)
(0.0458844 0.12551 0)
(0.0545279 0.11934 0)
(0.0614778 0.101867 0)
(0.0657215 0.0817552 0)
(0.0684671 0.0635433 0)
(0.0702941 0.0475205 0)
(0.0711494 0.033308 0)
(0.0713551 0.0202544 0)
(0.0700328 0.00794926 0)
(0.0684426 -0.00449039 0)
(0.0641546 -0.0172943 0)
(0.0607748 -0.0316422 0)
(0.0523163 -0.0472431 0)
(0.0475641 -0.0660372 0)
(0.0308267 -0.0853515 0)
(0.0299337 -0.116236 0)
(-0.00336845 -0.169048 0)
(0.0202013 -0.249651 0)
(0.0152872 0.0389934 0)
(0.0342852 0.101957 0)
(0.0506069 0.115462 0)
(0.062325 0.112404 0)
(0.0724154 0.0981689 0)
(0.0801564 0.0798194 0)
(0.0855966 0.0622837 0)
(0.0893236 0.0467932 0)
(0.091172 0.0333452 0)
(0.0922113 0.0211896 0)
(0.0907597 0.0100311 0)
(0.0893382 -0.00112566 0)
(0.084022 -0.0123003 0)
(0.0800783 -0.0249499 0)
(0.0693681 -0.0383194 0)
(0.0628187 -0.0549856 0)
(0.0422078 -0.0717725 0)
(0.038603 -0.103222 0)
(-0.000550621 -0.15915 0)
(0.0262929 -0.245986 0)
(0.00213381 0.0117094 0)
(0.0289198 0.0733326 0)
(0.0506381 0.0935688 0)
(0.0673178 0.0947871 0)
(0.0824823 0.085293 0)
(0.094902 0.0712657 0)
(0.103984 0.0568555 0)
(0.110738 0.0431704 0)
(0.114022 0.0311045 0)
(0.116527 0.0202514 0)
(0.115002 0.0107113 0)
(0.11395 0.00129493 0)
(0.10734 -0.00761326 0)
(0.102611 -0.0177419 0)
(0.0894358 -0.0277551 0)
(0.0807005 -0.0412802 0)
(0.0563465 -0.0549072 0)
(0.0499899 -0.0869554 0)
(0.00347393 -0.14577 0)
(0.033894 -0.235703 0)
(-0.0096223 0.0183215 0)
(0.0136138 0.0637753 0)
(0.0368201 0.0789566 0)
(0.0597315 0.0794822 0)
(0.0813912 0.0723032 0)
(0.100961 0.0614362 0)
(0.115357 0.0503106 0)
(0.127014 0.0402416 0)
(0.132947 0.0311876 0)
(0.138267 0.0224029 0)
(0.137761 0.0150155 0)
(0.137795 0.00732543 0)
(0.131221 0.000948239 0)
(0.126469 -0.00687745 0)
(0.112571 -0.0134068 0)
(0.102728 -0.0243958 0)
(0.0773525 -0.0350539 0)
(0.0694478 -0.0671938 0)
(0.0157564 -0.124824 0)
(0.0488283 -0.207158 0)
(-0.0216495 -0.00206716 0)
(-0.0166136 0.0159254 0)
(0.0139004 0.0322606 0)
(0.0462437 0.0374217 0)
(0.0743093 0.0376931 0)
(0.0999274 0.0340303 0)
(0.119113 0.02908 0)
(0.135851 0.0229571 0)
(0.146304 0.0183088 0)
(0.155239 0.0133838 0)
(0.15874 0.00989662 0)
(0.161439 0.0054397 0)
(0.159188 0.00267962 0)
(0.156255 -0.00219772 0)
(0.147186 -0.00514478 0)
(0.139946 -0.0122973 0)
(0.120051 -0.0194879 0)
(0.112373 -0.0456692 0)
(0.0575413 -0.0892371 0)
(0.0823007 -0.153507 0)
(0.0389227 0.0794191 0)
(0.0393384 0.0483817 0)
(0.0700289 0.0296314 0)
(0.0998246 0.0230321 0)
(0.12657 0.0210632 0)
(0.153682 0.0189016 0)
(0.176469 0.0171713 0)
(0.19779 0.0150247 0)
(0.214031 0.0135558 0)
(0.228537 0.0116711 0)
(0.238445 0.0105264 0)
(0.247258 0.00882385 0)
(0.251921 0.00784893 0)
(0.255793 0.00605738 0)
(0.255343 0.0046852 0)
(0.252134 0.00215085 0)
(0.242511 0.00129348 0)
(0.226594 -0.00831007 0)
(0.172194 -0.0172265 0)
(0.157601 -0.0939679 0)
)
;

boundaryField
{
    movingWall
    {
        type            fixedValue;
        value           uniform (1 0 0);
    }
    fixedWalls
    {
        type            fixedValue;
        value           uniform (0 0 0);
    }
    frontAndBack
    {
        type            empty;
    }
}


// ************************************************************************* //
