/*--------------------------------*- C++ -*----------------------------------*\
| =========                 |                                                 |
| \\      /  F ield         | OpenFOAM: The Open Source CFD Toolbox           |
|  \\    /   O peration     | Version:  3.0.0                                 |
|   \\  /    A nd           | Web:      www.OpenFOAM.org                      |
|    \\/     M anipulation  |                                                 |
\*---------------------------------------------------------------------------*/
FoamFile
{
    version     2.0;
    format      ascii;
    class       volScalarField;
    location    "2.75";
    object      p;
}
// * * * * * * * * * * * * * * * * * * * * * * * * * * * * * * * * * * * * * //

dimensions      [0 2 -2 0 0 0 0];

internalField   nonuniform List<scalar> 
4096
(
0.0270876
0.0231909
0.023145
0.0175276
0.00829361
0.000391253
-0.00398693
-0.00646374
-0.00837776
-0.00779423
-0.0020666
0.00747904
0.0164991
0.0210294
0.021288
0.026095
0.0324207
0.0230988
0.0214687
0.0139238
0.002989
-0.00660676
-0.0128265
-0.015967
-0.0158031
-0.0110896
-0.00220345
0.00781234
0.0151599
0.0180945
0.0181444
0.0289637
0.0365388
0.0210328
0.0200448
0.0141743
0.00559155
-0.00160814
-0.0063523
-0.00937153
-0.0100424
-0.00605679
0.00294503
0.0133163
0.0206018
0.0221775
0.0199447
0.0338618
0.0337337
0.0143892
0.0151223
0.0125071
0.00784216
0.00397132
0.00129266
-0.000873549
-0.00152329
0.00220671
0.0107919
0.0203022
0.0257886
0.0244046
0.0187767
0.0331812
0.0232747
0.00320592
0.00616829
0.00774796
0.00801316
0.00842565
0.00873007
0.00836895
0.00849739
0.012085
0.0196341
0.0270113
0.0292919
0.0239551
0.0143182
0.025776
0.00665777
-0.010665
-0.00552762
0.000362432
0.00585307
0.010909
0.0145386
0.0162375
0.0172636
0.0204717
0.0264017
0.0311041
0.0297983
0.0205289
0.00712256
0.0128044
-0.0115384
-0.0242513
-0.0173599
-0.00772975
0.00234466
0.0113347
0.0175127
0.0204434
0.0217041
0.0240149
0.0281815
0.0304499
0.0262723
0.0142173
-0.00172355
-0.00278347
-0.0268244
-0.0343847
-0.0263058
-0.0140012
-0.000734112
0.0105623
0.0175939
0.0201087
0.0201804
0.02097
0.0234348
0.0241005
0.0186376
0.00589939
-0.0105485
-0.0171095
-0.0357363
-0.0387726
-0.0300942
-0.0164605
-0.00194059
0.00949313
0.0152212
0.0154591
0.0129356
0.0115608
0.0124777
0.0126431
0.00789807
-0.00311002
-0.0176446
-0.0268655
-0.036688
-0.0365771
-0.0278165
-0.0141321
-0.000579293
0.00863366
0.0110161
0.00746202
0.00175528
-0.00197082
-0.00227551
-0.00162475
-0.00391348
-0.0110674
-0.0215082
-0.0299572
-0.03028
-0.0285309
-0.0199123
-0.00783804
0.00291099
0.00794508
0.00566799
-0.00186779
-0.0103727
-0.0157757
-0.0166282
-0.0147527
-0.0137208
-0.0160134
-0.0213793
-0.026204
-0.018877
-0.0166975
-0.0086538
0.000852387
0.00722911
0.00699371
0.000116567
-0.0102954
-0.0201639
-0.0257015
-0.0260682
-0.0222504
-0.0180577
-0.0161508
-0.017064
-0.0173479
-0.00621576
-0.00372477
0.00325197
0.00936564
0.0105553
0.00521209
-0.00478258
-0.0157441
-0.0243577
-0.0282975
-0.0268321
-0.0214419
-0.0152437
-0.010989
-0.00928114
-0.00637639
0.00490046
0.00792076
0.0131317
0.0151
0.011025
0.00172281
-0.0093051
-0.018451
-0.0241223
-0.0251059
-0.0213009
-0.0145614
-0.00775057
-0.00303503
-0.000392423
0.00367844
0.0143931
0.017272
0.0200887
0.0173574
0.00848203
-0.00325063
-0.0135398
-0.0200604
-0.0222276
-0.0198661
-0.0137735
-0.00625787
0.000220639
0.00450743
0.00748778
0.0120607
0.0266418
0.0279202
0.0274359
0.0215947
0.0117994
0.00319858
-0.00154867
-0.00440249
-0.00723157
-0.00812691
-0.00418565
0.00406398
0.0125588
0.0178762
0.0203077
0.0243972
0.0283194
0.018543
0.0144439
0.00963617
0.00453083
3.65873e-05
-0.00466698
-0.0105141
-0.0159894
-0.0170626
-0.0106213
0.00192099
0.0150988
0.0236363
0.0257901
0.0282298
0.0309594
0.0197532
0.0165867
0.0103101
0.0017566
-0.00730037
-0.0162439
-0.0237407
-0.0265837
-0.0216959
-0.00958501
0.00489011
0.0161341
0.0213266
0.0214769
0.0281425
0.0346003
0.0200106
0.0178831
0.0129363
0.00611063
-0.000854521
-0.00783823
-0.0143823
-0.0173984
-0.0130824
-0.00137241
0.0124288
0.022459
0.0256226
0.0235698
0.0324415
0.0309133
0.0149658
0.0149077
0.0128864
0.00924841
0.00534232
0.00100521
-0.00358544
-0.00569236
-0.00139395
0.00925697
0.0209411
0.0278092
0.0272709
0.0219237
0.0308702
0.0202784
0.00544098
0.00773667
0.00933698
0.00980491
0.00972355
0.00868105
0.00675708
0.00618559
0.0105233
0.0195707
0.0280875
0.0307307
0.0257671
0.0167358
0.0232982
0.00577457
-0.00643513
-0.00198744
0.00327619
0.00806664
0.0119879
0.0142114
0.0147451
0.0154417
0.0193739
0.0264411
0.0316059
0.0301495
0.0212174
0.00899338
0.0114718
-0.00982115
-0.0181705
-0.0119264
-0.00351791
0.00495697
0.0120354
0.0163961
0.0180735
0.0190106
0.0220831
0.0272403
0.0297794
0.0253822
0.0138509
-0.000307181
-0.0023108
-0.0233492
-0.0274918
-0.0198862
-0.00922089
0.00170027
0.0103783
0.0150953
0.0160923
0.0158862
0.0176448
0.0212759
0.0223322
0.0166868
0.00448481
-0.00988965
-0.0153901
-0.0324898
-0.0328449
-0.0243343
-0.0124767
-0.000671464
0.00779662
0.0110066
0.0096569
0.00726411
0.00729472
0.0098258
0.010546
0.00541148
-0.00551145
-0.0182988
-0.025333
-0.0357892
-0.0334612
-0.0245589
-0.0126299
-0.00150474
0.00511153
0.00539602
0.0008925
-0.00426115
-0.00601277
-0.00420932
-0.00293724
-0.00615139
-0.0141903
-0.0239134
-0.0302286
-0.0328653
-0.029383
-0.0207808
-0.00993441
-0.000772111
0.00289546
-0.000282637
-0.00799299
-0.015455
-0.0185336
-0.0170279
-0.014615
-0.0151103
-0.0193876
-0.0253124
-0.0291595
-0.0246605
-0.0215723
-0.0141257
-0.0053995
0.000857941
0.00119439
-0.00508806
-0.0150185
-0.0236558
-0.0270603
-0.0252844
-0.021341
-0.0189497
-0.0194897
-0.0218121
-0.0226712
-0.013488
-0.0116964
-0.00635025
-0.000623833
0.00224581
-0.000408284
-0.0085887
-0.0191434
-0.0275239
-0.0303965
-0.0276132
-0.0219719
-0.0169506
-0.0144064
-0.0139634
-0.0127267
-0.00207484
-0.00172958
0.000806065
0.00282942
0.00197431
-0.00323265
-0.0122298
-0.0221301
-0.029151
-0.0304598
-0.0259494
-0.0183336
-0.0111282
-0.00642856
-0.00429133
-0.00228053
0.00882755
0.00770296
0.00714366
0.00489396
-5.18866e-05
-0.00797994
-0.0179113
-0.0272253
-0.0323773
-0.0309457
-0.0234549
-0.0132569
-0.00417509
0.00182259
0.00504133
0.00738956
0.0257975
0.0201865
0.0156691
0.0103016
0.00499272
0.000385143
-0.00476978
-0.0117356
-0.01879
-0.0215391
-0.0166694
-0.00531276
0.00771491
0.0173784
0.0220755
0.0244608
0.0294394
0.0178885
0.0114309
0.006831
0.00409146
0.00214277
-0.0015259
-0.0080542
-0.015156
-0.0181111
-0.0132923
-0.00140156
0.0125944
0.0231449
0.0272008
0.028207
0.0258341
0.0157435
0.0120617
0.00763556
0.00197702
-0.00516786
-0.0141814
-0.023276
-0.0281018
-0.024681
-0.012913
0.00231596
0.014861
0.0210826
0.0213659
0.0234897
0.0279298
0.0163127
0.0136126
0.0104165
0.00651233
0.00188901
-0.00445266
-0.0119167
-0.0166453
-0.0139632
-0.00304494
0.0109582
0.0216479
0.0255702
0.0237368
0.026836
0.0238484
0.0123123
0.0117896
0.0112333
0.0101347
0.00836482
0.00487439
-0.000205456
-0.00358995
-0.00066001
0.00915064
0.0206261
0.0276041
0.0274543
0.0223219
0.02504
0.0149322
0.00485575
0.00682158
0.00934441
0.0113827
0.0124804
0.0117786
0.00943793
0.00808537
0.011736
0.0204563
0.0288045
0.0312822
0.0264486
0.0176853
0.0186605
0.00365876
-0.00417134
-8.0796e-05
0.00525582
0.0102267
0.0138983
0.0154894
0.0153759
0.0157913
0.0200193
0.0276718
0.0331742
0.0316332
0.0227792
0.0109803
0.00938738
-0.00811077
-0.0132402
-0.00757577
-8.2845e-05
0.00709857
0.0124436
0.0151252
0.0158298
0.0169846
0.0214607
0.0284039
0.0320752
0.02791
0.0165053
0.00289167
-0.00134958
-0.0188441
-0.0210796
-0.0143423
-0.00548108
0.00299967
0.00880388
0.0111214
0.0110292
0.0116021
0.0158161
0.0223807
0.0253388
0.0202129
0.0080233
-0.00585987
-0.0120695
-0.0271364
-0.0265583
-0.0190947
-0.0095274
-0.000877749
0.00424631
0.00489374
0.00270177
0.00161421
0.00496464
0.0112164
0.0142425
0.0096255
-0.00175731
-0.014297
-0.0211537
-0.031516
-0.0286435
-0.0207755
-0.0112257
-0.00325592
0.000194666
-0.00171439
-0.00666757
-0.00997829
-0.00798223
-0.00226275
0.00114853
-0.00202477
-0.0110804
-0.020979
-0.0268424
-0.0308308
-0.0266907
-0.0189684
-0.0101693
-0.00361607
-0.00239254
-0.00707165
-0.0147015
-0.0201229
-0.0196414
-0.0147311
-0.0109043
-0.0121007
-0.0178097
-0.0242376
-0.0276865
-0.0248582
-0.0210251
-0.0142475
-0.00697843
-0.00239082
-0.00345452
-0.0104192
-0.0199385
-0.0267997
-0.0275618
-0.0234723
-0.0191276
-0.0179941
-0.0200197
-0.0228317
-0.023301
-0.0150601
-0.0128023
-0.00801226
-0.0031035
-0.000836843
-0.00376399
-0.0119444
-0.0221279
-0.0295367
-0.0310599
-0.027419
-0.0221609
-0.0183695
-0.0167833
-0.0163251
-0.0148402
-0.0041759
-0.00404749
-0.00201864
-0.000169879
-0.000588896
-0.00519341
-0.0138938
-0.0239176
-0.0310946
-0.0324283
-0.0280767
-0.0209311
-0.0142473
-0.00958454
-0.00729321
-0.00510424
0.00638769
0.00431328
0.00330649
0.00160032
-0.00216303
-0.00913792
-0.0191339
-0.0295115
-0.0358937
-0.0353628
-0.028183
-0.0177126
-0.00799259
-0.00144197
0.00224235
0.00422795
0.026827
0.0185691
0.0118338
0.00632262
0.00268135
0.000152094
-0.00407076
-0.0116171
-0.0202152
-0.0248746
-0.0216798
-0.0109092
0.00312184
0.0150735
0.02187
0.0242813
0.0278501
0.0165898
0.00987472
0.00638669
0.00532473
0.00414471
-0.000321167
-0.00861017
-0.0175214
-0.0219851
-0.0183318
-0.00696497
0.00760983
0.0196305
0.0253641
0.026033
0.0183495
0.00993508
0.00671804
0.0046672
0.00183153
-0.00380073
-0.0131633
-0.0238864
-0.0307222
-0.0290407
-0.0181125
-0.00257085
0.0110303
0.0181656
0.0185594
0.017083
0.0183834
0.00956532
0.00685146
0.00562002
0.00458009
0.00214098
-0.0034673
-0.0114555
-0.01742
-0.0162893
-0.00615597
0.00746437
0.018394
0.0226169
0.0206662
0.0189497
0.0139596
0.00584386
0.00505213
0.00595509
0.00732612
0.00776632
0.00553149
0.000731282
-0.00307958
-0.00106038
0.00784222
0.018672
0.0252484
0.0248891
0.0194906
0.0169038
0.00686494
0.000190659
0.00173592
0.00507379
0.00869848
0.0112633
0.0115485
0.00977726
0.00870957
0.0122727
0.0205774
0.0283054
0.0300598
0.0247648
0.0157641
0.0118903
-0.000843413
-0.00585779
-0.00235286
0.00296647
0.00825404
0.0121112
0.0138347
0.0141363
0.0154061
0.0205571
0.0286645
0.033922
0.0316881
0.0223873
0.0105636
0.00535877
-0.00848921
-0.0117673
-0.0069427
-0.000374254
0.0057561
0.00990932
0.0117338
0.0125327
0.0149906
0.02141
0.0298346
0.0338609
0.0292547
0.0175623
0.00417098
-0.0021422
-0.0158947
-0.0172791
-0.0116578
-0.00446712
0.00180145
0.00539024
0.00613811
0.00598876
0.00829017
0.0153153
0.0242427
0.0280821
0.0227089
0.0103303
-0.00322501
-0.0101768
-0.0225067
-0.0217612
-0.0155776
-0.00813345
-0.00221447
0.000194253
-0.000930869
-0.00304038
-0.00196935
0.00479096
0.0138781
0.0179366
0.0129148
0.00129834
-0.0110457
-0.0178146
-0.0269299
-0.0240558
-0.017406
-0.00998543
-0.00471903
-0.00386394
-0.00727514
-0.0117808
-0.0125729
-0.00698177
0.00148575
0.00558672
0.00157577
-0.00810618
-0.0179846
-0.0234125
-0.0275057
-0.0229554
-0.0162602
-0.00919655
-0.00484154
-0.00564495
-0.0112948
-0.0181097
-0.0209768
-0.0172875
-0.0102631
-0.00645531
-0.00898847
-0.01573
-0.0221903
-0.0251167
-0.0229222
-0.0186133
-0.0123218
-0.00612468
-0.00293649
-0.00525293
-0.0126984
-0.0213711
-0.0261973
-0.0247362
-0.0196123
-0.0159755
-0.0163814
-0.0194026
-0.0220079
-0.0218105
-0.0142041
-0.0115785
-0.00680987
-0.00219975
-0.00041938
-0.00391061
-0.0123765
-0.0222383
-0.0287222
-0.0293978
-0.0257968
-0.021563
-0.0189686
-0.0178524
-0.0169347
-0.0143403
-0.00420676
-0.00409861
-0.00165622
0.000753685
0.0008088
-0.00391675
-0.0131612
-0.0238351
-0.031501
-0.033332
-0.0297041
-0.0233366
-0.0169788
-0.012059
-0.00883791
-0.00534499
0.00508793
0.00252981
0.00227673
0.00204443
-0.00048882
-0.00719412
-0.0182829
-0.0303803
-0.0385623
-0.0394574
-0.0331314
-0.022692
-0.0121267
-0.00423078
0.000190222
0.00299941
0.025811
0.0169422
0.00992989
0.00533216
0.00316144
0.00129848
-0.00375244
-0.0130198
-0.0233538
-0.0294535
-0.0274264
-0.0172175
-0.00262595
0.0110697
0.0197018
0.0233032
0.0253936
0.0149781
0.00976547
0.00788405
0.00738556
0.00504767
-0.00182895
-0.0124995
-0.0228879
-0.0279751
-0.0245522
-0.0131211
0.0021441
0.0149389
0.0215082
0.0241304
0.012794
0.00455258
0.00213028
0.00198025
0.000953618
-0.0039924
-0.0138478
-0.0256875
-0.0339275
-0.0336843
-0.0238527
-0.00829809
0.00629247
0.0143999
0.0148989
0.0126078
0.00978004
0.00170015
-0.000755274
-0.000412119
0.000613553
-0.000314509
-0.00533136
-0.013394
-0.0198704
-0.0195548
-0.0106925
0.00270026
0.0138287
0.0181658
0.0157641
0.0118722
0.00413596
-0.00267659
-0.0036128
-0.00157075
0.00170046
0.00390762
0.00287134
-0.00123736
-0.00483725
-0.00323723
0.00483694
0.0150527
0.0212036
0.0203653
0.0142995
0.00869891
-0.00200744
-0.0070552
-0.00588675
-0.00189192
0.0030503
0.00696036
0.00834453
0.00751397
0.00720225
0.0109519
0.01884
0.0258828
0.0268355
0.0207925
0.0112323
0.00428408
-0.00699455
-0.0104073
-0.00737666
-0.0019863
0.00369793
0.00795987
0.0101352
0.0112252
0.0136495
0.0197271
0.0279963
0.0326768
0.0294643
0.0194239
0.00738684
-0.000200989
-0.0111017
-0.0131637
-0.00892003
-0.00290237
0.00262646
0.00614668
0.00768546
0.00907136
0.013033
0.0210797
0.0302113
0.0337623
0.0281288
0.015858
0.00264519
-0.00496408
-0.0152682
-0.0160116
-0.0110905
-0.00494707
-3.59e-05
0.00219209
0.00222936
0.00268051
0.00685836
0.0160373
0.0259601
0.0292603
0.0227546
0.00989953
-0.00321833
-0.010407
-0.0197298
-0.0187981
-0.0133515
-0.00716548
-0.00289732
-0.00206731
-0.00387427
-0.00507353
-0.00169965
0.00741625
0.0174058
0.0205902
0.0141638
0.00198656
-0.00987971
-0.0162151
-0.0232471
-0.0203259
-0.0142789
-0.00797006
-0.00419124
-0.00466426
-0.00837111
-0.0115374
-0.00977471
-0.00191704
0.007004
0.00971459
0.00390799
-0.00655846
-0.0160833
-0.0208429
-0.0237653
-0.0191047
-0.0126457
-0.00627135
-0.00293114
-0.00456676
-0.0100881
-0.0153303
-0.0157551
-0.0102844
-0.00344062
-0.00143936
-0.00600569
-0.0137075
-0.0199393
-0.0221496
-0.0196408
-0.0148825
-0.00837381
-0.00230024
0.000438012
-0.00225765
-0.009551
-0.0168775
-0.0199428
-0.0175264
-0.0130924
-0.0113577
-0.0136185
-0.017466
-0.0198053
-0.018616
-0.011137
-0.00819314
-0.00267687
0.00241714
0.00421147
0.000412674
-0.00822213
-0.017676
-0.0235602
-0.0241981
-0.0215761
-0.0188975
-0.017517
-0.0167046
-0.0153007
-0.0112196
-0.00146368
-0.00143478
0.00225426
0.00576393
0.00618153
0.0010683
-0.00915106
-0.020707
-0.0290536
-0.0316548
-0.0290627
-0.0236305
-0.017532
-0.0121325
-0.00815429
-0.00222272
0.00683089
0.00364839
0.00496854
0.00648523
0.00494389
-0.0023056
-0.0149851
-0.0289413
-0.0388064
-0.0411393
-0.0359109
-0.0258267
-0.0145952
-0.00538383
5.53427e-05
0.00530108
0.024229
0.0152872
0.0100656
0.00738258
0.00623638
0.003546
-0.00380912
-0.0154435
-0.0271825
-0.0338046
-0.0320302
-0.0220448
-0.00740063
0.00713636
0.0166183
0.0228073
0.0248211
0.013106
0.010738
0.0102866
0.00885633
0.00384918
-0.0061213
-0.0188316
-0.0296858
-0.0341678
-0.0298916
-0.0178096
-0.00211225
0.0111477
0.0172713
0.0243197
0.0116492
0.000885892
-0.000583672
-2.80748e-06
-0.000766517
-0.00596171
-0.016171
-0.0282012
-0.0367069
-0.037107
-0.028155
-0.0129396
0.00232568
0.0113969
0.0116949
0.0124504
0.00482208
-0.00515932
-0.00724511
-0.00613211
-0.00431988
-0.00473637
-0.00944625
-0.017158
-0.0233884
-0.0232965
-0.0151517
-0.0021203
0.0093137
0.0138937
0.0108039
0.00812376
-0.00285084
-0.0107075
-0.0117345
-0.0090805
-0.00484772
-0.00174676
-0.00207229
-0.00548908
-0.00856701
-0.00703522
0.000449779
0.0102505
0.0163659
0.015368
0.00856301
0.00283888
-0.0091515
-0.0143082
-0.0133958
-0.00900091
-0.00324403
0.00147099
0.00352219
0.00336064
0.00363264
0.00742662
0.014816
0.0213714
0.0220001
0.0156685
0.00570948
-0.00198356
-0.0127698
-0.0155148
-0.0127034
-0.00712853
-0.00104889
0.0035443
0.00601001
0.00756043
0.0105821
0.016877
0.0247316
0.0287224
0.0249213
0.0146056
0.00274752
-0.00550892
-0.0145329
-0.015642
-0.0115084
-0.00551711
-5.54827e-05
0.00329359
0.00480608
0.00661863
0.0113336
0.0197498
0.028354
0.0307922
0.0241885
0.0117536
-0.000768786
-0.00845904
-0.0161861
-0.0161306
-0.0111978
-0.00518168
-0.000596002
0.00124016
0.00126943
0.00242411
0.00770882
0.0172818
0.0262746
0.0277949
0.0198716
0.00686237
-0.00530012
-0.0119171
-0.0185929
-0.0171451
-0.011539
-0.00538625
-0.00137924
-0.000789204
-0.00224926
-0.00225194
0.00255688
0.0119881
0.0204725
0.0211615
0.012852
0.000363212
-0.0105744
-0.015992
-0.0207098
-0.017425
-0.0110237
-0.00444773
-0.000629341
-0.000995194
-0.00386975
-0.00536967
-0.00197469
0.00593601
0.0128504
0.0125912
0.0045682
-0.00645441
-0.0153292
-0.0192162
-0.0202794
-0.0152938
-0.00817845
-0.00120463
0.00249201
0.00127127
-0.00316904
-0.0066466
-0.00557993
-0.000323704
0.00433679
0.00336719
-0.00340434
-0.0118389
-0.0177709
-0.0193223
-0.0153582
-0.010362
-0.0028556
0.00411792
0.00733716
0.00494311
-0.00145057
-0.0075119
-0.00959506
-0.00756878
-0.00505357
-0.0057458
-0.00978672
-0.0143365
-0.0166258
-0.0147947
-0.00633863
-0.00329804
0.00363911
0.0098359
0.0119645
0.00797138
-0.000701525
-0.00979987
-0.0153711
-0.0164589
-0.0152035
-0.0140579
-0.0137477
-0.0133268
-0.0118828
-0.00639169
0.00379541
0.00339509
0.00887333
0.0135873
0.014031
0.00800803
-0.00332503
-0.0155642
-0.0242421
-0.0273027
-0.0255033
-0.0208571
-0.0150834
-0.00949336
-0.00506786
0.00318055
0.0119118
0.00747451
0.0107833
0.0136064
0.0120387
0.00356332
-0.0105938
-0.0256549
-0.0362273
-0.0392589
-0.0348476
-0.0253359
-0.0139255
-0.00402037
0.00195498
0.0108723
0.0240645
0.0141375
0.012049
0.0115106
0.0104235
0.00560911
-0.00472839
-0.0184204
-0.0305495
-0.0364332
-0.0338136
-0.0234857
-0.00882137
0.00524874
0.013904
0.0237451
0.026663
0.0114387
0.0120011
0.0121083
0.00868257
0.000465295
-0.0122022
-0.0258533
-0.0358541
-0.038543
-0.0325627
-0.0194627
-0.00336501
0.00972486
0.014188
0.0266304
0.014235
-0.00133652
-0.00171815
-0.00125011
-0.0031211
-0.00925476
-0.0196394
-0.0310433
-0.0387022
-0.0387298
-0.0300644
-0.0152825
0.000297518
0.00998019
0.00966374
0.0156979
0.0040448
-0.0102153
-0.0116474
-0.0104201
-0.009047
-0.0100019
-0.014866
-0.022044
-0.0274006
-0.0267849
-0.0187226
-0.00589761
0.00596282
0.0110671
0.00713679
0.00806447
-0.00592239
-0.0167764
-0.0176211
-0.0148239
-0.0106368
-0.00773509
-0.00814523
-0.0111986
-0.0136552
-0.0118262
-0.00451905
0.00523238
0.0119281
0.0115053
0.00414631
0.000509973
-0.0130966
-0.0197646
-0.0189173
-0.0143515
-0.00843487
-0.0037188
-0.0017652
-0.00187034
-0.00144823
0.00217457
0.00908008
0.0155212
0.0167437
0.0111396
0.00129719
-0.00534298
-0.0165581
-0.0194267
-0.0166082
-0.0107817
-0.00443114
0.000210649
0.00253128
0.00389397
0.00663683
0.0122416
0.0191168
0.0226024
0.0191417
0.00972108
-0.00130094
-0.00884801
-0.0172964
-0.0177412
-0.0133419
-0.00691753
-0.00106668
0.00244911
0.0039657
0.00567234
0.00993247
0.0171864
0.0240514
0.0251897
0.018442
0.00684765
-0.00426137
-0.0110504
-0.0174494
-0.0165771
-0.0110523
-0.00431318
0.000911221
0.00321907
0.00366595
0.00510701
0.00993126
0.0181441
0.0244331
0.0236436
0.0148795
0.0026037
-0.00797258
-0.0134112
-0.0182911
-0.0161794
-0.00967628
-0.00244575
0.00255397
0.00405259
0.00355888
0.00439987
0.00908873
0.0166297
0.0217792
0.0193823
0.00963387
-0.00243225
-0.0120047
-0.0162476
-0.0189456
-0.0151835
-0.00765286
0.000303838
0.00541133
0.00632555
0.00483005
0.00455862
0.00804476
0.0139853
0.0173623
0.0137539
0.00399584
-0.00699967
-0.0150075
-0.0181023
-0.017122
-0.0118526
-0.00346458
0.00505661
0.010084
0.0101095
0.00707795
0.00488174
0.00613771
0.00969841
0.0112664
0.00735682
-0.00104608
-0.00980338
-0.0154779
-0.0167151
-0.0108311
-0.00587417
0.00300509
0.0114472
0.0156576
0.014001
0.00854745
0.00345832
0.00162903
0.00251881
0.00291152
0.000169417
-0.00508334
-0.0101248
-0.012728
-0.010742
-0.0007149
0.00185224
0.0103125
0.0177231
0.0201617
0.0160088
0.0073592
-0.001299
-0.00656422
-0.00801933
-0.00766396
-0.00763202
-0.00803971
-0.00812287
-0.00733505
-0.000949245
0.0103552
0.00873298
0.015899
0.0214724
0.0214662
0.0144425
0.00219876
-0.0100543
-0.0183345
-0.0211529
-0.0195161
-0.0152776
-0.00985165
-0.00458071
-0.000726005
0.00958753
0.0187497
0.0121335
0.0172948
0.0207105
0.0182524
0.00820077
-0.00666909
-0.0216267
-0.0316078
-0.0342988
-0.0300879
-0.0210855
-0.010048
-0.000297383
0.00491033
0.0177728
0.0261108
0.0137259
0.0149947
0.0160839
0.014047
0.00639522
-0.00668287
-0.021446
-0.0327279
-0.0367815
-0.0325034
-0.0214255
-0.00697578
0.00594747
0.0124669
0.0261626
0.029171
0.0103253
0.0131233
0.0128621
0.00731881
-0.00344814
-0.0174569
-0.0305073
-0.0384228
-0.0386337
-0.0308154
-0.017062
-0.00126905
0.0106787
0.0126866
0.0291357
0.0171893
-0.0032339
-0.00227642
-0.00212833
-0.00535533
-0.012552
-0.0229615
-0.0333727
-0.0395561
-0.0385145
-0.0296092
-0.015182
3.56313e-05
0.00960633
0.0080447
0.0190826
0.00491551
-0.0137915
-0.0141135
-0.0128954
-0.0125826
-0.0147818
-0.0202126
-0.0268625
-0.0309945
-0.0293119
-0.0208668
-0.00813472
0.00391068
0.00935212
0.00441829
0.00938047
-0.00642355
-0.0207783
-0.0210101
-0.0181822
-0.0147589
-0.012966
-0.0141581
-0.0171656
-0.0189503
-0.0164975
-0.00899917
0.000901035
0.00835669
0.00887015
0.00115744
0.000317305
-0.0147509
-0.0232477
-0.0221454
-0.0175106
-0.0119654
-0.00799085
-0.00678049
-0.00727629
-0.00695931
-0.00357159
0.00294169
0.00950834
0.0119036
0.00780029
-0.00152834
-0.00644599
-0.0186146
-0.0219618
-0.0189539
-0.0128368
-0.00638068
-0.00195593
-0.000108583
0.000633387
0.00251422
0.0068393
0.0124047
0.0155911
0.0133253
0.00576682
-0.00394322
-0.0102936
-0.0192
-0.0193373
-0.0145072
-0.0073689
-0.000801777
0.00314438
0.00468567
0.00585578
0.00875439
0.0136921
0.0181322
0.018142
0.0121719
0.00254494
-0.00677291
-0.0123478
-0.0186037
-0.0172812
-0.010955
-0.002957
0.00361245
0.00702482
0.00809469
0.00933092
0.012681
0.0176261
0.020558
0.0177466
0.00916614
-0.00141389
-0.010107
-0.0143361
-0.0183382
-0.0158902
-0.00825295
0.000702782
0.00753074
0.0106387
0.0112785
0.0122842
0.0154621
0.0196379
0.0208389
0.0158279
0.00573387
-0.00504945
-0.013088
-0.0163926
-0.0175718
-0.0137012
-0.00487082
0.00501822
0.0120972
0.0147771
0.0146446
0.0148197
0.0170539
0.0199149
0.0195605
0.0133871
0.00305544
-0.00714719
-0.0142775
-0.017049
-0.0140601
-0.00914292
0.000575987
0.0109118
0.017596
0.0190761
0.017273
0.015651
0.0161125
0.017382
0.0161324
0.0102995
0.00141016
-0.00701373
-0.0125877
-0.0141452
-0.00625292
-0.00194731
0.00802581
0.017843
0.0230162
0.0221095
0.0174548
0.0129703
0.0109592
0.0106711
0.00950553
0.00574846
0.000232447
-0.00487183
-0.00807591
-0.00670683
0.00492179
0.00639734
0.015857
0.0240963
0.0266034
0.0222842
0.0138962
0.00588785
0.00109321
-0.000388937
-0.000411281
-0.000609095
-0.0011341
-0.00160266
-0.00195027
0.00408685
0.0168951
0.0132827
0.0214815
0.0273968
0.0266585
0.0186037
0.00640528
-0.00491436
-0.0122588
-0.0142789
-0.0122738
-0.00800751
-0.00280777
0.00181257
0.00405632
0.0153068
0.0251491
0.0158727
0.0223542
0.0259162
0.0224625
0.0113045
-0.0035844
-0.0176187
-0.026054
-0.0277093
-0.0231884
-0.0144893
-0.004079
0.00475926
0.00842246
0.0236358
0.0292608
0.0140252
0.0180683
0.0203421
0.0166196
0.00628422
-0.0085201
-0.0230187
-0.032394
-0.0340938
-0.0280933
-0.0165006
-0.00268711
0.00854956
0.0120753
0.0287269
0.0292658
0.00943785
0.0135143
0.0133587
0.0064958
-0.00536579
-0.0190712
-0.0302146
-0.0354316
-0.0332833
-0.0243741
-0.0111657
0.00292128
0.0124225
0.0117933
0.0291166
0.0164867
-0.00536516
-0.00300824
-0.00249772
-0.00639318
-0.014327
-0.0246586
-0.0343551
-0.0390156
-0.0368592
-0.0277511
-0.0139814
7.68925e-05
0.00849848
0.00549188
0.0187157
0.00324037
-0.0166248
-0.0153126
-0.0136885
-0.0143718
-0.0180292
-0.0241976
-0.0303834
-0.0332398
-0.0304223
-0.0216528
-0.0093657
0.00206089
0.00696726
0.00105913
0.00822589
-0.00866889
-0.0236563
-0.0226645
-0.0196122
-0.0172146
-0.016984
-0.019228
-0.0222269
-0.0232701
-0.0200814
-0.0124088
-0.00265892
0.00496645
0.00587488
-0.00202096
-0.00120969
-0.017034
-0.0258027
-0.0240376
-0.019304
-0.014463
-0.0116103
-0.0113071
-0.0121695
-0.0118655
-0.0086916
-0.00260607
0.00391419
0.00723152
0.00447736
-0.00416946
-0.00799348
-0.0208161
-0.024247
-0.0209102
-0.0145082
-0.00808189
-0.00393852
-0.00249806
-0.00230392
-0.00134537
0.00156647
0.0057299
0.0086221
0.00770823
0.00217739
-0.00617185
-0.011692
-0.0212054
-0.0214917
-0.0163029
-0.00839019
-0.000935387
0.00371639
0.00548403
0.00606897
0.00729259
0.00960827
0.0115438
0.0107312
0.00613182
-0.00117343
-0.00878579
-0.0135498
-0.020126
-0.0191444
-0.0122076
-0.00281538
0.00546874
0.0103811
0.0122161
0.0129366
0.0141498
0.0156103
0.015237
0.0110903
0.00364261
-0.00469614
-0.0117238
-0.0152448
-0.0189237
-0.0169611
-0.00849213
0.00228293
0.0112665
0.016258
0.0179388
0.0185334
0.0194735
0.0199889
0.0177043
0.0111888
0.0019797
-0.00685807
-0.0135923
-0.0166443
-0.0166817
-0.0134522
-0.00375853
0.00796262
0.0171045
0.0215577
0.0224531
0.0223513
0.0226516
0.0223466
0.0190542
0.0117051
0.00217831
-0.00649064
-0.012909
-0.0161203
-0.0113417
-0.00741728
0.00310046
0.014824
0.022989
0.025727
0.0247331
0.0230341
0.0222065
0.0213182
0.0181802
0.0118246
0.00378021
-0.00355684
-0.00909741
-0.0117038
-0.00184372
0.00113471
0.0114952
0.0221486
0.0279611
0.0276157
0.0235134
0.019267
0.0168291
0.0156034
0.0137088
0.0100417
0.00533207
0.000835692
-0.00301601
-0.00292911
0.0103696
0.0100713
0.0197448
0.0282536
0.0306012
0.026219
0.0182292
0.0108603
0.00656118
0.00524668
0.00537195
0.00559517
0.00559622
0.00516293
0.00360879
0.00845412
0.0219777
0.0165775
0.0251378
0.0310287
0.0296535
0.0212368
0.00946195
-0.000933333
-0.00697785
-0.00811653
-0.00556759
-0.000999665
0.0042114
0.00824877
0.00881264
0.0194021
0.0292128
0.0179713
0.0253149
0.0289621
0.0248019
0.0135547
-0.0008511
-0.0134753
-0.0206775
-0.0213833
-0.0164703
-0.00794233
0.00184696
0.00955477
0.0112574
0.0267245
0.0311088
0.0148921
0.0215783
0.0241361
0.0187192
0.00651834
-0.00865405
-0.0216268
-0.028522
-0.0279848
-0.0209226
-0.00977093
0.00238926
0.0111293
0.0115568
0.0293875
0.0254009
0.00928575
0.0146572
0.0149379
0.00787118
-0.00384931
-0.0162569
-0.0251755
-0.0280804
-0.0244924
-0.0156965
-0.00433922
0.00649969
0.0125686
0.00994765
0.0251752
0.0104484
-0.00762058
-0.00348898
-0.00174253
-0.00547007
-0.0138474
-0.0244947
-0.0332795
-0.0370878
-0.0343828
-0.0256199
-0.0132978
-0.00125578
0.00518208
0.0014169
0.0133413
-0.0029624
-0.0187333
-0.0154195
-0.0129513
-0.0143218
-0.0193308
-0.0261788
-0.0318409
-0.0336213
-0.0300674
-0.0215185
-0.0104283
-0.000662816
0.00273486
-0.00351031
0.00288851
-0.0142468
-0.02573
-0.0231595
-0.0197579
-0.018415
-0.0197399
-0.0228156
-0.0255505
-0.0257619
-0.0220646
-0.0146181
-0.00565631
0.00115261
0.00154446
-0.00611836
-0.00579509
-0.0214985
-0.0281434
-0.025508
-0.0207712
-0.0167891
-0.0149942
-0.0152215
-0.0159993
-0.0155102
-0.0124808
-0.00696922
-0.000904373
0.00259186
0.000452758
-0.00746451
-0.0114869
-0.0242866
-0.0272366
-0.0236003
-0.0171351
-0.0108002
-0.00671314
-0.00519559
-0.00506313
-0.00467464
-0.00295093
-4.22293e-05
0.00252201
0.00261421
-0.00141134
-0.00877943
-0.0141801
-0.0240181
-0.0252095
-0.0199494
-0.0114532
-0.00305887
0.00261755
0.00504719
0.00540715
0.00524989
0.00532274
0.00527309
0.00409716
0.00101334
-0.00427656
-0.0109051
-0.0154869
-0.0224821
-0.0230524
-0.0159988
-0.00542731
0.00464551
0.0113043
0.0141092
0.0144074
0.0136305
0.0121445
0.00935993
0.00484636
-0.000846638
-0.00698258
-0.0131628
-0.0167951
-0.0204261
-0.0201087
-0.0114683
0.00079744
0.0118805
0.0187744
0.0213902
0.0213785
0.0201004
0.017561
0.0129714
0.00630602
-0.00101617
-0.00768526
-0.0137967
-0.0175289
-0.016647
-0.0150112
-0.00520874
0.0078521
0.0187908
0.0247785
0.0263286
0.0255443
0.0238211
0.020935
0.0159421
0.00888906
0.00135539
-0.00527644
-0.0113203
-0.0157967
-0.00933463
-0.00717629
0.00350092
0.0159472
0.0251622
0.0287796
0.0281125
0.0258454
0.0235406
0.0209123
0.0169034
0.0113169
0.00527715
-0.000250668
-0.00571148
-0.00987264
0.00187094
0.00312503
0.0131869
0.0240704
0.0301265
0.0300332
0.0260866
0.021617
0.0184626
0.0164273
0.0143857
0.0117134
0.00874548
0.00572724
0.00140658
7.8293e-05
0.0147213
0.0128302
0.0221873
0.0305308
0.0325429
0.0280555
0.0202972
0.0132083
0.00897864
0.00763155
0.00803846
0.00908669
0.0101731
0.0103856
0.00819614
0.0116849
0.0253294
0.0189036
0.027506
0.033239
0.0314309
0.0229172
0.0115882
0.00188985
-0.00353884
-0.00429288
-0.00142463
0.00348867
0.00893072
0.0127474
0.0123029
0.0215344
0.0301472
0.0187852
0.0268224
0.0309197
0.0267037
0.0155134
0.0015848
-0.0102006
-0.016647
-0.0168957
-0.0118921
-0.00364248
0.00551181
0.0121929
0.0125127
0.0266418
0.0299752
0.0162156
0.0249569
0.027783
0.0211285
0.00791532
-0.00659762
-0.0174366
-0.0218737
-0.0197188
-0.0125204
-0.00285054
0.00660017
0.0121296
0.0100443
0.0270911
0.0187025
0.0101129
0.0171568
0.0182848
0.0115108
0.000148372
-0.0112931
-0.0187838
-0.0204653
-0.0165292
-0.00868921
0.000297556
0.00760991
0.0101803
0.00669785
0.0186034
0.00145649
-0.00858087
-0.00246241
0.000707139
-0.00274634
-0.0117348
-0.0224666
-0.0308674
-0.0341907
-0.0315464
-0.0237905
-0.0134174
-0.00389613
0.00037721
-0.00301564
0.00537906
-0.0111456
-0.0189879
-0.0137396
-0.0106046
-0.0126817
-0.0188971
-0.0261228
-0.0312231
-0.0322021
-0.0284153
-0.0206394
-0.0112382
-0.0036912
-0.00209809
-0.00773384
-0.00421003
-0.0206841
-0.0261084
-0.022103
-0.0186865
-0.0185078
-0.0211137
-0.0245167
-0.0266974
-0.0261125
-0.0221734
-0.0152933
-0.00750439
-0.0020983
-0.00267636
-0.00960697
-0.0111168
-0.0258959
-0.0296376
-0.0263276
-0.0219537
-0.0189312
-0.0178283
-0.0179454
-0.0181084
-0.0171456
-0.0142028
-0.00925252
-0.00379572
-0.000655647
-0.00282932
-0.0101593
-0.0148625
-0.0275052
-0.0305667
-0.0268962
-0.020676
-0.014493
-0.0100644
-0.00780304
-0.00707791
-0.00674
-0.00570525
-0.00354993
-0.00110901
-0.00038064
-0.00369677
-0.0108493
-0.0160406
-0.0265829
-0.0302455
-0.025323
-0.0165636
-0.00727298
-0.000249262
0.00337771
0.00412138
0.00325951
0.00197805
0.000951573
8.08875e-05
-0.00158716
-0.00569352
-0.012606
-0.017227
-0.0251978
-0.0288606
-0.0222503
-0.0108931
0.000847371
0.00939966
0.0134646
0.0137571
0.0116844
0.00837606