/*--------------------------------*- C++ -*----------------------------------*\
| =========                 |                                                 |
| \\      /  F ield         | OpenFOAM: The Open Source CFD Toolbox           |
|  \\    /   O peration     | Version:  3.0.0                                 |
|   \\  /    A nd           | Web:      www.OpenFOAM.org                      |
|    \\/     M anipulation  |                                                 |
\*---------------------------------------------------------------------------*/
FoamFile
{
    version     2.0;
    format      ascii;
    class       surfaceScalarField;
    location    "2.75";
    object      phi;
}
// * * * * * * * * * * * * * * * * * * * * * * * * * * * * * * * * * * * * * //

dimensions      [0 3 -1 0 0 0 0];

internalField   nonuniform List<scalar> 
11520
(
-0.000304347
-0.000196987
0.000268869
-0.000268644
-2.7391e-05
0.000313815
-0.000212841
0.000114396
0.000313862
-0.000158926
0.000236582
0.000238993
-0.000127477
0.0003507
8.86042e-05
-0.00012681
0.000460994
-0.000102859
-0.000149794
0.00054629
-0.000281382
-0.000180968
0.0005624
-0.000405277
-0.000205335
0.000471131
-0.000460975
-0.000214791
0.000269902
-0.000454091
-0.000212356
2.96184e-06
-0.000396588
-0.000212785
-0.000251064
-0.000303751
-0.000228865
-0.000422372
-0.000192037
-0.000260358
-0.000480889
-7.4774e-05
-0.00029397
-0.000440787
4.07608e-05
-0.000341303
0.000143709
-0.000484573
-0.000241309
0.000222006
-0.000439918
-7.14432e-05
0.000227549
-0.000366049
7.52196e-05
0.000202502
-0.000286043
0.000208542
0.00012268
-0.000219793
0.000335626
-1.04843e-05
-0.000177071
0.00045367
-0.000170097
-0.000156504
0.000535964
-0.000315524
-0.000149017
0.000535911
-0.000412057
-0.000144485
0.000417812
-0.000443734
-0.000141691
0.000188948
-0.000412343
-0.000152994
-9.13166e-05
-0.000333118
-0.000193432
-0.000337506
-0.00022936
-0.000264792
-0.000487423
-0.000122616
-0.000350937
-0.000526475
-2.42568e-05
-0.000428791
-0.000476646
6.25856e-05
-0.000374109
0.000132286
-0.000623419
-0.000274326
0.000148854
-0.000570282
-0.000124898
0.000116834
-0.000477604
1.03841e-05
7.05431e-05
-0.000367913
0.000140384
-8.7701e-06
-0.000259245
0.000268029
-0.000118111
-0.000162555
0.00038706
-0.000239207
-8.44915e-05
0.000470293
-0.000343463
-2.96746e-05
0.000471668
-0.000403161
-1.11758e-06
0.000354214
-0.000401627
-5.03939e-06
0.000127878
-0.000339967
-5.252e-05
-0.000139702
-0.0002393
-0.000147718
-0.000362237
-0.000129913
-0.000277079
-0.000488465
-3.55081e-05
-0.000413345
-0.000515594
3.54851e-05
-0.00052945
-0.000468257
8.53021e-05
-0.000373529
0.000116834
-0.000700056
-0.000295751
6.58893e-05
-0.000641689
-0.000181628
1.99481e-06
-0.000534034
-7.0347e-05
-6.1535e-05
-0.000398046
4.44223e-05
-0.000136761
-0.000249831
0.000162793
-0.000220855
-0.000102304
0.000277265
-0.000301839
3.04447e-05
0.000364306
-0.000362168
0.000129992
0.000382519
-0.000381512
0.000178212
0.000292125
-0.00034386
0.000161838
9.69638e-05
-0.00025127
7.51447e-05
-0.000136734
-0.000131091
-7.21206e-05
-0.000326553
-1.99335e-05
-0.000252312
-0.000431587
5.88633e-05
-0.00043029
-0.000456095
9.99057e-05
-0.000576874
-0.000422506
0.000110099
-0.000346421
0.000102265
-0.000706934
-0.000299873
-7.21643e-06
-0.000649032
-0.000230317
-9.44823e-05
-0.000534268
-0.000150502
-0.000170619
-0.000381759
-5.79645e-05
-0.000239591
-0.000206808
4.5053e-05
-0.00029901
-2.3617e-05
0.000151157
-0.00034241
0.000149896
0.000241674
-0.000360989
0.000286835
0.000282909
-0.000341715
0.000355252
0.000235419
-0.00027059
0.000332006
9.2796e-05
-0.000151366
0.000215208
-9.00811e-05
-1.7369e-05
2.80677e-05
-0.000241181
9.1827e-05
-0.000189828
-0.000328159
0.00015385
-0.000397701
-0.000357602
0.000166052
-0.000565329
-0.000346548
0.000138555
-0.000298751
9.2921e-05
-0.00064922
-0.000281622
-4.9089e-05
-0.000596846
-0.000258286
-0.000153789
-0.000483756
-0.000212414
-0.000236368
-0.000326906
-0.000145204
-0.00029694
-0.00014105
-6.04536e-05
-0.000333835
5.886e-05
3.48269e-05
-0.00034477
0.000254108
0.00012585
-0.000327465
0.000415907
0.000186949
-0.000275701
0.000503935
0.000184541
-0.00017929
0.000483476
0.000105414
-4.39133e-05
0.000351727
-1.47425e-05
9.50512e-05
0.000142031
-0.000121983
0.000197523
-9.70025e-05
-0.00019255
0.000243474
-0.000321071
-0.000231339
0.000231009
-0.000499219
-0.000247712
0.000172019
-0.000235093
9.32051e-05
-0.000538633
-0.000239098
-5.14422e-05
-0.000495555
-0.000258458
-0.000164345
-0.000391492
-0.000245069
-0.000247325
-0.000240793
-0.000203126
-0.000298321
-5.7411e-05
-0.000137414
-0.000316784
0.000143254
-5.45079e-05
-0.000303364
0.00034243
3.33262e-05
-0.000259895
0.000512649
0.000106887
-0.000185519
0.000612834
0.000142039
-7.53941e-05
0.00060046
0.00012511
6.2904e-05
0.000469076
7.2517e-05
0.000196115
0.000255517
1.2931e-05
0.000288265
1.27882e-05
-4.06537e-05
0.000320822
-0.000212443
-9.01233e-05
0.00029083
-0.000390152
-0.000134574
0.000210394
-0.000159982
0.0001072
-0.000391127
-0.00017835
-1.37116e-05
-0.00035904
-0.000231742
-0.000125547
-0.000269177
-0.000246035
-0.000203589
-0.000132238
-0.000226832
-0.000245672
3.93363e-05
-0.000179464
-0.000252599
0.000229777
-0.000109921
-0.00022679
0.00041961
-2.84761e-05
-0.000171677
0.000582553
5.0445e-05
-8.90804e-05
0.000680575
0.000112067
2.12746e-05
0.000673514
0.000147608
0.000150934
0.000552769
0.000157991
0.000271382
0.000352575
0.000145584
0.000352757
0.000124553
0.000109913
0.00037711
-8.71799e-05
5.21211e-05
0.000339602
-0.000253338
-1.77635e-05
0.000250586
-7.95129e-05
0.000136162
-0.000224313
-0.000111012
5.28124e-05
-0.000203535
-0.000185609
-4.73491e-05
-0.00013111
-0.000219742
-0.000115673
-1.26952e-05
-0.00021875
-0.000150901
0.000140882
-0.0001873
-0.000155286
0.000313831
-0.0001312
-0.000132039
0.000484596
-5.82564e-05
-8.36704e-05
0.000626702
2.1549e-05
-1.12754e-05
0.000707201
0.000100421
8.5756e-05
0.000696347
0.000173996
0.000198093
0.000589623
0.000232932
0.000303906
0.000416127
0.000259552
0.00037789
0.000219497
0.000240685
0.000401646
3.70826e-05
0.000178149
0.000368011
-0.00010533
8.84231e-05
0.000285078
-3.11149e-06
0.000176205
-5.73067e-05
-5.07397e-05
0.000129559
-4.74464e-05
-0.00013088
5.28043e-05
6.44624e-06
-0.00017415
-4.99136e-07
0.000103134
-0.00018373
-3.07426e-05
0.000235178
-0.000164634
-4.22319e-05
0.000384929
-0.000120481
-3.7241e-05
0.000528282
-5.61935e-05
-1.50144e-05
0.000637885
2.2411e-05
2.9411e-05
0.000687992
0.000111959
9.91868e-05
0.000663178
0.000207712
0.000188841
0.000568797
0.000293329
0.000280386
0.000430333
0.00034115
0.000351006
0.000279907
0.000331575
0.000381529
0.000143292
0.00026633
0.000363054
3.62119e-05
0.000165811
0.000301958
5.64924e-05
0.000217392
8.84703e-05
-1.00521e-05
0.000196996
8.84356e-05
-7.87193e-05
0.000155314
0.000123673
-0.00011744
0.000123056
0.000199306
-0.000128918
9.66134e-05
0.000307659
-0.000116018
6.99496e-05
0.000428922
-8.00376e-05
4.2317e-05
0.0005363
-2.21053e-05
2.19425e-05
0.000603771
5.57696e-05
2.31944e-05
0.000614636
0.000150391
5.68693e-05
0.000569172
0.000251509
0.000120174
0.000484238
0.000337831
0.000196515
0.000384369
0.000380645
0.000264371
0.000289941
0.00036407
0.000305634
0.000211328
0.000293696
0.000311686
0.000150895
0.000192108
0.000286651
8.38133e-05
0.000245316
0.000189714
1.65492e-06
0.000242673
0.000182426
-3.82111e-05
0.000244412
0.000202984
-5.78448e-05
0.000238056
0.000259576
-6.03925e-05
0.000214668
0.000343422
-4.59413e-05
0.00016581
0.000431193
-1.18903e-05
9.47053e-05
0.000494876
4.47379e-05
2.09534e-05
0.000513362
0.000123146
-2.77948e-05
0.00048123
0.00021499
-3.38464e-05
0.000414823
0.000302902
1.98371e-06
0.000339854
0.000361748
5.98479e-05
0.000280622
0.000370955
0.000122874
0.000245452
0.000326311
0.00017576
0.000228707
0.00024429
0.000212066
0.000218216
0.000150811
0.000233402
6.56787e-05
0.000248741
0.000224448
-1.71839e-05
0.000266432
0.000214865
-1.41329e-05
0.000312189
0.000227509
-1.65274e-06
0.000331579
0.000270109
1.53903e-05
0.000308391
0.000330087
4.02835e-05
0.000231765
0.000380944
8.08371e-05
0.000111741
0.000396296
0.000143012
-1.70663e-05
0.000363996
0.00022242
-0.000113737
0.000294009
0.000301588
-0.000155893
0.000214986
0.000354253
-0.000147654
0.000158498
0.00035806
-0.000106164
0.000141914
0.000307413
-4.72371e-05
0.000160731
0.000218551
1.94983e-05
0.000195091
0.000122106
8.78205e-05
0.000223438
4.5555e-05
0.000156706
8.91183e-07
0.000228736
0.000180854
-5.9219e-05
0.00027754
0.000174843
-5.17963e-06
0.000356686
0.000188144
4.67438e-05
0.000393696
0.000223181
9.12914e-05
0.00036442
0.000261876
0.000135475
0.000256796
0.000276732
0.000191786
9.0198e-05
0.000246512
0.000265431
-8.52522e-05
0.000172688
0.00034262
-0.000217985
8.02573e-05
0.000392419
-0.000286217
6.80567e-06
0.000385506
-0.000296272
-1.97215e-05
0.000312093
-0.000263773
4.59442e-06
0.000189964
-0.00020136
6.05738e-05
5.7427e-05
-0.00011779
0.000120527
-4.57757e-05
-2.05608e-05
0.00016349
-9.63039e-05
8.56085e-05
-9.46154e-05
0.000198614
6.44754e-05
-0.000109044
0.000281849
6.55414e-05
-2.77012e-06
0.000374863
8.6131e-05
8.6628e-05
0.000415854
0.000118895
0.000161199
0.00037287
0.000141316
0.000230189
0.000234738
0.000128535
0.000309359
3.0296e-05
6.91314e-05
0.000397859
-0.000177873
-2.27348e-05
0.00046473
-0.00033152
-0.000110934
0.000466522
-0.000408468
-0.000158884
0.000380653
-0.000417081
-0.000151694
0.000221986
-0.000375141
-0.00010165
3.53547e-05
-0.000298239
-3.63834e-05
-0.000125465
-0.000198196
1.77798e-05
-0.000220573
-8.36286e-05
4.95282e-05
-0.000238625
4.0567e-05
-0.000194438
0.000170074
-0.000102545
0.000268898
-9.57339e-05
0.000358841
-6.93196e-05
0.000392314
-3.6866e-05
0.000332904
-2.36947e-05
0.000169017
-4.56682e-05
-6.54009e-05
-0.000100201
-0.000299619
-0.000167388
-0.000464772
-0.000219629
-0.000530204
-0.000236117
-0.000507352
-0.000214022
-0.000428265
-0.000167827
-0.000323399
-0.000121262
-0.000211426
-9.36609e-05
-9.75986e-05
-8.93808e-05
2.00729e-05
0.00014021
-0.000265293
-0.000417658
0.000318075
-0.000209006
-0.000244191
0.000314603
-0.000140573
-6.47093e-05
0.000276021
-8.10401e-05
0.00012454
0.000182323
-5.2482e-05
0.000318349
3.85028e-05
-6.40289e-05
0.000498213
-0.000123771
-0.000106664
0.00062937
-0.000262028
-0.000160657
0.00067151
-0.000347689
-0.000206936
0.000598003
-0.000373877
-0.000233935
0.000410068
-0.000345566
-0.00024158
0.000143507
-0.000271331
-0.000241961
-0.000136147
-0.000164893
-0.000249862
-0.000361017
-4.58739e-05
-0.00026888
-0.000491601
6.73415e-05
-0.000289084
-0.000525766
0.000164477
-0.000481877
0.000238216
-0.000410696
-0.000484989
0.000264821
-0.000349143
-0.000309084
0.00023089
-0.00026368
-0.000126705
0.000179035
-0.000176782
7.05197e-05
8.9802e-05
-0.000111051
0.000275733
-3.3601e-05
-8.09105e-05
0.000466498
-0.000168522
-8.62281e-05
0.000601885
-0.000282721
-0.000112635
0.000635539
-0.00034968
-0.000141093
0.000540145
-0.000357417
-0.000161496
0.000325043
-0.000306915
-0.000180056
4.00657e-05
-0.000211116
-0.000212815
-0.000238572
-9.41755e-05
-0.000267655
-0.000446582
1.77885e-05
-0.000334784
-0.000557793
0.000109064
-0.000394463
-0.000579637
0.000176134
-0.000527735
0.000218892
-0.000519603
-0.000538404
0.000184231
-0.000451756
-0.000379253
0.000119157
-0.000350892
-0.000211063
5.40362e-05
-0.00023791
-2.28576e-05
-2.83747e-05
-0.000132334
0.0001789
-0.000126853
-5.02023e-05
0.000372747
-0.000227587
-1.2903e-06
0.000518285
-0.000308775
1.41399e-05
0.000564368
-0.00034742
4.31827e-06
0.000475957
-0.000327618
-2.44051e-05
0.000262036
-0.000248237
-7.76416e-05
-1.74361e-05
-0.000128562
-0.000162111
-0.000280859
-3.15697e-06
-0.000271595
-0.000469812
9.72063e-05
-0.000384668
-0.000569367
0.000160133
-0.000476692
-0.000591319
0.000189008
-0.00054356
0.000193609
-0.000576476
-0.000573496
8.95019e-05
-0.000505489
-0.000445672
-2.57364e-06
-0.000393805
-0.000303631
-8.06504e-05
-0.000259719
-0.000136607
-0.000157098
-0.000119585
4.97338e-05
-0.000231822
1.07338e-05
0.000237981
-0.000297392
0.000113906
0.00039411
-0.000341166
0.000173605
0.000468389
-0.000345232
0.000182504
0.000415214
-0.000292016
0.00014094
0.000232046
-0.000179715
4.89989e-05
-2.10906e-05
-3.54959e-05
-8.75645e-05
-0.00026006
9.58312e-05
-0.000247203
-0.000432775
0.000181465
-0.000398875
-0.000530798
0.000213008
-0.000515675
-0.000565008
0.000200589
-0.00053356
0.000164545
-0.000579098
-0.000584072
-1.02576e-06
-0.000509123
-0.000496337
-0.000113793
-0.000393342
-0.000387399
-0.000202632
-0.000247504
-0.000248327
-0.000273709
-8.55726e-05
-8.39085e-05
-0.0003273
7.77144e-05
9.26757e-05
-0.000360392
0.000222787
0.000255502
-0.000367454
0.000323518
0.00036211
-0.000336167
0.000355778
0.000361211
-0.000248847
0.000308347
0.000232357
-0.000104246
0.0001844
2.40628e-05
6.14251e-05
4.99705e-06
-0.000183896
0.000195065
-0.00019395
-0.000343813
0.000263835
-0.000373937
-0.00044886
0.000264101
-0.000507286
-0.000504761
0.000211657
-0.00050033
0.000135888
-0.000532918
-0.000563914
-6.78664e-05
-0.000467843
-0.000520814
-0.000194387
-0.000354553
-0.000447519
-0.000289539
-0.000206858
-0.000338517
-0.000354445
-3.71762e-05
-0.000197949
-0.000389477
0.000140954
-3.57739e-05
-0.000394451
0.000309388
0.000128458
-0.000368855
0.000440483
0.000261259
-0.000305946
0.000498343
0.000314239
-0.000190178
0.000455346
0.00025286
-2.14192e-05
0.0003132
0.000103983
0.000157277
0.000105481
-6.62189e-05
0.000287564
-0.000118514
-0.000215093
0.00033875
-0.000314999
-0.000332357
0.000310992
-0.000456413
-0.000415492
0.000224165
-0.000445598
0.000113597
-0.000447529
-0.000513536
-9.68019e-05
-0.000389193
-0.000514372
-0.000229123
-0.000283248
-0.000475567
-0.000325222
-0.000141437
-0.000395368
-0.00038328
2.50403e-05
-0.00027762
-0.000403591
0.000203431
-0.000130226
-0.000387303
0.000377439
3.11196e-05
-0.000336565
0.000522301
0.000180024
-0.000249146
0.000598836
0.00027667
-0.000114359
0.000566497
0.000282895
6.5208e-05
0.000420304
0.000201852
0.000244438
0.000201533
7.53345e-05
0.000365484
-3.15156e-05
-6.15039e-05
0.000400282
-0.000231765
-0.000192374
0.000351096
-0.000372529
-0.000304281
0.000239947
-0.000372632
0.000104216
-0.000332966
-0.000439645
-8.20721e-05
-0.000281971
-0.000478871
-0.000212042
-0.000186617
-0.000470015
-0.000304495
-5.60938e-05
-0.000414722
-0.000356842
9.97859e-05
-0.000316984
-0.000369114
0.00026868
-0.000183719
-0.000342191
0.000434941
-2.8392e-05
-0.000278426
0.000576386
0.00012736
-0.000177861
0.000656561
0.000253263
-3.54933e-05
0.000632133
0.000316584
0.000141672
0.000492706
0.00030203
0.000310631
0.000279862
0.00022202
0.000418917
5.4539e-05
9.96482e-05
0.000441281
-0.000135863
-4.29198e-05
0.00038055
-0.000266684
-0.000181731
0.000258856
-0.000287917
0.000112198
-0.00020055
-0.000354752
-2.88503e-05
-0.000157061
-0.00042164
-0.00014807
-7.4564e-05
-0.000434599
-0.000233586
4.10304e-05
-0.000397871
-0.000283346
0.000181399
-0.000316038
-0.000296602
0.000334137
-0.000195704
-0.000272791
0.000482711
-4.86291e-05
-0.000212008
0.000605462
0.000107115
-0.000113781
0.000671675
0.000249752
2.30535e-05
0.000645529
0.000353695
0.000187129
0.000518234
0.000393309
0.000339924
0.000326459
0.000355472
0.000436211
0.000126057
0.000248634
0.000453063
-4.00296e-05
9.80463e-05
0.000393132
-0.000150619
-6.31817e-05
0.000277119
-0.000202207
0.000137197
-6.40582e-05
-0.000274368
4.82916e-05
-2.8246e-05
-0.000353459
-5.11887e-05
3.99238e-05
-0.000376374
-0.000126894
0.000138285
-0.00034935
-0.000177624
0.000259713
-0.000278058
-0.000201641
0.000390645
-0.000168456
-0.00019542
0.000512217
-3.04601e-05
-0.000154755
0.00060291
0.000121584
-7.57507e-05
0.000638926
0.000271138
4.17851e-05
0.000599782
0.000397177
0.000184504
0.000485623
0.000469148
0.000318705
0.00032711
0.000458876
0.000406116
0.000168193
0.000363253
0.000425826
4.17448e-05
0.000207602
0.000379947
-3.74184e-05
3.11528e-05
0.000286787
-0.000130129
0.000172835
5.93653e-05
-0.000213971
0.00013039
8.76419e-05
-0.000286333
5.9911e-05
0.000141161
-0.000304305
-2.53192e-06
0.000221533
-0.000276175
-5.69331e-05
0.000321591
-0.000208107
-0.000100059
0.000424896
-0.000105176
-0.000124268
0.000509806
2.53021e-05
-0.00011873
0.00055601
0.000172123
-7.35489e-05
0.000550015
0.000320701
1.33015e-05
0.000489816
0.00044927
0.00012828
0.000388241
0.000525623
0.000241615
0.000271572
0.000518066
0.00032185
0.000168274
0.000420743
0.000351442
9.5824e-05
0.000259797
0.00033194
5.77025e-05
7.79914e-05
0.000277934
-8.82651e-05
0.000207998
0.000149688
-0.00018482
0.000201516
0.000171748
-0.000231184
0.000167204
0.000212615
-0.000228279
0.000121161
0.000276129
-0.000186914
6.18933e-05
0.000353225
-0.000113104
-6.28764e-06
0.000423134
-1.0229e-05
-7.01505e-05
0.000462127
0.000116906
-0.000109644
0.000454988
0.00025837
-0.000106903
0.000402095
0.00039701
-5.72625e-05
0.0003204
0.000507286
2.56636e-05
0.000233442
0.000556782
0.000115646
0.000164004
0.000521514
0.000188864
0.000123891
0.000403455
0.00023316
0.00011187
0.00023446
0.000249425
0.000118614
5.87364e-05
0.000245913
-9.05536e-05
0.000231961
0.000187136
-0.000191057
0.000254359
0.000206258
-0.000195282
0.000257165
0.000239122
-0.000157892
0.000228327
0.00028916
-9.1798e-05
0.000163237
0.000343041
-2.0655e-06
6.68444e-05
0.000375365
0.000109599
-4.04111e-05
0.000363393
0.000239096
-0.000127283
0.000302127
0.000373536
-0.000167637
0.000208973
0.000489632
-0.000155361
0.000115389
0.000557579
-0.000104364
5.11526e-05
0.00055091
-3.60557e-05
3.09259e-05
0.000461136
3.33676e-05
4.99981e-05
0.000307381
9.65e-05
9.01315e-05
0.000130434
0.000151713
0.000132613
-2.66622e-05
0.000199623
-0.000139387
0.000241356
0.00015915
-0.000227253
0.000289902
0.00017976
-0.000180529
0.000321323
0.000211287
-0.000101321
0.000305598
0.000253112
-2.42071e-06
0.000233219
0.000286038
0.000112799
0.000109005
0.000281762
0.00024274
-3.86672e-05
0.000222816
0.000379422
-0.000166631
0.000118867
0.0005015
-0.000242001
3.68732e-06
0.00057771
-0.000259115
-8.28057e-05
0.000579436
-0.000231635
-0.00011462
0.00049474
-0.000175789
-9.0496e-05
0.00033807
-0.000102418
-3.05807e-05
0.000148067
-1.83913e-05
3.7723e-05
-2.86182e-05
7.01881e-05
9.44916e-05
-0.000155824
0.000158002
-0.000221754
0.000240157
6.82789e-05
-0.000281003
0.000308466
9.37599e-05
-0.00018349
0.000352343
0.000129317
-6.29017e-05
0.000341878
0.00016753
7.10088e-05
0.000261228
0.000184757
0.000216556
0.000113754
0.000153697
0.000370651
-6.65555e-05
6.56051e-05
0.000515967
-0.000226326
-5.61572e-05
0.000617141
-0.000325399
-0.000167152
0.000636752
-0.000356515
-0.000228729
0.000556649
-0.000332718
-0.000227199
0.00038859
-0.00027052
-0.000175998
0.000171655
-0.000183025
-0.000103924
-4.12882e-05
-8.09148e-05
-3.79217e-05
-0.000205179
2.69295e-05
9.44174e-06
-0.000295982
0.000133361
-0.000315738
0.000232353
-5.98413e-05
0.000294942
-3.35716e-05
0.000336196
2.66376e-06
0.000327294
3.5518e-05
0.000243657
4.16291e-05
8.26569e-05
3.36314e-06
-0.000122237
-7.63036e-05
-0.000310074
-0.000171625
-0.000427414
-0.000248219
-0.00045568
-0.000281959
-0.000408557
-0.000268652
-0.000314103
-0.000222886
-0.000199841
-0.000167982
-8.48627e-05
-0.0001245
2.22438e-05
-9.91293e-05
0.000120974
0.00021017
-0.00015284
-0.000580474
0.00035217
-8.53198e-05
-0.000419328
0.000315993
-2.00662e-05
-0.000218987
0.000250167
2.21941e-05
1.63185e-05
0.000148003
2.28967e-05
0.000268431
1.9507e-05
-2.06865e-05
0.000502178
-0.000108999
-9.21772e-05
0.00067319
-0.000208345
-0.000167461
0.000743149
-0.000262254
-0.000226808
0.000691995
-0.000268342
-0.00025947
0.000522574
-0.00022919
-0.000264986
0.000263626
-0.000148546
-0.000253949
-3.03066e-05
-3.6937e-05
-0.000241785
-0.000294752
8.47256e-05
-0.000235595
-0.000483736
0.000193188
-0.000229711
-0.000580892
0.000273462
-0.000588613
0.000319728
-0.000269015
-0.00065558
0.000290842
-0.00020147
-0.000490472
0.000234489
-0.000120277
-0.000289278
0.000168133
-4.51699e-05
-4.95439e-05
8.05574e-05
1.94767e-06
0.000212079
-2.43667e-05
6.48626e-06
0.000459123
-0.000130006
-2.90866e-05
0.000639836
-0.000213794
-8.50914e-05
0.000706279
-0.000256804
-0.000137385
0.000635861
-0.000248989
-0.000171475
0.000438753
-0.000189003
-0.00018956
0.000156954
-8.63594e-05
-0.000207153
-0.000142291
3.54019e-05
-0.000236067
-0.00039492
0.00014687
-0.000273355
-0.000565346
0.000227963
-0.000304128
-0.000647736
0.000273751
-0.000643961
0.000288213
-0.00035931
-0.000714811
0.000203137
-0.000288627
-0.000563186
0.000121188
-0.000194212
-0.000378451
4.87944e-05
-9.2537e-05
-0.000153027
-2.65667e-05
-2.27948e-06
0.000100581
-0.000105613
5.85886e-05
0.000351163
-0.000180496
7.87477e-05
0.000547936
-0.000237034
6.11345e-05
0.000633848
-0.000257377
2.17183e-05
0.00057376
-0.000226102
-2.50146e-05
0.000376034
-0.000138784
-7.89552e-05
9.37869e-05
-1.14536e-05
-0.000147034
-0.000197466
0.000120096
-0.000228788
-0.000435401
0.000219442
-0.0003097
-0.000594097
0.000269796
-0.000369922
-0.000673471
0.000274965
-0.000670457
0.000249817
-0.000413771
-0.00075196
9.50184e-05
-0.000341626
-0.000626941
-1.09641e-05
-0.000238006
-0.000470184
-9.25382e-05
-0.000116194
-0.000271583
-0.000160354
9.25863e-06
-3.95927e-05
-0.0002171
0.000120936
0.000202605
-0.000260511
0.000198279
0.000413091
-0.000283665
0.000225292
0.000533975
-0.000272372
0.000201864
0.000513874
-0.000208701
0.000139268
0.000345853
-8.69384e-05
4.52088e-05
8.38357e-05
6.85145e-05
-7.52787e-05
-0.000189757
0.00020861
-0.000206672
-0.000415093
0.00029255
-0.000324685
-0.000571749
0.000308674
-0.000407321
-0.000659938
0.000269692
-0.000669672
0.000201843
-0.000430426
-0.000759862
-1.66769e-05
-0.000359105
-0.000670533
-0.000141522
-0.000251183
-0.0005485
-0.000232237
-0.000117883
-0.000383271
-0.000295321
2.90164e-05
-0.000179837
-0.000333955
0.000174235
4.59713e-05
-0.000348977
0.0002954
0.00026314
-0.000338668
0.000364891
0.000421284
-0.000292966
0.000363951
0.000459058
-0.000193091
0.000293398
0.000345983
-3.38231e-05
0.000165708
0.000123681
0.00014927
1.21981e-06
-0.000124794
0.00029459
-0.000169711
-0.000340453
0.000360126
-0.000315117
-0.000503249
0.000341007
-0.000412653
-0.000609216
0.000258471
-0.000641547
0.00014909
-0.00041157
-0.000734656
-0.000111227
-0.00034241
-0.000686397
-0.000247683
-0.000234745
-0.000601843
-0.000343861
-9.87032e-05
-0.000471558
-0.0004022
5.52875e-05
-0.000297806
-0.000425499
0.000213933
-9.10718e-05
-0.000416053
0.000357708
0.000125987
-0.000375477
0.000457818
0.000313078
-0.00029785
0.000482487
0.000409816
-0.000165604
0.000415618
0.000366366
2.50667e-05
0.00026801
0.00020043
0.000228136
7.36434e-05
-1.52542e-05
0.000372392
-0.000123163
-0.000222338
0.000417441
-0.000284623
-0.000396181
0.000365384
-0.000389104
-0.000525281
0.00024471
-0.000587141
9.98118e-05
-0.000360869
-0.000678451
-0.00016996
-0.000293979
-0.000672838
-0.000309571
-0.000190031
-0.000624944
-0.000406069
-5.84362e-05
-0.000527363
-0.00045907
9.12288e-05
-0.000380654
-0.000470407
0.000247112
-0.000191875
-0.000442383
0.000393265
2.10775e-05
-0.000377808
0.000505501
0.000225826
-0.000274129
0.000549009
0.000369965
-0.000118017
0.000493083
0.000396806
9.06932e-05
0.000340448
0.000297456
0.000300046
0.00013314
0.000122166
0.000435372
-7.39658e-05
-7.47161e-05
0.000459766
-0.00023914
-0.000260893
0.000380982
-0.000342038
-0.000415211
0.000232775
-0.00051067
6.3529e-05
-0.000282615
-0.000599458
-0.000181213
-0.000217741
-0.000633471
-0.000316284
-0.000120378
-0.000617669
-0.000409133
1.1897e-06
-0.000547482
-0.00045829
0.000138069
-0.000422737
-0.000463911
0.000280115
-0.000249273
-0.000426839
0.000413832
-4.23415e-05
-0.000348724
0.000520056
0.00017045
-0.000228709
0.000567767
0.000346257
-5.94958e-05
0.000521212
0.000432446
0.000152588
0.000374989
0.000399926
0.000354385
0.000171673
0.000269604
0.000474794
-2.93389e-05
8.59598e-05
0.000481617
-0.000185031
-0.000111097
0.000386446
-0.00027703
-0.000290278
0.000225923
-0.000420633
4.78949e-05
-0.000183303
-0.000510408
-0.000144387
-0.000120761
-0.000575422
-0.00026866
-3.27678e-05
-0.000582995
-0.000356254
7.39869e-05
-0.000531916
-0.000405667
0.000192416
-0.000422993
-0.000414775
0.000313058
-0.000261579
-0.000381127
0.000423912
-6.17121e-05
-0.000303491
0.000509094
0.000152228
-0.000180741
0.000544161
0.000345534
-1.12908e-05
0.000498609
0.000473652
0.000191475
0.000365208
0.000496969
0.000376281
0.000181366
0.000409365
0.000480293
2.97963e-06
0.000240809
0.000476599
-0.000129023
3.51448e-05
0.000378892
-0.000200093
-0.000166462
0.000224373
-0.000329541
5.58007e-05
-7.30549e-05
-0.000426007
-7.02365e-05
-1.38945e-05
-0.000507718
-0.000178053
6.23109e-05
-0.00052588
-0.000260213
0.000151227
-0.000483314
-0.000315143
0.000246875
-0.0003827
-0.000337581
0.000340047
-0.000229605
-0.000320566
0.000419039
-3.69732e-05
-0.000258486
0.000470409
0.000173534
-0.000148428
0.000477592
0.0003728
7.33668e-06
0.000422928
0.000522951
0.000189868
0.000305071
0.000581212
0.000352319
0.000154241
0.000524181
0.000442131
1.54281e-05
0.000367714
0.000437734
-7.86841e-05
0.000155423
0.000353781
-0.000118869
-6.39882e-05
0.000224498
-0.000252509
8.41172e-05
3.40911e-05
-0.000360599
2.32974e-05
8.85556e-05
-0.000440096
-6.21759e-05
0.000151638
-0.000453108
-0.000138386
0.000221198
-0.00040665
-0.000203158
0.000291277
-0.000305557
-0.000247282
0.000351433
-0.000155766
-0.000258262
0.000389696
3.09705e-05
-0.000224938
0.000396089
0.000235139
-0.000141547
0.000364421
0.000430248
-1.24786e-05
0.00029361
0.000581317
0.000140725
0.000192832
0.000646667
0.000276939
8.57932e-05
0.000597624
0.000355446
1.51735e-06
0.000442613
0.000360819
-4.20023e-05
0.000224036
0.000306847
-4.33159e-05
-5.21382e-06
0.000220474
-0.000205105
0.000124872
0.000120767
-0.000325074
0.000117712
0.000170159
-0.000382449
6.01649e-05
0.000220766
-0.000373595
-8.95988e-06
0.000271606
-0.000309898
-8.56976e-05
0.000314805
-0.00019823
-0.000156814
0.000337225
-4.49521e-05
-0.000203385
0.000327306
0.000138895
-0.00020765
0.000281673
0.000334351
-0.000160482
0.000207641
0.000514238
-6.72201e-05
0.00012101
0.000643643
4.99679e-05
4.0705e-05
0.000684793
0.000157826
-1.57996e-05
0.000614768
0.000228224
-3.74644e-05
0.000444858
0.00025258
-2.41611e-05
0.000219078
0.000241079
1.5196e-05
-8.20235e-06
0.000209545
-0.000199329
0.000168893
0.00016936
-0.000324213
0.000200295
0.00021477
-0.000342551
0.000171857
0.000256098
-0.000297677
0.000111082
0.000291331
-0.000204486
2.25916e-05
0.000308425
-7.15177e-05
-7.69618e-05
0.00029109
9.35597e-05
-0.000161587
0.00023072
0.000278087
-0.000206106
0.000134847
0.000460667
-0.00019808
2.61161e-05
0.00061117
-0.000143563
-6.65642e-05
0.000694889
-6.29297e-05
-0.00011994
0.000682376
1.97364e-05
-0.000124921
0.000565054
8.80632e-05
-8.79255e-05
0.000366463
0.000137899
-2.53326e-05
0.000135251
0.000172947
4.5842e-05
-7.67023e-05
0.000196948
-0.000238025
0.000209737
0.000166476
-0.000355193
0.000264376
0.000210492
-0.000324758
0.000259514
0.000247969
-0.000236239
0.000206683
0.000273316
-0.000105292
0.000108677
0.000268946
5.83518e-05
-1.64945e-05
0.000216013
0.000243786
-0.00013596
0.000112054
0.000432065
-0.00021665
-2.15907e-05
0.00059523
-0.000242919
-0.000147711
0.00069923
-0.000221054
-0.000230732
0.000714502
-0.000168227
-0.000251018
0.000626906
-0.000100032
-0.000211654
0.00044878
-2.55075e-05
-0.000133795
0.000219424
5.07887e-05
-4.33188e-05
-9.93723e-06
0.0001249
3.98324e-05
-0.000193006
0.000191154
-0.000311233
0.000243227
0.00011054
-0.000410185
0.000305272
0.000155839
-0.000329598
0.000311884
0.000194507
-0.000197882
0.000264853
0.000216269
-2.77753e-05
0.000161949
0.00019898
0.000170608
1.87866e-05
0.0001237
0.000381232
-0.000128722
-5.53483e-06
0.000574599
-0.000239625
-0.000153995
0.000710523
-0.000292232
-0.000276015
0.000753599
-0.000288864
-0.000336458
0.000686549
-0.000244323
-0.000326083
0.000518389
-0.000172379
-0.000260673
0.000283705
-8.33604e-05
-0.000169377
3.36181e-05
1.3595e-05
-7.9925e-05
-0.000181862
0.000109403
-5.69239e-06
-0.000329865
0.000195988
-0.000402161
0.000265235
2.16969e-05
0.000306631
6.68723e-05
0.000311841
0.00010392
0.000271953
0.000120333
0.000175209
9.55779e-05
2.78825e-05
1.8856e-05
-0.00013765
-9.7396e-05
-0.000274605
-0.000219591
-0.000347997
-0.000310594
-0.000349261
-0.000347999
-0.000290892
-0.000330302
-0.000194305
-0.00027323
-8.18947e-05
-0.000200373
2.78874e-05
-0.000132308
0.000124015
-7.8068e-05
0.000202893
0.000262978
1.44168e-05
-0.000640347
0.000360916
8.38907e-05
-0.00051015
0.000313087
0.000130434
-0.00030959
0.000237673
0.000138026
-5.43545e-05
0.000141193
9.54248e-05
0.000225535
3.6859e-05
1.01595e-05
0.000483752
-5.72205e-05
-9.32949e-05
0.000672057
-0.000124971
-0.000187874
0.000756982
-0.000158977
-0.000255027
0.000725085
-0.000157816
-0.000286188
0.000580613
-0.000120083
-0.000281304
0.000345514
-4.45135e-05
-0.000249452
6.1855e-05
6.22911e-05
-0.000205755
-0.000215225
0.000179958
-0.000161942
-0.000438161
0.000282614
-0.000119102
-0.000580284
0.000349648
-0.000633628
0.000371855
-8.32629e-05
-0.000709725
0.000293217
-1.91544e-05
-0.000572887
0.000233118
4.53339e-05
-0.000372693
0.000166747
9.54302e-05
-0.000116675
9.27813e-05
0.000112244
0.000169968
1.43859e-05
8.42668e-05
0.000441658
-5.99336e-05
1.80257e-05
0.000642072
-0.000117568
-6.26834e-05
0.00072622
-0.000145333
-0.000131371
0.000677324
-0.000132541
-0.000171824
0.000505985
-7.39214e-05
-0.000183159
0.000245233
2.52575e-05
-0.000178817
-5.03495e-05
0.000143264
-0.000173681
-0.000322213
0.000248722
-0.000172524
-0.000529105
0.000317749
-0.000167904
-0.000654173
0.00034302
-0.000692155
0.000329102
-0.000166943
-0.000761906
0.000201234
-0.000102512
-0.000634436
0.000118307
-2.4744e-05
-0.000452027
5.03602e-05
5.56887e-05
-0.000215216
-8.45777e-06
0.000122609
5.863e-05
-6.11949e-05
0.000157992
0.000332813
-0.000107034
0.000150583
0.000552165
-0.000139718
0.000106242
0.000659467
-0.000146282
4.57734e-05
0.000622642
-0.000110951
-1.08551e-05
0.000449249
-2.54206e-05
-5.94408e-05
0.000182961
9.94041e-05
-0.000105158
-0.000112025
0.000227489
-0.000152797
-0.000374406
0.000319274
-0.000196118
-0.000569606
0.000353618
-0.000222097
-0.000687186
0.000333957
-0.000720863
0.000277456
-0.000231467
-0.000791394
8.23296e-05
-0.000167
-0.000685171
-2.46969e-05
-7.98482e-05