/*--------------------------------*- C++ -*----------------------------------*\
| =========                 |                                                 |
| \\      /  F ield         | OpenFOAM: The Open Source CFD Toolbox           |
|  \\    /   O peration     | Version:  3.0.0                                 |
|   \\  /    A nd           | Web:      www.OpenFOAM.org                      |
|    \\/     M anipulation  |                                                 |
\*---------------------------------------------------------------------------*/
FoamFile
{
    version     2.0;
    format      ascii;
    class       volVectorField;
    location    "2.75";
    object      U;
}
// * * * * * * * * * * * * * * * * * * * * * * * * * * * * * * * * * * * * * //

dimensions      [0 1 -1 0 0 0 0];

internalField   nonuniform List<vector> 
4096
(
(-0.0841967 -0.0435939 0.0605153)
(-0.0734058 -0.00128238 0.0774848)
(-0.0621457 0.032395 0.0824411)
(-0.0472282 0.0598506 0.0671207)
(-0.0351862 0.0849327 0.0297083)
(-0.0305858 0.109882 -0.0224055)
(-0.034048 0.130713 -0.0748466)
(-0.0423815 0.137535 -0.11422)
(-0.0506503 0.120694 -0.134368)
(-0.0549831 0.0770588 -0.135932)
(-0.0546902 0.0138157 -0.122549)
(-0.0531473 -0.0515795 -0.0989079)
(-0.0550353 -0.0991521 -0.0694679)
(-0.0622266 -0.117529 -0.0375525)
(-0.0729022 -0.10832 -0.00515524)
(-0.0757965 -0.0821382 0.0245235)
(-0.134114 -0.0559857 0.0495611)
(-0.118159 -0.0115067 0.0561269)
(-0.104263 0.026667 0.0538236)
(-0.0836848 0.0606278 0.0358457)
(-0.0637748 0.0927504 0.00161051)
(-0.0492131 0.12304 -0.0426273)
(-0.0414046 0.144841 -0.0856654)
(-0.0387717 0.145938 -0.116579)
(-0.0377668 0.11685 -0.12936)
(-0.0361044 0.0589175 -0.12388)
(-0.035775 -0.0134276 -0.104541)
(-0.0417942 -0.0785286 -0.0779819)
(-0.0568918 -0.119406 -0.0498639)
(-0.0790085 -0.131172 -0.0230592)
(-0.10348 -0.119044 0.0016738)
(-0.1123 -0.0926792 0.0223153)
(-0.173664 -0.0664302 0.0318423)
(-0.152193 -0.0245721 0.0285138)
(-0.135818 0.0125549 0.019864)
(-0.109194 0.0472344 0.000952907)
(-0.0800539 0.0806459 -0.02798)
(-0.0529322 0.111389 -0.0621074)
(-0.0301653 0.132239 -0.0933238)
(-0.0132239 0.131123 -0.113088)
(-0.00239644 0.0990212 -0.11596)
(0.0018134 0.0387644 -0.10214)
(-0.00368682 -0.0328509 -0.0776098)
(-0.0223199 -0.0935191 -0.0503531)
(-0.0527974 -0.128739 -0.0260931)
(-0.0894703 -0.13662 -0.00667485)
(-0.126243 -0.123443 0.00841249)
(-0.139227 -0.0973588 0.0191151)
(-0.195623 -0.0738669 0.0116941)
(-0.170993 -0.0394087 -0.000100254)
(-0.152753 -0.00714756 -0.0138662)
(-0.120989 0.0248543 -0.0323257)
(-0.0834337 0.0569027 -0.0547896)
(-0.0445874 0.0870995 -0.0779131)
(-0.0076689 0.108803 -0.0964723)
(0.0230466 0.110585 -0.10438)
(0.0429553 0.082584 -0.0970902)
(0.0482737 0.0270378 -0.075475)
(0.0354667 -0.0383066 -0.0469347)
(0.00402708 -0.0915695 -0.0203114)
(-0.0403942 -0.121035 -0.000726787)
(-0.0893506 -0.12717 0.0108039)
(-0.135897 -0.116208 0.0157614)
(-0.15258 -0.0936414 0.0164443)
(-0.197139 -0.077891 -0.00496723)
(-0.173155 -0.0539685 -0.0233828)
(-0.154167 -0.0291586 -0.0406916)
(-0.119435 -0.0022279 -0.0576108)
(-0.0763645 0.0264806 -0.0733241)
(-0.0294886 0.0550211 -0.0858619)
(0.017498 0.0780094 -0.0924703)
(0.059006 0.0857033 -0.0894322)
(0.0872781 0.0675559 -0.0733586)
(0.0946032 0.0232397 -0.0458387)
(0.0763216 -0.0310591 -0.0152071)
(0.0348962 -0.0751256 0.0097298)
(-0.0200391 -0.0996486 0.0245834)
(-0.0778573 -0.106271 0.0287934)
(-0.130932 -0.100221 0.0243995)
(-0.151403 -0.0839601 0.0157208)
(-0.179606 -0.0765503 -0.0130482)
(-0.159838 -0.0645732 -0.0360476)
(-0.141287 -0.0484398 -0.0550413)
(-0.106196 -0.0278486 -0.0695121)
(-0.0612075 -0.0036211 -0.0788144)
(-0.0108211 0.0223861 -0.0821637)
(0.0410522 0.0459768 -0.0787445)
(0.0887848 0.059623 -0.0669674)
(0.12361 0.0536177 -0.0448856)
(0.134387 0.0249513 -0.0146721)
(0.114064 -0.0144529 0.0155013)
(0.0670251 -0.0479114 0.0378069)
(0.00607142 -0.0681576 0.0484059)
(-0.0565489 -0.0768372 0.0466734)
(-0.11257 -0.0774416 0.0347557)
(-0.13675 -0.0696103 0.0181551)
(-0.147203 -0.0685715 -0.0101658)
(-0.133633 -0.068327 -0.0355166)
(-0.116592 -0.0609368 -0.0543772)
(-0.0834077 -0.0470094 -0.0658933)
(-0.039592 -0.0276846 -0.0698325)
(0.0105384 -0.00471308 -0.0663671)
(0.0628918 0.0184893 -0.0559895)
(0.112092 0.0362979 -0.0387349)
(0.14987 0.0412336 -0.0141745)
(0.163803 0.0293779 0.0152354)
(0.14451 0.00721241 0.0426199)
(0.0966086 -0.0143558 0.0617358)
(0.0345048 -0.030406 0.0690598)
(-0.0285961 -0.0418274 0.0634128)
(-0.0839827 -0.0497499 0.0466221)
(-0.111154 -0.0515529 0.0244078)
(-0.10522 -0.0545739 0.00252829)
(-0.0980449 -0.0644822 -0.0225663)
(-0.0833787 -0.0650006 -0.0397377)
(-0.0537816 -0.057382 -0.0483698)
(-0.0133451 -0.0429515 -0.0488086)
(0.0339461 -0.0233522 -0.0419445)
(0.083749 -0.00148266 -0.0288855)
(0.130639 0.0184041 -0.0103916)
(0.166994 0.0314303 0.0130184)
(0.181339 0.0346322 0.0389663)
(0.164309 0.0298401 0.0624802)
(0.119617 0.0208358 0.0788348)
(0.0610998 0.00933927 0.0844476)
(0.00190465 -0.00460489 0.0773708)
(-0.0492942 -0.0195229 0.058881)
(-0.0777042 -0.0310594 0.0342846)
(-0.05909 -0.0370977 0.0210364)
(-0.0571545 -0.0543538 -0.000809579)
(-0.0455968 -0.061158 -0.0149209)
(-0.0207094 -0.058942 -0.0211218)
(0.0149336 -0.0490332 -0.0204326)
(0.0577169 -0.0329925 -0.0141857)
(0.102908 -0.0131948 -0.00343634)
(0.144603 0.00724203 0.0114171)
(0.175479 0.0256024 0.0301248)
(0.186425 0.0404771 0.0511385)
(0.170814 0.050534 0.0710746)
(0.131944 0.0531989 0.0859924)
(0.081338 0.0464859 0.0918922)
(0.0304707 0.0309126 0.0860686)
(-0.0130256 0.0100917 0.0692675)
(-0.0398046 -0.010111 0.0461612)
(-0.014146 -0.0196618 0.0400267)
(-0.0156498 -0.0405409 0.024587)
(-0.00780715 -0.0512357 0.014998)
(0.0117983 -0.0528711 0.0108533)
(0.0418969 -0.0467445 0.0103544)
(0.0790061 -0.0341361 0.0119569)
(0.117853 -0.0167489 0.0154367)
(0.151823 0.00343991 0.0219965)
(0.173911 0.0252113 0.0330667)
(0.178081 0.0478035 0.0483884)
(0.162042 0.0678336 0.0654126)
(0.129998 0.0788401 0.0801502)
(0.0906776 0.0760617 0.0880741)
(0.0522597 0.0598183 0.0860089)
(0.0199736 0.034995 0.0742983)
(-0.00134894 0.00843572 0.0570408)
(0.0241127 -0.00587925 0.0546746)
(0.0210155 -0.0260677 0.0485645)
(0.0249949 -0.0374785 0.0451209)
(0.039339 -0.0408478 0.042919)
(0.0636256 -0.0372556 0.0392486)
(0.0941973 -0.027437 0.0326959)
(0.124939 -0.012193 0.0247787)
(0.148732 0.00762336 0.0195894)
(0.159542 0.0314364 0.021124)
(0.154873 0.0576712 0.0302475)
(0.136973 0.0813806 0.0443881)
(0.111699 0.0948682 0.0590704)
(0.0855625 0.0929537 0.0697121)
(0.0627707 0.0761323 0.0732854)
(0.0446567 0.0498112 0.069902)
(0.0325391 0.0207964 0.0630247)
(0.0500472 0.00126269 0.0625596)
(0.0468114 -0.013704 0.0677626)
(0.04752 -0.0220904 0.0716786)
(0.0574161 -0.0246178 0.0712333)
(0.0762219 -0.0217519 0.0627132)
(0.099573 -0.0134106 0.0453223)
(0.120502 0.000704668 0.0233803)
(0.131997 0.020513 0.00479796)
(0.130054 0.0448915 -0.00385474)
(0.116159 0.0703833 -0.00137439)
(0.0965069 0.0908353 0.00919904)
(0.0782401 0.0994453 0.0230409)
(0.0659523 0.0930781 0.0363258)
(0.059769 0.0741184 0.0467452)
(0.056621 0.0486741 0.0542668)
(0.0554277 0.0226888 0.0613045)
(0.0586767 0.000116096 0.0648015)
(0.0560031 -0.00535303 0.0813101)
(0.0551357 -0.0069704 0.0923428)
(0.0622524 -0.00577116 0.0927171)
(0.0763935 -0.00138424 0.0777521)
(0.0921641 0.00750148 0.0479914)
(0.10206 0.0222527 0.0114372)
(0.100136 0.0425955 -0.0200878)
(0.0857442 0.0654363 -0.0383688)
(0.0646422 0.0850358 -0.0423148)
(0.0457517 0.0948481 -0.0355916)
(0.0360292 0.0909605 -0.0224769)
(0.0371406 0.074499 -0.00593)
(0.0452299 0.0514718 0.0122333)
(0.0539034 0.0290242 0.03146)
(0.0612306 0.0115545 0.0528253)
(0.0472744 -0.00885764 0.0648023)
(0.0454141 -0.00167219 0.0898624)
(0.045265 0.00631247 0.105566)
(0.0517159 0.0137833 0.104647)
(0.0623793 0.0220558 0.0819287)
(0.0709166 0.0338468 0.0399559)
(0.0699837 0.0509982 -0.00935951)
(0.0558799 0.0716259 -0.0511532)
(0.0322908 0.089559 -0.0765228)
(0.00878374 0.0971327 -0.0849914)
(-0.00495139 0.0893968 -0.080162)
(-0.0046075 0.0674035 -0.0657401)
(0.00728957 0.0382931 -0.0445399)
(0.0236729 0.0117261 -0.018817)
(0.0373344 -0.00524183 0.0101495)
(0.0472041 -0.0109135 0.0421179)
(0.016991 -0.0222643 0.0647473)
(0.0162414 -0.00152354 0.093496)
(0.0184132 0.0170182 0.10989)
(0.0258658 0.0319286 0.104959)
(0.0343247 0.0456335 0.0737573)
(0.0370948 0.0619188 0.0211808)
(0.0282034 0.0819024 -0.0376025)
(0.00706846 0.100761 -0.0854867)
(-0.0187394 0.109236 -0.113243)
(-0.0378996 0.0994653 -0.120984)
(-0.0429906 0.0704522 -0.113059)
(-0.0341971 0.0297926 -0.0941647)
(-0.0176431 -0.0096133 -0.0680429)
(-0.00119198 -0.0362543 -0.0372814)
(0.00975645 -0.0451641 -0.00323343)
(0.0163515 -0.0385549 0.0331022)
(-0.0262036 -0.03074 0.062699)
(-0.0260689 0.00180672 0.0904889)
(-0.022141 0.029651 0.104359)
(-0.0136063 0.0525976 0.0936221)
(-0.00630795 0.0746423 0.0539345)
(-0.00639814 0.100415 -0.00799174)
(-0.0166304 0.127672 -0.0746421)
(-0.0342994 0.143918 -0.12572)
(-0.0517739 0.135304 -0.149593)
(-0.0612271 0.0989717 -0.147601)
(-0.0595509 0.0451309 -0.128811)
(-0.0492222 -0.00999161 -0.101988)
(-0.0360591 -0.0521609 -0.0723616)
(-0.0261312 -0.0735788 -0.0413783)
(-0.0227677 -0.0737567 -0.00853182)
(-0.0221995 -0.0581517 0.0256836)
(-0.0782239 -0.0991449 0.0764285)
(-0.0607501 -0.0548265 0.0812613)
(-0.0448776 -0.0101922 0.0757202)
(-0.0271735 0.0349776 0.0533097)
(-0.0145337 0.0798137 0.0148575)
(-0.0122215 0.120823 -0.0306945)
(-0.0204165 0.151253 -0.0707652)
(-0.0345266 0.16312 -0.0966355)
(-0.0485428 0.150273 -0.10621)
(-0.0580072 0.110778 -0.101171)
(-0.0614321 0.049465 -0.0841892)
(-0.0611422 -0.020365 -0.0588735)
(-0.0616917 -0.0808289 -0.029662)
(-0.065919 -0.118374 -0.000403695)
(-0.0731578 -0.129523 0.0267851)
(-0.0742011 -0.118818 0.0494319)
(-0.117566 -0.114809 0.0632944)
(-0.097221 -0.0694137 0.0589185)
(-0.0792155 -0.0221172 0.0483299)
(-0.0559645 0.0286733 0.0259495)
(-0.0349354 0.0813546 -0.00741735)
(-0.0220835 0.130249 -0.0451724)
(-0.0196397 0.164874 -0.0778835)
(-0.0251689 0.173549 -0.0979859)
(-0.0331187 0.149515 -0.102334)
(-0.0389833 0.0949 -0.0915188)
(-0.0426677 0.0217183 -0.0690835)
(-0.0483804 -0.0510079 -0.0409268)
(-0.0600133 -0.106242 -0.0129929)
(-0.0772397 -0.13623 0.0113104)
(-0.0965687 -0.142422 0.0311865)
(-0.103197 -0.129453 0.045623)
(-0.147938 -0.131854 0.0434633)
(-0.12408 -0.0879813 0.0302393)
(-0.104074 -0.0421023 0.0152367)
(-0.0757933 0.00828667 -0.00604737)
(-0.0464081 0.0613824 -0.0330468)
(-0.021403 0.111257 -0.0614421)
(-0.00442038 0.14702 -0.0848145)
(0.00317172 0.155901 -0.0968624)
(0.0033365 0.130347 -0.0936882)
(-0.00110687 0.0734467 -0.075399)
(-0.0105243 -0.000310058 -0.0470718)
(-0.0280823 -0.07041 -0.0168985)
(-0.0543008 -0.121152 0.00823811)
(-0.0851095 -0.147531 0.025635)
(-0.115162 -0.152355 0.0359834)
(-0.125257 -0.138724 0.0406533)
(-0.163499 -0.143898 0.0208984)
(-0.138228 -0.10638 0.000223409)
(-0.116923 -0.0660058 -0.0185919)
(-0.0848088 -0.0198655 -0.0385251)
(-0.0484812 0.0304465 -0.0591846)
(-0.012742 0.0798636 -0.0780607)
(0.0181774 0.118635 -0.0913136)
(0.0395726 0.133414 -0.0941331)
(0.0485407 0.11381 -0.0823088)
(0.0449971 0.0613147 -0.0558533)
(0.0283376 -0.00809139 -0.0216856)
(-0.00206333 -0.0729133 0.00976537)
(-0.0422609 -0.119082 0.0312553)
(-0.0848644 -0.143865 0.0409719)
(-0.123279 -0.150427 0.0410264)
(-0.136004 -0.13955 0.0354689)
(-0.163246 -0.150327 0.000562316)
(-0.139332 -0.122254 -0.0258505)
(-0.11767 -0.0898128 -0.0475871)
(-0.0836656 -0.0503029 -0.0660181)
(-0.0432141 -0.0050622 -0.0808923)
(-0.000537857 0.0420306 -0.0910055)
(0.0402933 0.0833447 -0.0945327)
(0.0733034 0.106794 -0.0882165)
(0.0916397 0.0993593 -0.0679191)
(0.0906633 0.0581662 -0.0338249)
(0.068372 -0.00208764 0.005155)
(0.0271737 -0.0597664 0.0369025)
(-0.0242962 -0.102273 0.0543114)
(-0.0757619 -0.12792 0.0564552)
(-0.119734 -0.139059 0.0465953)
(-0.134877 -0.133989 0.0311204)
(-0.149112 -0.149344 -0.0129707)
(-0.128674 -0.132406 -0.0432196)
(-0.107589 -0.109031 -0.0666103)
(-0.0737088 -0.0772151 -0.0832579)
(-0.0321549 -0.0380922 -0.0930265)
(0.0132723 0.00544131 -0.0956011)
(0.058881 0.0477241 -0.0905975)
(0.0991302 0.0790853 -0.0762705)
(0.125792 0.0862142 -0.0491213)
(0.129479 0.0614355 -0.00966029)
(0.104816 0.0148373 0.0318513)
(0.0565297 -0.034034 0.0625908)
(-0.00237552 -0.0736259 0.0758731)
(-0.0591932 -0.101956 0.0713533)
(-0.105797 -0.119601 0.0530497)
(-0.123218 -0.122672 0.0288333)
(-0.124262 -0.140037 -0.0165346)
(-0.108269 -0.134735 -0.0486463)
(-0.0884004 -0.120558 -0.0723112)
(-0.0562124 -0.0964792 -0.0870034)
(-0.0159293 -0.0634993 -0.0926996)
(0.0290063 -0.0238476 -0.0895935)
(0.0751312 0.018092 -0.0781238)
(0.117697 0.0548262 -0.0577651)
(0.149148 0.0748889 -0.0262826)
(0.157562 0.0682334 0.0151363)
(0.133569 0.0385202 0.0561947)
(0.082545 0.000172984 0.084609)
(0.020644 -0.0365727 0.0942124)
(-0.037712 -0.0684065 0.0847585)
(-0.0840197 -0.0934225 0.0605479)
(-0.103091 -0.106043 0.0298872)
(-0.0920051 -0.123395 -0.00949119)
(-0.080342 -0.128961 -0.0412888)
(-0.0621757 -0.123252 -0.0639918)
(-0.0328023 -0.10622 -0.0769702)
(0.0045703 -0.0788383 -0.0802983)
(0.046863 -0.0429673 -0.0743168)
(0.0906362 -0.00228239 -0.0596472)
(0.131509 0.0371783 -0.0363853)
(0.162959 0.0665263 -0.00366441)
(0.173298 0.0763475 0.036462)
(0.151384 0.0645533 0.0746544)
(0.10176 0.0381138 0.100132)
(0.0414553 0.00478079 0.107181)
(-0.0144321 -0.0304022 0.0953236)
(-0.0574428 -0.0627051 0.0686099)
(-0.0767533 -0.0852774 0.0349841)
(-0.055714 -0.102035 0.0061036)
(-0.0475893 -0.116398 -0.0229201)
(-0.0316189 -0.117546 -0.0436025)
(-0.00585802 -0.106244 -0.0554967)
(0.0275195 -0.0835686 -0.0587204)
(0.0657401 -0.051241 -0.0534688)
(0.105169 -0.0124944 -0.0399248)
(0.14124 0.0276211 -0.0180108)
(0.168024 0.0626094 0.0123846)
(0.175927 0.0851266 0.0486638)
(0.155571 0.08947 0.0828603)
(0.110621 0.074988 0.105853)
(0.0564613 0.0457323 0.112169)
(0.00724107 0.0080234 0.100941)
(-0.0293226 -0.0307148 0.0757121)
(-0.0465691 -0.0625702 0.0435732)
(-0.0191612 -0.0797112 0.0260585)
(-0.0134711 -0.0994883 0.00257475)
(-0.000214127 -0.104927 -0.0149716)
(0.0214218 -0.0974025 -0.0264246)
(0.0501357 -0.0782341 -0.0319888)
(0.0831994 -0.0490559 -0.0313368)
(0.116473 -0.0126755 -0.0236129)
(0.144896 0.0267737 -0.00769554)
(0.162946 0.0646022 0.0168167)
(0.164199 0.0951841 0.0473541)
(0.143807 0.111098 0.0772224)
(0.105663 0.106261 0.0986003)
(0.0618314 0.0809375 0.106155)
(0.0236055 0.0417057 0.0986953)
(-0.00319861 -0.0019676 0.0792234)
(-0.0154076 -0.0411962 0.0535627)
(0.013198 -0.0606117 0.0454185)
(0.0176218 -0.0812955 0.0303063)
(0.0278693 -0.0875361 0.0172186)
(0.045242 -0.0812408 0.00575825)
(0.0689729 -0.0639671 -0.00428386)
(0.0959395 -0.0371781 -0.0117566)
(0.121102 -0.00309838 -0.0140161)
(0.13891 0.035089 -0.00794441)
(0.144898 0.0736784 0.00794353)
(0.136695 0.1075 0.0313977)
(0.114897 0.128393 0.0565033)
(0.0846755 0.128005 0.0765042)
(0.0544987 0.104494 0.086637)
(0.0311664 0.0642058 0.085702)
(0.0171144 0.0177557 0.0759575)
(0.0127934 -0.0253448 0.0616535)
(0.0363549 -0.048478 0.0604418)
(0.0405437 -0.0649536 0.0558265)
(0.0480515 -0.067894 0.0483243)
(0.0616241 -0.0598104 0.0366407)
(0.0804732 -0.0423247 0.0204528)
(0.100492 -0.0165615 0.00221388)
(0.115509 0.0159917 -0.0127444)
(0.120066 0.0528531 -0.0185842)
(0.112056 0.0902677 -0.0126041)
(0.0938422 0.122298 0.00301968)
(0.0708414 0.140443 0.0227305)
(0.0494369 0.136988 0.0410247)
(0.0347731 0.110749 0.0543627)
(0.0283688 0.0687687 0.0618382)
(0.0282671 0.0222711 0.0646055)
(0.0329278 -0.0194741 0.0649849)
(0.0455879 -0.0455789 0.0701094)
(0.0501827 -0.0529827 0.0761929)
(0.0560975 -0.0485981 0.0743912)
(0.0670505 -0.0355405 0.0620378)
(0.0815533 -0.0152725 0.0385988)
(0.0940476 0.0116084 0.00838986)
(0.097462 0.0441784 -0.0197773)
(0.0876408 0.0798049 -0.0372145)
(0.0663493 0.11344 -0.0405863)
(0.0406112 0.137823 -0.0324606)
(0.0190414 0.145021 -0.0178579)
(0.00782781 0.130397 -0.000839268)
(0.00835033 0.0962365 0.0163713)
(0.017114 0.0517334 0.0328142)
(0.0284706 0.00830322 0.0482747)
(0.0399357 -0.0262876 0.0632249)
(0.0379234 -0.0520409 0.0757289)
(0.0432875 -0.046832 0.08992)
(0.049344 -0.0321596 0.0921953)
(0.0593709 -0.0114115 0.0781783)
(0.0705299 0.0142652 0.0471661)
(0.0757635 0.0446677 0.00576585)
(0.0678746 0.0786309 -0.0335516)
(0.0454133 0.112108 -0.0598993)
(0.0148571 0.138035 -0.0701734)
(-0.0129982 0.14842 -0.0673373)
(-0.0288541 0.137705 -0.055591)
(-0.0291374 0.106296 -0.0378821)
(-0.0168061 0.0617013 -0.0161275)
(0.00112363 0.0156122 0.00799804)
(0.0177323 -0.0215262 0.0332226)
(0.0309532 -0.044774 0.0586198)
(0.0139154 -0.0655455 0.0780576)
(0.0204959 -0.046265 0.0955797)
(0.0280152 -0.0202652 0.0990537)
(0.038451 0.00937006 0.0822696)
(0.0473759 0.041847 0.0444285)
(0.0469808 0.0767709 -0.00588485)
(0.03115 0.111655 -0.053225)
(0.00170682 0.140309 -0.0849867)
(-0.0309565 0.15422 -0.0979571)
(-0.054528 0.146292 -0.0953682)
(-0.0619092 0.114981 -0.0817108)
(-0.0536558 0.0665661 -0.0605535)
(-0.0360868 0.0134116 -0.0346295)
(-0.017201 -0.0314193 -0.0060589)
(-0.00260335 -0.0597526 0.0236943)
(0.00746233 -0.0702936 0.0532401)
(-0.0198957 -0.0742814 0.0738827)
(-0.0123087 -0.0443056 0.0904001)
(-0.00441313 -0.00966457 0.0930433)
(0.0056348 0.0287549 0.0738511)
(0.0123987 0.0714423 0.0311369)
(0.00911648 0.117199 -0.0259715)
(-0.00718965 0.158668 -0.0800038)
(-0.0322478 0.182428 -0.115326)
(-0.0565116 0.177183 -0.126329)
(-0.071231 0.141632 -0.116754)
(-0.0728811 0.0849976 -0.0943367)
(-0.0636932 0.0220756 -0.0662853)
(-0.049439 -0.0328476 -0.0372499)
(-0.0362851 -0.0704109 -0.00889662)
(-0.0280291 -0.0876994 0.0189833)
(-0.0228999 -0.0873036 0.0459398)
(-0.0515971 -0.1428 0.0869636)
(-0.0302062 -0.100933 0.080791)
(-0.0127399 -0.0495593 0.0664836)
(0.00247223 0.00861449 0.0406073)
(0.00908625 0.0684874 0.00519532)
(0.00308958 0.122223 -0.0321199)
(-0.013487 0.161311 -0.0621594)
(-0.0341891 0.17906 -0.0793607)
(-0.0525069 0.171358 -0.0827612)
(-0.0643358 0.136907 -0.0734435)
(-0.0683307 0.0789008 -0.0530109)
(-0.0663195 0.00735708 -0.0246146)
(-0.0625912 -0.0621523 0.00645955)
(-0.0606143 -0.114942 0.0348658)
(-0.0607629 -0.143522 0.0574609)
(-0.0574375 -0.147427 0.0725346)
(-0.0812852 -0.15673 0.0720486)
(-0.0602771 -0.114598 0.0595584)
(-0.041379 -0.0625683 0.0435914)
(-0.020109 -0.000576169 0.0202833)
(-0.00298268 0.0669432 -0.00940844)
(0.00402901 0.130265 -0.0403463)
(-0.00107242 0.176029 -0.0654804)
(-0.0146521 0.192576 -0.0790847)
(-0.0297139 0.174664 -0.0784914)
(-0.040622 0.124685 -0.0637506)
(-0.0461326 0.0526834 -0.0377769)
(-0.0496641 -0.024795 -0.00674684)
(-0.0556658 -0.0910319 0.0221564)
(-0.0652897 -0.135962 0.0443578)
(-0.0762896 -0.157646 0.0588484)
(-0.0790199 -0.157188 0.0660352)
(-0.105267 -0.17657 0.0504884)
(-0.0831229 -0.135085 0.030861)
(-0.0627138 -0.0847111 0.0125152)
(-0.036697 -0.0240683 -0.00827757)
(-0.0107046 0.0430586 -0.0314347)
(0.0097075 0.107665 -0.0541346)
(0.0201419 0.155966 -0.0717425)
(0.0193814 0.17413 -0.0790363)
(0.0109929 0.15533 -0.0720607)
(-1.94322e-05 0.102793 -0.0501606)
(-0.0119661 0.029091 -0.0179187)
(-0.0272124 -0.0472832 0.0155018)
(-0.0473708 -0.110095 0.0414666)
(-0.0699952 -0.151677 0.056222)
(-0.0907843 -0.171623 0.0607466)
(-0.0971459 -0.169909 0.0580868)
(-0.119245 -0.1897 0.0246154)
(-0.0970199 -0.153516 -0.00143279)
(-0.0756284 -0.109136 -0.0225567)
(-0.0461541 -0.0541752 -0.0415841)
(-0.013342 0.00868473 -0.0588495)
(0.0182684 0.0724415 -0.0731046)
(0.0435986 0.124946 -0.0818298)
(0.0572323 0.15086 -0.080864)
(0.05719 0.139023 -0.0656014)
(0.0461252 0.0904609 -0.0350705)
(0.0263419 0.0195458 0.00400618)
(-0.00194578 -0.0533072 0.0394094)
(-0.0360783 -0.112528 0.0616139)
(-0.0702046 -0.152434 0.0680879)
(-0.0986841 -0.173305 0.061772)
(-0.107436 -0.173483 0.0485205)
(-0.122616 -0.195819 -0.00109341)
(-0.101627 -0.167883 -0.0321759)
(-0.0798782 -0.13187 -0.0558314)
(-0.0485452 -0.0850055 -0.073583)
(-0.0117511 -0.0289753 -0.0858653)
(0.0267595 0.0313413 -0.0924076)
(0.0623951 0.0867025 -0.0922846)
(0.0882918 0.122864 -0.08256)
(0.0977269 0.124608 -0.0584024)
(0.088699 0.0872641 -0.018888)
(0.0627449 0.0240202 0.026614)
(0.0232578 -0.0433753 0.0631065)
(-0.0223688 -0.0997867 0.0809195)
(-0.0652484 -0.140352 0.0789946)
(-0.0989173 -0.164825 0.062048)
(-0.109401 -0.169743 0.0384223)
(-0.116377 -0.193639 -0.0215868)
(-0.0973646 -0.175768 -0.0559282)
(-0.0757461 -0.149257 -0.0811427)
(-0.0441412 -0.111439 -0.0975685)
(-0.00623539 -0.0631985 -0.105586)
(0.0346833 -0.00777306 -0.105468)
(0.0747558 0.0482036 -0.0973684)
(0.107909 0.093195 -0.0796043)
(0.125834 0.110947 -0.0477085)
(0.121384 0.0904336 -0.000987963)
(0.0926804 0.0397917 0.048903)
(0.0455824 -0.0201864 0.0849766)
(-0.0078539 -0.074384 0.0980447)
(-0.0561355 -0.117343 0.0884148)
(-0.0923229 -0.147257 0.0622108)
(-0.103957 -0.159045 0.0295384)
(-0.101898 -0.182844 -0.0326482)
(-0.0849242 -0.175953 -0.0682279)
(-0.0637193 -0.159174 -0.0937054)
(-0.0331555 -0.130252 -0.108684)
(0.00351876 -0.0894801 -0.113384)
(0.0433454 -0.03899 -0.108229)
(0.08302 0.0162223 -0.0938603)
(0.117804 0.0670599 -0.0696219)
(0.140429 0.0988924 -0.0321965)
(0.140942 0.0971913 0.0183453)
(0.112821 0.0628743 0.0692773)
(0.0624634 0.0123965 0.103169)
(0.0055379 -0.0394957 0.111613)
(-0.0444677 -0.0856141 0.0958819)
(-0.0803968 -0.12187 0.0630143)
(-0.0922755 -0.141905 0.0238861)
(-0.080532 -0.164843 -0.0320521)
(-0.0652648 -0.168799 -0.0668816)
(-0.0447614 -0.161074 -0.0915514)
(-0.0163545 -0.14004 -0.10544)
(0.0172827 -0.105661 -0.108491)
(0.0535745 -0.0594987 -0.100871)
(0.0896023 -0.00569114 -0.0830746)
(0.121619 0.0482165 -0.0549643)
(0.144037 0.0901264 -0.0147485)
(0.147018 0.105581 0.0360622)
(0.121187 0.0890785 0.0848484)
(0.0717592 0.0498691 0.115311)
(0.0158707 0.000992887 0.119994)
(-0.0319844 -0.0481917 0.100697)
(-0.0647384 -0.0909626 0.0648277)
(-0.0753896 -0.11993 0.0230213)
(-0.054026 -0.142419 -0.0203563)
(-0.0400536 -0.155775 -0.0525558)
(-0.0207331 -0.1554 -0.0757937)
(0.00457002 -0.14048 -0.089527)
(0.0338302 -0.11102 -0.09327)
(0.0648717 -0.0684009 -0.0865375)
(0.0950572 -0.0163425 -0.0691255)
(0.121146 0.0385604 -0.0407883)
(0.138819 0.0865483 -0.00102319)
(0.140183 0.115186 0.0470662)
(0.116467 0.115085 0.0916957)
(0.0714529 0.0876535 0.118588)
(0.0211421 0.042597 0.121235)
(-0.0205112 -0.00908055 0.10166)
(-0.0470393 -0.0580014 0.0671788)
(-0.0544039 -0.0958399 0.0273096)
(-0.0250279 -0.11918 -0.00077196)
(-0.0119545 -0.138989 -0.0284294)
(0.00555807 -0.143181 -0.0498335)
(0.0270211 -0.131931 -0.0645429)
(0.0510053 -0.105642 -0.071504)
(0.0755542 -0.0657006 -0.0692058)
(0.0980535 -0.015564 -0.0562769)
(0.115503 0.0389093 -0.0318022)
(0.124584 0.0897429 0.00398757)
(0.120325 0.126624 0.0468995)
(0.0975284 0.13866 0.0863305)
(0.0595575 0.121287 0.110277)
(0.0191891 0.080124 0.113148)
(-0.0120775 0.0266001 0.0970198)
(-0.0292804 -0.027613 0.0685953)
(-0.0310044 -0.0732245 0.0355843)
(0.00276522 -0.0989968 0.0219701)
(0.0153583 -0.120904 0.000846956)
(0.0305365 -0.125939 -0.0182056)
(0.0478118 -0.115378 -0.0347828)
(0.0660755 -0.0901846 -0.047105)
(0.083159 -0.0518404 -0.0523329)
(0.0961456 -0.00349474 -0.0474739)
(0.102296 0.0496639 -0.0304997)
(0.0997354 0.100733 -0.00180438)
(0.0871843 0.140624 0.03389)
(0.0643178 0.158345 0.0672723)
(0.0352151 0.146493 0.0887915)
(0.00854194 0.107579 0.094074)
(-0.00851425 0.0525429 0.0850515)
(-0.0137751 -0.00543178 0.0670713)
(-0.00790515 -0.0561717 0.0454272)
(0.0249368 -0.0853493 0.0433829)
(0.0374647 -0.104165 0.0304759)
(0.0501953 -0.10574 0.0143745)
(0.0635294 -0.0924992 -0.00448361)
(0.076143 -0.0659718 -0.0235897)
(0.0850672 -0.0277203 -0.038463)
(0.0868818 0.0194235 -0.0440423)
(0.0796144 0.0707099 -0.0369137)
(0.0638884 0.119483 -0.0174048)
(0.0426943 0.156885 0.00961418)
(0.0202099 0.172525 0.036262)
(0.00130186 0.159194 0.0557064)
(-0.00945848 0.118744 0.06519)
(-0.0102599 0.0619609 0.0661312)
(-0.00272119 0.00269656 0.0616351)
(0.0110664 -0.0486064 0.0542403)
(0.0370323 -0.0804967 0.0607618)
(0.0497883 -0.0912001 0.0563828)
(0.0606978 -0.0851408 0.0435504)
(0.0710374 -0.0657963 0.0224018)
(0.0786482 -0.0351513 -0.00399536)
(0.0792488 0.00511314 -0.0292589)
(0.0691 0.0521748 -0.0459014)
(0.0480404 0.101044 -0.0491222)
(0.0203583 0.144391 -0.0392885)
(-0.00684136 0.17314 -0.0211291)
(-0.0265294 0.178401 -0.000669389)
(-0.034277 0.155755 0.0178378)
(-0.0295777 0.10923 0.0328943)
(-0.0157083 0.0505168 0.0447648)
(0.00230914 -0.00663338 0.0539845)
(0.0216467 -0.0528762 0.0606291)
(0.0358383 -0.0851668 0.073268)
(0.0489619 -0.0839449 0.0756286)
(0.0592707 -0.0671313 0.06557)
(0.0681648 -0.0388095 0.0423481)
(0.0721663 -0.00132224 0.00918565)
(0.0654819 0.043097 -0.0256048)
(0.0445271 0.0907979 -0.051991)
(0.0119845 0.135682 -0.0639824)
(-0.0236169 0.169429 -0.0621316)
(-0.051986 0.183403 -0.0507208)
(-0.0655726 0.171547 -0.0339364)
(-0.062311 0.134035 -0.0143116)
(-0.0457672 0.0788978 0.00670026)
(-0.0227413 0.0193209 0.0277944)
(0.000165728 -0.0321714 0.0475274)
(0.0204041 -0.0685977 0.0644268)
(0.0208972 -0.0986439 0.0803066)
(0.0346886 -0.0835264 0.0857718)
(0.045515 -0.0545521 0.0772884)
(0.0543967 -0.0158652 0.0526001)
(0.0565632 0.0297103 0.0143521)
(0.045243 0.078719 -0.0280903)
(0.0175505 0.125882 -0.0624037)
(-0.0210234 0.163764 -0.0808781)
(-0.0584079 0.183956 -0.083325)
(-0.0828732 0.179513 -0.0736033)
(-0.0887245 0.148287 -0.0556601)
(-0.0774321 0.0954864 -0.032472)
(-0.05558 0.0329835 -0.00657399)
(-0.031181 -0.0251668 0.0196876)
(-0.0100086 -0.0684478 0.0443587)
(0.00671789 -0.0928778 0.0656249)
(-0.00256176 -0.105877 0.0779659)
(0.0119146 -0.0811299 0.0829688)
(0.0224937 -0.0443576 0.0757779)
(0.0306129 0.00299855 0.0518019)
(0.0311343 0.0595473 0.0115424)
(0.0183262 0.120462 -0.0363492)
(-0.00838277 0.174695 -0.077834)
(-0.0419663 0.207433 -0.101617)
(-0.0714757 0.207998 -0.104486)
(-0.0883381 0.175386 -0.0900401)
(-0.0897672 0.118069 -0.0647487)
(-0.0784708 0.0499653 -0.0350823)
(-0.0603701 -0.0145208 -0.00590132)
(-0.0416247 -0.0647293 0.0202711)
(-0.0263052 -0.095677 0.0429511)
(-0.0145334 -0.107733 0.0617849)
(-0.00890638 -0.161132 0.0929606)
(0.0139616 -0.127211 0.0808669)
(0.0293705 -0.0750488 0.0615866)
(0.0375843 -0.0106135 0.0352579)
(0.0335776 0.0571139 0.00495993)
(0.0158762 0.117098 -0.023477)
(-0.0105948 0.16017 -0.044346)
(-0.0378298 0.18113 -0.0548378)
(-0.0593922 0.177627 -0.0546611)
(-0.0719203 0.149103 -0.044042)
(-0.0745004 0.0976452 -0.0232889)
(-0.0685931 0.0301931 0.00537)
(-0.0579666 -0.0410021 0.0365069)
(-0.0466489 -0.102053 0.0636543)
(-0.0365521 -0.143071 0.0822832)
(-0.0256497 -0.1601 0.090639)
(-0.0326299 -0.170933 0.0759572)
(-0.0128868 -0.136461 0.0600369)
(0.00387768 -0.0847758 0.0421702)
(0.0197281 -0.0183179 0.0208514)
(0.029521 0.0559789 -0.00299106)
(0.0281089 0.125689 -0.0260582)
(0.0145346 0.176251 -0.0438572)
(-0.00631514 0.19708 -0.0523829)
(-0.0267042 0.18461 -0.0491071)
(-0.0406781 0.141369 -0.0332495)
(-0.0463228 0.0752029 -0.00673116)
(-0.0460984 -0.000680127 0.0245542)
(-0.0445469 -0.0712907 0.0526811)
(-0.044341 -0.125406 0.0719627)
(-0.0450084 -0.158221 0.0809178)
(-0.0418455 -0.168744 0.0807505)
(-0.0535537 -0.18965 0.0527098)
(-0.0347989 -0.154961 0.0307894)
(-0.0167429 -0.105032 0.0121374)
(0.00432072 -0.0408187 -0.00553425)
(0.0244937 0.0322152 -0.0227023)
(0.0386127 0.103185 -0.0382407)
(0.0420893 0.157027 -0.0495383)
(0.0340968 0.180228 -0.0526725)
(0.0192693 0.167196 -0.043683)
(0.0038762 0.121143 -0.020964)
(-0.00887121 0.0522321 0.011982)
(-0.0203008 -0.0242238 0.0457996)
(-0.0327534 -0.0927859 0.0706247)
(-0.0456144 -0.143874 0.081598)
(-0.0561288 -0.174282 0.0797276)
(-0.0577282 -0.182708 0.0691636)
(-0.0694143 -0.200826 0.0234199)
(-0.0516515 -0.170187 -0.0045158)
(-0.0327096 -0.126527 -0.0251696)
(-0.00794506 -0.0692971 -0.0408019)
(0.0197415 -0.00197307 -0.0524921)
(0.0462648 0.0675286 -0.0603624)
(0.0659853 0.126097 -0.0634026)
(0.0730642 0.157969 -0.058518)
(0.0662394 0.152295 -0.0411415)
(0.0500229 0.109711 -0.00933825)
(0.0290039 0.0421432 0.0311262)
(0.00443674 -0.0325811 0.0673609)
(-0.0221482 -0.0985958 0.0880379)
(-0.0467539 -0.147717 0.089759)
(-0.0651199 -0.177707 0.0761109)
(-0.0697169 -0.186575 0.054343)
(-0.0794583 -0.204806 -0.00782635)
(-0.0627362 -0.180957 -0.040598)
(-0.0432159 -0.145982 -0.0634159)
(-0.0161391 -0.0982022 -0.0779536)
(0.0160051 -0.0393208 -0.0853987)
(0.0499306 0.0256538 -0.0864691)
(0.0805636 0.0870137 -0.0812114)
(0.10035 0.129797 -0.0674182)
(0.102827 0.138175 -0.0403266)
(0.0880799 0.106393 0.00176232)
(0.0605496 0.0451244 0.0499776)
(0.0246483 -0.0256699 0.087816)
(-0.0135964 -0.0894547 0.103467)
(-0.0471163 -0.138487 0.0955503)
(-0.0708398 -0.170387 0.0702134)
(-0.0771833 -0.182162 0.037625)
(-0.0833327 -0.200906 -0.0355427)
(-0.0672078 -0.185802 -0.0711223)
(-0.0471818 -0.160813 -0.0952195)
(-0.0191149 -0.12339 -0.108701)
(0.0145117 -0.0737491 -0.112606)
(0.0507574 -0.014716 -0.107849)
(0.0854698 0.0469473 -0.0950915)
(0.112064 0.098891 -0.0729796)
(0.12241 0.123619 -0.0370063)
(0.111655 0.108349 0.0140145)
(0.0812008 0.0585884 0.0681302)
(0.0377378 -0.00587577 0.105869)
(-0.00824407 -0.0675795 0.115811)
(-0.0470823 -0.117926 0.0987521)
(-0.0733707 -0.153408 0.0631299)
(-0.0802592 -0.17 0.0214582)
(-0.0804615 -0.189347 -0.0543749)
(-0.0641722 -0.184349 -0.0904126)
(-0.0436205 -0.169754 -0.114448)
(-0.015864 -0.142375 -0.126687)
(0.0165649 -0.101234 -0.127838)
(0.0509732 -0.0477448 -0.118654)
(0.084047 0.0130787 -0.0999198)
(0.110947 0.0711617 -0.0709672)
(0.124832 0.110134 -0.0282951)
(0.118349 0.113228 0.0281876)
(0.0885005 0.0788417 0.0845424)
(0.0421571 0.023171 0.11996)
(-0.00687712 -0.0359923 0.124004)
(-0.0470316 -0.0882341 0.0993836)
(-0.0728582 -0.128257 0.0563234)
(-0.0788393 -0.151111 0.00867371)
(-0.0702194 -0.171895 -0.0606059)
(-0.0531678 -0.177437 -0.0950965)
(-0.0323241 -0.17257 -0.118103)
(-0.00630501 -0.153833 -0.129493)
(0.022527 -0.119526 -0.129435)
(0.0519243 -0.070358 -0.118128)
(0.079399 -0.0105877 -0.0959423)
(0.101686 0.0510311 -0.0625433)