/*--------------------------------*- C++ -*----------------------------------*\
| =========                 |                                                 |
| \\      /  F ield         | OpenFOAM: The Open Source CFD Toolbox           |
|  \\    /   O peration     | Version:  3.0.0                                 |
|   \\  /    A nd           | Web:      www.OpenFOAM.org                      |
|    \\/     M anipulation  |                                                 |
\*---------------------------------------------------------------------------*/
FoamFile
{
    version     2.0;
    format      ascii;
    class       volScalarField;
    location    "0.014";
    object      p;
}
// * * * * * * * * * * * * * * * * * * * * * * * * * * * * * * * * * * * * * //

dimensions      [1 -1 -2 0 0 0 0];

internalField   nonuniform List<scalar> 
1000
(
88218.6
88200.1
88186.8
88169.8
88150.4
88128.7
88104.8
88078.5
88049.9
88018.9
87985.5
87949.6
87911.1
87870.2
87826.5
87780.2
87731.2
87679.4
87624.7
87567.1
87506.5
87442.8
87376
87306.1
87232.9
87156.4
87076.5
86993.3
86906.5
86816.3
86722.5
86625.1
86524.1
86419.4
86311.2
86199.3
86083.8
85964.7
85842
85715.9
85586.2
85453.2
85316.9
85177.3
85034.7
84889
84740.4
84589.1
84435.1
84278.7
84119.9
83958.9
83795.8
83630.8
83464.1
83295.7
83125.9
82954.7
82782.3
82608.9
82434.5
82259.3
82083.3
81906.8
81729.7
81552.2
81374.3
81196.1
81017.7
80839.2
80660.5
80481.9
80303.2
80124.5
79945.9
79767.4
79589.1
79410.9
79232.8
79055
78877.3
78699.9
78522.6
78345.7
78168.9
77992.5
77816.3
77640.3
77464.6
77289.2
77114.1
76939.2
76764.7
76590.4
76416.4
76242.7
76069.2
75896.1
75723.3
75550.7
75378.5
75206.5
75034.9
74863.5
74692.4
74521.7
74351.2
74181
74011.2
73841.6
73672.3
73503.4
73334.7
73166.3
72998.3
72830.5
72663
72495.9
72329
72162.5
71996.2
71830.3
71664.6
71499.3
71334.2
71169.5
71005.1
70840.9
70677.1
70513.6
70350.4
70187.5
70024.8
69862.5
69700.5
69538.8
69377.4
69216.4
69055.6
68895.1
68734.9
68575
68415.4
68256.2
68097.2
67938.5
67780.2
67622.1
67464.4
67306.9
67149.7
66992.9
66836.3
66680.1
66524.1
66368.5
66213.2
66058.1
65903.4
65748.9
65594.8
65440.9
65287.4
65134.2
64981.2
64828.6
64676.2
64524.2
64372.4
64221
64069.8
63918.9
63768.4
63618.1
63468.1
63318.5
63169.1
63020
62871.2
62722.7
62574.6
62426.7
62279
62131.7
61984.7
61838
61691.6
61545.4
61399.6
61254
61108.7
60963.8
60819.1
60674.7
60530.6
60386.8
60243.3
60100
59957.1
59814.4
59672.1
59530
59388.2
59246.7
59105.5
58964.5
58823.9
58683.5
58543.5
58403.7
58264.2
58124.9
57986
57847.3
57709
57570.9
57433.1
57295.6
57158.3
57021.4
56884.7
56748.3
56612.2
56476.3
56340.8
56205.5
56070.5
55935.8
55801.3
55667.2
55533.3
55399.7
55266.3
55133.3
55000.5
54868
54735.7
54603.8
54472.1
54340.7
54209.6
54078.7
53948.1
53817.8
53687.7
53558
53428.5
53299.2
53170.3
53041.6
52913.2
52785
52657.1
52529.5
52402.2
52275.1
52148.3
52021.7
51895.5
51769.5
51643.7
51518.2
51393
51268.1
51143.4
51019
50894.8
50770.9
50647.3
50524
50400.9
50278
50155.5
50033.1
49911.1
49789.3
49667.8
49546.5
49425.5
49304.7
49184.2
49064
48944
48824.3
48704.8
48585.6
48466.7
48348
48229.6
48111.4
47993.5
47875.8
47758.4
47641.3
47524.4
47407.7
47291.3
47175.2
47059.3
46943.7
46828.3
46713.2
46598.3
46483.7
46369.3
46255.2
46141.3
46027.7
45914.3
45801.2
45688.3
45575.7
45463.3
45351.2
45239.4
45127.7
45016.4
44905.2
44794.4
44683.7
44573.3
44463.2
44353.3
44243.7
44134.3
44025.1
43916.2
43807.6
43699.2
43591
43483.1
43375.4
43268
43160.8
43053.9
42947.2
42840.7
42734.5
42628.6
42522.9
42417.4
42312.2
42207.2
42102.5
41998
41893.7
41789.7
41686
41582.4
41479.2
41376.1
41273.4
41170.8
41068.5
40966.5
40864.7
40763.1
40661.8
40560.7
40459.9
40359.3
40259
40158.9
40059
39959.4
39860.1
39761
39662.1
39563.5
39465.2
39367
39269.2
39171.6
39074.2
38977.1
38880.2
38783.6
38687.2
38591.1
38495.3
38399.7
38304.3
38209.2
38114.4
38019.8
37925.5
37831.4
37737.6
37644.1
37550.8
37457.8
37365.1
37272.6
37180.4
37088.5
36996.8
36905.4
36814.3
36723.4
36632.9
36542.6
36452.6
36362.9
36273.4
36184.3
36095.5
36006.9
35918.7
35830.7
35743.1
35655.7
35568.7
35482
35395.6
35309.5
35223.8
35138.3
35053.3
34968.5
34884.1
34800.1
34716.4
34633
34550.1
34467.5
34385.3
34303.5
34222
34141
34060.4
33980.2
33900.4
33821.1
33742.2
33663.8
33585.8
33508.3
33431.3
33354.8
33278.9
33203.4
33128.5
33054.1
32980.3
32907.1
32834.5
32762.6
32691.2
32620.6
32550.5
32481.2
32412.7
32344.8
32277.7
32211.4
32145.9
32081.3
32017.5
31954.5
31892.5
31831.5
31771.4
31712.3
31654.2
31597.2
31541.3
31486.5
31432.9
31380.4
31329.2
31279.1
31230.4
31182.9
31136.8
31092
31048.6
31006.6
30966.1
30926.9
30889.3
30853
30818.3
30785.1
30753.3
30723.1
30694.3
30667
30641.2
30616.8
30593.8
30572.3
30552.1
30533.3
30515.8
30499.5
30484.5
30470.6
30457.9
30446.2
30435.6
30425.9
30417.1
30409.1
30402
30395.6
30389.9
30384.8
30380.2
30376.2
30372.7
30369.6
30366.9
30364.6
30362.5
30360.7
30359.2
30357.9
30356.8
30355.8
30355
30354.3
30353.7
30353.2
30352.8
30352.4
30352.2
30351.9
30351.7
30351.5
30351.4
30351.3
30351.2
30351.1
30351
30350.9
30350.9
30350.9
30350.8
30350.8
30350.8
30350.7
30350.7
30350.7
30350.7
30350.7
30350.7
30350.6
30350.6
30350.6
30350.6
30350.6
30350.6
30350.6
30350.6
30350.6
30350.6
30350.6
30350.5
30350.5
30350.5
30350.5
30350.5
30350.5
30350.5
30350.5
30350.5
30350.5
30350.5
30350.5
30350.5
30350.5
30350.5
30350.4
30350.4
30350.4
30350.4
30350.4
30350.4
30350.4
30350.4
30350.4
30350.4
30350.4
30350.4
30350.3
30350.3
30350.3
30350.3
30350.3
30350.3
30350.3
30350.3
30350.3
30350.3
30350.3
30350.3
30350.3
30350.2
30350.2
30350.2
30350.2
30350.2
30350.2
30350.2
30350.2
30350.2
30350.2
30350.2
30350.2
30350.2
30350.2
30350.2
30350.2
30350.2
30350.2
30350.2
30350.2
30350.2
30350.2
30350.2
30350.2
30350.2
30350.2
30350.2
30350.2
30350.2
30350.2
30350.2
30350.2
30350.2
30350.2
30350.2
30350.2
30350.2
30350.2
30350.2
30350.2
30350.2
30350.2
30350.2
30350.2
30350.2
30350.2
30350.2
30350.2
30350.1
30350.1
30350.1
30350.1
30350.1
30350.1
30350.1
30350.1
30350.1
30350.1
30350.1
30350.1
30350.1
30350.1
30350.1
30350.1
30350.1
30350.1
30350.1
30350.1
30350.1
30350.1
30350.1
30350.1
30350.1
30350.1
30350.1
30350.1
30350.1
30350
30350
30350
30350
30350
30350
30350
30350
30350
30350
30350
30350
30350
30350
30350
30350
30350
30350
30350
30350
30350
30350
30350
30350
30350
30350
30350
30350
30350
30350
30350
30350
30350
30350
30350
30350
30350
30349.9
30349.9
30349.9
30349.9
30349.9
30349.9
30349.9
30349.9
30349.9
30349.9
30349.9
30349.9
30349.9
30349.9
30349.9
30349.9
30349.9
30349.9
30349.9
30349.9
30349.9
30349.9
30349.9
30349.9
30349.9
30349.9
30349.9
30349.9
30349.9
30349.9
30349.9
30349.9
30349.9
30349.9
30349.9
30349.9
30349.9
30349.9
30349.9
30349.9
30349.9
30349.9
30349.9
30349.9
30349.9
30349.9
30349.9
30349.9
30349.8
30349.8
30349.8
30349.8
30349.8
30349.8
30349.8
30349.8
30349.8
30349.8
30349.8
30349.8
30349.8
30349.8
30349.8
30349.8
30349.8
30349.8
30349.8
30349.8
30349.8
30349.8
30349.8
30349.8
30349.8
30349.8
30349.8
30349.8
30349.8
30349.8
30349.8
30349.8
30349.8
30349.8
30349.8
30349.8
30349.8
30349.8
30349.8
30349.8
30349.8
30349.8
30349.8
30349.8
30349.8
30349.8
30349.8
30349.8
30349.8
30349.8
30349.8
30349.8
30349.8
30349.8
30349.8
30349.8
30349.8
30349.8
30349.8
30349.8
30349.8
30349.8
30349.7
30349.7
30349.7
30349.7
30349.7
30349.7
30349.7
30349.7
30349.7
30349.7
30349.7
30349.7
30349.7
30349.7
30349.7
30349.7
30349.7
30349.7
30349.7
30349.7
30349.7
30349.7
30349.7
30349.7
30349.7
30349.7
30349.7
30349.7
30349.7
30349.7
30349.7
30349.7
30349.7
30349.7
30349.7
30349.7
30349.7
30349.7
30349.7
30349.7
30349.7
30349.7
30349.7
30349.7
30349.7
30349.7
30349.7
30349.7
30349.7
30349.7
30349.7
30349.7
30349.7
30349.7
30349.7
30349.7
30349.7
30349.7
30349.7
30349.6
30349.6
30349.6
30349.6
30349.6
30349.6
30349.6
30349.6
30349.5
30349.5
30349.5
30349.5
30349.4
30349.4
30349.4
30349.4
30349.3
30349.3
30349.3
30349.3
30349.3
30349.2
30349.2
30349.3
30349.3
30349.3
30349.3
30349.3
30349.4
30349.4
30349.4
30349.5
30349.5
30349.6
30349.7
30349.8
30349.9
30349.9
30350
30350.2
30350.3
30350.6
30351
30351.4
30352
30352.7
30353.7
30354.9
30356.3
30358.1
30360.2
30362.8
30365.9
30369.5
30373.6
30378.4
30383.8
30389.9
30396.7
30404.1
30412.2
30420.9
30430.2
30440
30450.2
30460.7
30471.5
30482.2
30493
30503.6
30513.9
30523.8
30533.2
30542.1
30550.3
30557.8
30564.7
30570.8
30576.2
30581
30585.1
30588.5
30591.4
30593.9
30595.8
30597.4
30598.7
30599.7
30600.5
30601
30601.5
30601.8
30602
30602.2
30602.3
30602.3
30602.4
30602.4
30602.4
30602.4
30602.4
30602.4
30602.4
30602.4
30602.4
30602.4
30602.4
30602.4
30602.4
30602.4
30602.4
30602.4
30602.4
30602.4
30602.4
30602.4
30602.4
30602.4
30602.4
30602.4
)
;

boundaryField
{
    sides
    {
        type            zeroGradient;
    }
    empty
    {
        type            empty;
    }
}


// ************************************************************************* //
