/*--------------------------------*- C++ -*----------------------------------*\
| =========                 |                                                 |
| \\      /  F ield         | OpenFOAM: The Open Source CFD Toolbox           |
|  \\    /   O peration     | Version:  3.0.0                                 |
|   \\  /    A nd           | Web:      www.OpenFOAM.org                      |
|    \\/     M anipulation  |                                                 |
\*---------------------------------------------------------------------------*/
FoamFile
{
    version     2.0;
    format      ascii;
    class       surfaceScalarField;
    location    "0.014";
    object      phi;
}
// * * * * * * * * * * * * * * * * * * * * * * * * * * * * * * * * * * * * * //

dimensions      [1 0 -1 0 0 0 0];

internalField   nonuniform List<scalar> 
999
(
10.2535
13.7582
17.26
20.7568
24.2479
27.732
31.2078
34.6741
38.1297
41.5733
45.0037
48.4195
51.8194
55.2021
58.5663
61.9106
65.2336
68.534
71.8103
75.0611
78.2851
81.4809
84.6471
87.7823
90.8852
93.9546
96.989
99.9874
102.949
105.871
108.755
111.598
114.401
117.161
119.88
122.555
125.188
127.777
130.323
132.826
135.286
137.703
140.079
142.413
144.707
146.961
149.178
151.357
153.5
155.609
157.684
159.728
161.742
163.728
165.687
167.62
169.529
171.416
173.282
175.128
176.956
178.767
180.562
182.342
184.108
185.862
187.604
189.334
191.054
192.765
194.466
196.159
197.843
199.52
201.189
202.851
204.506
206.155
207.797
209.433
211.062
212.686
214.304
215.917
217.523
219.124
220.719
222.309
223.893
225.472
227.046
228.613
230.176
231.733
233.285
234.831
236.372
237.907
239.437
240.962
242.482
243.996
245.504
247.007
248.505
249.998
251.485
252.967
254.443
255.914
257.38
258.84
260.295
261.745
263.189
264.628
266.062
267.49
268.913
270.331
271.743
273.151
274.552
275.949
277.34
278.726
280.106
281.481
282.851
284.216
285.575
286.93
288.278
289.622
290.96
292.294
293.622
294.944
296.262
297.574
298.881
300.183
301.48
302.771
304.057
305.338
306.614
307.885
309.151
310.411
311.667
312.917
314.162
315.402
316.637
317.867
319.092
320.312
321.526
322.736
323.94
325.14
326.334
327.523
328.708
329.887
331.061
332.231
333.395
334.555
335.709
336.858
338.003
339.142
340.277
341.407
342.532
343.651
344.766
345.877
346.982
348.082
349.178
350.268
351.354
352.435
353.511
354.582
355.649
356.71
357.767
358.819
359.867
360.909
361.947
362.98
364.009
365.032
366.051
367.065
368.075
369.08
370.08
371.075
372.066
373.052
374.034
375.011
375.983
376.95
377.914
378.872
379.826
380.775
381.72
382.66
383.596
384.527
385.453
386.375
387.293
388.206
389.114
390.018
390.918
391.813
392.703
393.59
394.471
395.349
396.222
397.09
397.954
398.814
399.669
400.52
401.367
402.209
403.047
403.881
404.71
405.535
406.356
407.172
407.984
408.792
409.595
410.394
411.19
411.98
412.767
413.549
414.328
415.1
415.872
416.635
417.4
418.153
418.911
419.655
420.405
421.14
421.881
422.611
423.34
424.066
424.782
425.504
426.208
426.925
427.62
428.328
429.019
429.713
430.401
431.083
431.765
432.439
433.112
433.78
434.444
435.105
435.76
436.413
437.061
437.705
438.346
438.982
439.615
440.244
440.869
441.49
442.108
442.721
443.331
443.937
444.539
445.137
445.732
446.322
446.909
447.493
448.072
448.648
449.22
449.788
450.352
450.913
451.47
452.024
452.573
453.119
453.662
454.201
454.736
455.267
455.795
456.319
456.84
457.357
457.87
458.38
458.886
459.389
459.888
460.384
460.876
461.364
461.849
462.331
462.808
463.283
463.754
464.221
464.685
465.146
465.603
466.057
466.507
466.953
467.397
467.837
468.273
468.706
469.136
469.562
469.985
470.405
470.821
471.234
471.643
472.05
472.452
472.852
473.248
473.641
474.031
474.417
474.8
475.18
475.556
475.93
476.3
476.667
477.03
477.39
477.748
478.102
478.452
478.8
479.144
479.485
479.823
480.158
480.49
480.818
481.144
481.466
481.785
482.101
482.414
482.724
483.03
483.334
483.634
483.932
484.226
484.518
484.806
485.091
485.373
485.652
485.928
486.201
486.471
486.739
487.003
487.264
487.522
487.777
488.029
488.278
488.524
488.767
489.008
489.245
489.479
489.711
489.939
490.165
490.388
490.607
490.824
491.038
491.249
491.457
491.663
491.865
492.065
492.261
492.455
492.646
492.834
493.019
493.201
493.381
493.558
493.731
493.902
494.071
494.236
494.398
494.558
494.715
494.869
495.02
495.169
495.314
495.457
495.597
495.735
495.869
496.001
496.13
496.256
496.379
496.5
496.617
496.732
496.845
496.954
497.061
497.165
497.266
497.365
497.46
497.553
497.644
497.731
497.816
497.898
497.978
498.054
498.129
498.2
498.269
498.335
498.399
498.46
498.518
498.574
498.628
498.679
498.728
498.774
498.818
498.859
498.898
498.935
498.97
499.003
499.034
499.062
499.089
499.114
499.137
499.158
499.177
499.195
499.212
499.227
499.24
499.253
499.264
499.274
499.283
499.291
499.298
499.304
499.309
499.314
499.318
499.322
499.324
499.327
499.329
499.331
499.332
499.333
499.334
499.335
499.335
499.336
499.336
499.336
499.336
499.336
499.335
499.335
499.335
499.335
499.334
499.334
499.333
499.333
499.332
499.332
499.331
499.331
499.33
499.33
499.329
499.329
499.328
499.328
499.327
499.326
499.326
499.325
499.325
499.324
499.324
499.323
499.322
499.322
499.321
499.321
499.32
499.319
499.319
499.318
499.318
499.317
499.316
499.316
499.315
499.315
499.314
499.313
499.313
499.312
499.311
499.311
499.31
499.309
499.309
499.308
499.307
499.307
499.306
499.305
499.305
499.304
499.303
499.303
499.302
499.301
499.3
499.3
499.299
499.298
499.297
499.297
499.296
499.295
499.295
499.294
499.293
499.292
499.291
499.291
499.29
499.289
499.288
499.288
499.287
499.286
499.285
499.284
499.284
499.283
499.282
499.281
499.28
499.279
499.279
499.278
499.277
499.276
499.275
499.274
499.273
499.272
499.271
499.271
499.27
499.269
499.268
499.267
499.266
499.265
499.264
499.263
499.262
499.261
499.26
499.259
499.258
499.257
499.256
499.255
499.254
499.253
499.252
499.251
499.25
499.249
499.248
499.247
499.246
499.245
499.244
499.243
499.242
499.24
499.239
499.238
499.237
499.236
499.235
499.234
499.232
499.231
499.23
499.229
499.228
499.226
499.225
499.224
499.223
499.221
499.22
499.219
499.218
499.216
499.215
499.214
499.212
499.211
499.21
499.208
499.207
499.206
499.204
499.203
499.201
499.2
499.198
499.197
499.196
499.194
499.193
499.191
499.19
499.188
499.186
499.185
499.183
499.182
499.18
499.179
499.177
499.175
499.174
499.172
499.17
499.169
499.167
499.165
499.163
499.162
499.16
499.158
499.156
499.154
499.152
499.151
499.149
499.147
499.145
499.143
499.141
499.139
499.137
499.135
499.133
499.131
499.129
499.127
499.125
499.122
499.12
499.118
499.116
499.114
499.111
499.109
499.107
499.104
499.102
499.1
499.097
499.095
499.092
499.09
499.087
499.085
499.082
499.079
499.077
499.074
499.071
499.069
499.066
499.063
499.06
499.057
499.054
499.051
499.049
499.045
499.042
499.039
499.036
499.033
499.03
499.027
499.023
499.02
499.017
499.013
499.01
499.006
499.003
498.999
498.995
498.992
498.988
498.984
498.98
498.976
498.972
498.968
498.964
498.96
498.956
498.951
498.947
498.943
498.938
498.934
498.929
498.924
498.92
498.915
498.91
498.905
498.9
498.895
498.889
498.884
498.879
498.873
498.868
498.862
498.856
498.85
498.844
498.838
498.832
498.826
498.819
498.813
498.806
498.799
498.792
498.785
498.778
498.771
498.763
498.755
498.748
498.74
498.731
498.723
498.715
498.706
498.697
498.688
498.679
498.669
498.66
498.65
498.64
498.629
498.619
498.608
498.597
498.585
498.574
498.562
498.549
498.537
498.524
498.51
498.497
498.483
498.468
498.453
498.438
498.422
498.406
498.389
498.372
498.354
498.336
498.317
498.297
498.277
498.256
498.234
498.211
498.188
498.164
498.138
498.112
498.085
498.056
498.027
497.996
497.964
497.93
497.894
497.857
497.817
497.775
497.731
497.685
497.636
497.585
497.532
497.477
497.421
497.363
497.303
497.24
497.171
497.094
497.003
496.891
496.747
496.559
496.311
495.983
495.552
494.994
494.278
493.374
492.248
490.869
489.201
487.215
484.881
482.174
479.076
475.571
471.654
467.327
462.599
457.488
452.019
446.227
440.152
433.84
427.343
420.714
414.011
407.289
400.604
394.01
387.555
381.285
375.24
369.454
363.954
358.762
353.894
349.359
345.161
341.299
337.768
334.559
331.658
329.051
326.721
324.65
322.819
321.208
319.798
318.569
317.503
316.583
315.791
315.113
314.534
314.041
313.622
313.267
312.965
312.71
312.494
312.31
312.153
312.019
311.904
311.805
311.719
311.645
311.58
311.523
311.473
311.429
311.39
311.357
311.327
311.301
311.279
311.26
311.244
311.23
311.219
311.209
311.201
311.195
311.189
311.185
311.182
311.179
311.177
311.176
311.175
311.174
311.173
311.172
311.172
311.171
311.171
311.171
311.171
311.17
311.17
311.17
311.17
311.17
311.169
311.169
311.169
311.169
311.169
311.169
311.168
311.168
311.168
311.168
311.168
311.168
311.167
311.167
311.167
)
;

boundaryField
{
    sides
    {
        type            calculated;
        value           nonuniform List<scalar> 2(311.167 -6.74889);
    }
    empty
    {
        type            empty;
        value           nonuniform 0();
    }
}


// ************************************************************************* //
