/*--------------------------------*- C++ -*----------------------------------*\
| =========                 |                                                 |
| \\      /  F ield         | OpenFOAM: The Open Source CFD Toolbox           |
|  \\    /   O peration     | Version:  3.0.0                                 |
|   \\  /    A nd           | Web:      www.OpenFOAM.org                      |
|    \\/     M anipulation  |                                                 |
\*---------------------------------------------------------------------------*/
FoamFile
{
    version     2.0;
    format      ascii;
    class       volScalarField;
    location    "0.014";
    object      T;
}
// * * * * * * * * * * * * * * * * * * * * * * * * * * * * * * * * * * * * * //

dimensions      [0 0 0 1 0 0 0];

internalField   nonuniform List<scalar> 
1000
(
336.136
336.137
336.121
336.102
336.08
336.057
336.031
336.002
335.971
335.937
335.9
335.861
335.819
335.774
335.727
335.676
335.622
335.566
335.506
335.442
335.376
335.306
335.233
335.156
335.076
334.992
334.904
334.812
334.717
334.617
334.514
334.406
334.295
334.179
334.059
333.935
333.807
333.675
333.539
333.398
333.254
333.106
332.954
332.798
332.638
332.475
332.308
332.139
331.965
331.789
331.61
331.429
331.244
331.057
330.868
330.677
330.484
330.289
330.093
329.895
329.695
329.495
329.293
329.09
328.886
328.682
328.476
328.27
328.064
327.857
327.649
327.441
327.233
327.025
326.816
326.607
326.398
326.189
325.979
325.77
325.56
325.35
325.14
324.93
324.721
324.511
324.301
324.091
323.881
323.671
323.46
323.25
323.04
322.83
322.62
322.41
322.2
321.99
321.78
321.57
321.36
321.15
320.94
320.73
320.52
320.311
320.101
319.891
319.681
319.471
319.262
319.052
318.842
318.633
318.423
318.213
318.004
317.794
317.585
317.375
317.166
316.956
316.747
316.538
316.329
316.119
315.91
315.701
315.492
315.283
315.074
314.865
314.656
314.447
314.238
314.029
313.82
313.612
313.403
313.194
312.986
312.777
312.569
312.361
312.152
311.944
311.736
311.527
311.319
311.111
310.903
310.695
310.487
310.279
310.071
309.863
309.656
309.448
309.24
309.033
308.825
308.618
308.41
308.203
307.996
307.788
307.581
307.374
307.167
306.96
306.753
306.546
306.339
306.133
305.926
305.719
305.513
305.306
305.1
304.893
304.687
304.481
304.274
304.068
303.862
303.656
303.45
303.244
303.038
302.832
302.627
302.421
302.216
302.01
301.805
301.599
301.394
301.188
300.983
300.778
300.573
300.368
300.163
299.958
299.753
299.549
299.344
299.139
298.935
298.73
298.526
298.322
298.117
297.913
297.709
297.505
297.301
297.097
296.893
296.689
296.486
296.282
296.078
295.875
295.671
295.468
295.265
295.061
294.858
294.655
294.452
294.249
294.046
293.844
293.641
293.438
293.236
293.033
292.831
292.628
292.426
292.224
292.022
291.819
291.617
291.415
291.214
291.012
290.81
290.608
290.408
290.204
290.006
289.8
289.605
289.394
289.207
288.988
288.811
288.579
288.416
288.17
288.022
287.763
287.625
287.361
287.222
286.966
286.812
286.577
286.4
286.188
285.99
285.796
285.587
285.396
285.19
284.994
284.795
284.593
284.397
284.195
283.997
283.798
283.598
283.401
283.201
283.003
282.804
282.605
282.407
282.209
282.01
281.812
281.614
281.416
281.218
281.02
280.823
280.625
280.427
280.23
280.032
279.835
279.638
279.441
279.244
279.047
278.85
278.653
278.456
278.259
278.063
277.866
277.67
277.474
277.278
277.081
276.885
276.69
276.494
276.298
276.102
275.907
275.711
275.516
275.321
275.126
274.931
274.736
274.541
274.346
274.151
273.957
273.762
273.568
273.374
273.179
272.985
272.791
272.598
272.404
272.21
272.017
271.823
271.63
271.437
271.244
271.051
270.858
270.665
270.473
270.28
270.088
269.895
269.703
269.511
269.319
269.128
268.936
268.744
268.553
268.362
268.171
267.98
267.789
267.598
267.407
267.217
267.027
266.836
266.646
266.456
266.267
266.077
265.888
265.698
265.509
265.32
265.132
264.943
264.754
264.566
264.378
264.19
264.002
263.815
263.628
263.44
263.253
263.067
262.88
262.694
262.508
262.322
262.136
261.95
261.765
261.58
261.395
261.211
261.027
260.843
260.659
260.476
260.292
260.11
259.927
259.745
259.563
259.381
259.2
259.019
258.838
258.658
258.478
258.299
258.12
257.941
257.763
257.585
257.408
257.231
257.055
256.879
256.703
256.529
256.354
256.181
256.007
255.835
255.663
255.492
255.322
255.152
254.983
254.815
254.647
254.481
254.315
254.15
253.986
253.823
253.661
253.5
253.341
253.182
253.024
252.868
252.713
252.56
252.408
252.257
252.108
251.96
251.814
251.669
251.527
251.386
251.247
251.11
250.975
250.842
250.712
250.584
250.458
250.334
250.213
250.094
249.979
249.866
249.755
249.648
249.544
249.442
249.344
249.249
249.157
249.068
248.983
248.901
248.822
248.747
248.675
248.606
248.541
248.48
248.421
248.366
248.315
248.266
248.221
248.179
248.139
248.103
248.069
248.038
248.01
247.984
247.961
247.939
247.92
247.902
247.887
247.873
247.86
247.849
247.839
247.831
247.823
247.817
247.811
247.806
247.802
247.798
247.795
247.792
247.79
247.788
247.787
247.786
247.785
247.784
247.783
247.783
247.782
247.782
247.782
247.782
247.782
247.782
247.782
247.782
247.782
247.782
247.782
247.783
247.783
247.783
247.783
247.783
247.784
247.784
247.784
247.784
247.785
247.785
247.785
247.785
247.786
247.786
247.786
247.787
247.787
247.787
247.788
247.788
247.788
247.788
247.789
247.789
247.789
247.79
247.79
247.79
247.791
247.791
247.791
247.791
247.792
247.792
247.792
247.793
247.793
247.793
247.794
247.794
247.794
247.795
247.795
247.795
247.796
247.796
247.796
247.797
247.797
247.797
247.798
247.798
247.799
247.799
247.799
247.8
247.8
247.8
247.801
247.801
247.802
247.802
247.802
247.803
247.803
247.804
247.804
247.804
247.805
247.805
247.806
247.806
247.806
247.807
247.807
247.808
247.808
247.809
247.809
247.809
247.81
247.81
247.811
247.811
247.812
247.812
247.813
247.813
247.814
247.814
247.815
247.815
247.816
247.816
247.817
247.817
247.818
247.818
247.819
247.819
247.82
247.82
247.821
247.821
247.822
247.822
247.823
247.823
247.824
247.824
247.825
247.825
247.826
247.827
247.827
247.828
247.828
247.829
247.829
247.83
247.831
247.831
247.832
247.832
247.833
247.834
247.834
247.835
247.836
247.836
247.837
247.838
247.838
247.839
247.84
247.84
247.841
247.842
247.842
247.843
247.844
247.844
247.845
247.846
247.847
247.847
247.848
247.849
247.849
247.85
247.851
247.852
247.853
247.853
247.854
247.855
247.856
247.857
247.857
247.858
247.859
247.86
247.861
247.862
247.862
247.863
247.864
247.865
247.866
247.867
247.868
247.869
247.87
247.871
247.872
247.873
247.874
247.875
247.876
247.877
247.878
247.879
247.88
247.881
247.882
247.883
247.884
247.885
247.886
247.887
247.888
247.89
247.891
247.892
247.893
247.894
247.896
247.897
247.898
247.899
247.901
247.902
247.903
247.904
247.906
247.907
247.908
247.91
247.911
247.913
247.914
247.915
247.917
247.918
247.92
247.921
247.923
247.924
247.926
247.928
247.929
247.931
247.933
247.934
247.936
247.938
247.939
247.941
247.943
247.945
247.947
247.949
247.95
247.952
247.954
247.956
247.958
247.96
247.962
247.964
247.967
247.969
247.971
247.973
247.975
247.978
247.98
247.982
247.985
247.987
247.99
247.992
247.995
247.998
248
248.003
248.006
248.008
248.011
248.014
248.017
248.02
248.023
248.026
248.029
248.033
248.036
248.039
248.043
248.046
248.05
248.053
248.057
248.061
248.065
248.068
248.072
248.077
248.081
248.085
248.089
248.094
248.098
248.103
248.108
248.112
248.117
248.123
248.128
248.133
248.139
248.144
248.15
248.156
248.162
248.168
248.174
248.181
248.188
248.194
248.202
248.209
248.216
248.224
248.232
248.24
248.249
248.257
248.266
248.276
248.285
248.295
248.305
248.316
248.327
248.339
248.35
248.363
248.376
248.389
248.403
248.417
248.432
248.448
248.465
248.482
248.5
248.519
248.539
248.561
248.583
248.607
248.632
248.658
248.685
248.713
248.741
248.771
248.801
248.834
248.87
248.911
248.961
249.024
249.105
249.212
249.354
249.542
249.787
250.105
250.511
251.022
251.657
252.435
253.375
254.497
255.819
257.361
259.139
261.167
263.46
266.025
268.872
272.002
275.416
279.109
283.071
287.289
291.743
296.412
301.267
306.277
311.406
316.616
321.866
327.115
332.321
337.444
342.442
347.282
351.929
356.358
360.543
364.469
368.122
371.497
374.591
377.407
379.953
382.238
384.276
386.082
387.673
389.067
390.28
391.332
392.239
393.019
393.686
394.255
394.74
395.152
395.502
395.8
396.053
396.27
396.455
396.614
396.752
396.871
396.976
397.067
397.148
397.219
397.282
397.337
397.387
397.43
397.468
397.501
397.53
397.555
397.576
397.594
397.609
397.622
397.632
397.64
397.647
397.653
397.657
397.66
397.663
397.665
397.667
397.668
397.669
397.669
397.67
397.67
397.671
397.671
397.671
397.672
397.672
397.672
397.672
397.672
397.673
397.673
397.673
397.673
397.673
397.673
397.673
397.674
397.674
397.674
397.674
397.674
397.674
397.675
397.675
)
;

boundaryField
{
    sides
    {
        type            zeroGradient;
    }
    empty
    {
        type            empty;
    }
}


// ************************************************************************* //
