/*--------------------------------*- C++ -*----------------------------------*\
| =========                 |                                                 |
| \\      /  F ield         | OpenFOAM: The Open Source CFD Toolbox           |
|  \\    /   O peration     | Version:  3.0.0                                 |
|   \\  /    A nd           | Web:      www.OpenFOAM.org                      |
|    \\/     M anipulation  |                                                 |
\*---------------------------------------------------------------------------*/
FoamFile
{
    version     2.0;
    format      ascii;
    class       volVectorField;
    location    "0.014";
    object      U;
}
// * * * * * * * * * * * * * * * * * * * * * * * * * * * * * * * * * * * * * //

dimensions      [0 1 -1 0 0 0 0];

internalField   nonuniform List<vector> 
1000
(
(1.85968 0 0)
(3.49069 0 0)
(4.22212 0 0)
(5.19773 0 0)
(6.16647 0 0)
(7.12351 0 0)
(8.07871 0 0)
(9.03252 0 0)
(9.98424 0 0)
(10.9335 0 0)
(11.8801 0 0)
(12.8236 0 0)
(13.7639 0 0)
(14.7005 0 0)
(15.6332 0 0)
(16.5616 0 0)
(17.4855 0 0)
(18.4045 0 0)
(19.3183 0 0)
(20.2266 0 0)
(21.1291 0 0)
(22.0254 0 0)
(22.9153 0 0)
(23.7984 0 0)
(24.6745 0 0)
(25.5432 0 0)
(26.4042 0 0)
(27.2573 0 0)
(28.1023 0 0)
(28.9388 0 0)
(29.7667 0 0)
(30.5857 0 0)
(31.3957 0 0)
(32.1966 0 0)
(32.9881 0 0)
(33.7702 0 0)
(34.5428 0 0)
(35.3059 0 0)
(36.0596 0 0)
(36.8037 0 0)
(37.5385 0 0)
(38.264 0 0)
(38.9803 0 0)
(39.6877 0 0)
(40.3863 0 0)
(41.0764 0 0)
(41.7583 0 0)
(42.4323 0 0)
(43.0986 0 0)
(43.7577 0 0)
(44.4099 0 0)
(45.0555 0 0)
(45.695 0 0)
(46.3287 0 0)
(46.9571 0 0)
(47.5804 0 0)
(48.1992 0 0)
(48.8137 0 0)
(49.4244 0 0)
(50.0316 0 0)
(50.6355 0 0)
(51.2367 0 0)
(51.8353 0 0)
(52.4316 0 0)
(53.026 0 0)
(53.6186 0 0)
(54.2097 0 0)
(54.7995 0 0)
(55.3881 0 0)
(55.9758 0 0)
(56.5626 0 0)
(57.1489 0 0)
(57.7345 0 0)
(58.3197 0 0)
(58.9046 0 0)
(59.4892 0 0)
(60.0736 0 0)
(60.6579 0 0)
(61.2421 0 0)
(61.8262 0 0)
(62.4104 0 0)
(62.9945 0 0)
(63.5788 0 0)
(64.1631 0 0)
(64.7475 0 0)
(65.332 0 0)
(65.9167 0 0)
(66.5015 0 0)
(67.0864 0 0)
(67.6714 0 0)
(68.2566 0 0)
(68.842 0 0)
(69.4275 0 0)
(70.0131 0 0)
(70.5989 0 0)
(71.1848 0 0)
(71.7709 0 0)
(72.3572 0 0)
(72.9435 0 0)
(73.53 0 0)
(74.1167 0 0)
(74.7035 0 0)
(75.2904 0 0)
(75.8775 0 0)
(76.4646 0 0)
(77.0519 0 0)
(77.6394 0 0)
(78.2269 0 0)
(78.8146 0 0)
(79.4024 0 0)
(79.9903 0 0)
(80.5783 0 0)
(81.1664 0 0)
(81.7546 0 0)
(82.3429 0 0)
(82.9314 0 0)
(83.5199 0 0)
(84.1085 0 0)
(84.6972 0 0)
(85.286 0 0)
(85.8749 0 0)
(86.4639 0 0)
(87.053 0 0)
(87.6422 0 0)
(88.2314 0 0)
(88.8208 0 0)
(89.4102 0 0)
(89.9997 0 0)
(90.5893 0 0)
(91.1789 0 0)
(91.7686 0 0)
(92.3584 0 0)
(92.9483 0 0)
(93.5382 0 0)
(94.1282 0 0)
(94.7183 0 0)
(95.3084 0 0)
(95.8986 0 0)
(96.4889 0 0)
(97.0792 0 0)
(97.6696 0 0)
(98.26 0 0)
(98.8505 0 0)
(99.4411 0 0)
(100.032 0 0)
(100.622 0 0)
(101.213 0 0)
(101.804 0 0)
(102.395 0 0)
(102.986 0 0)
(103.576 0 0)
(104.167 0 0)
(104.758 0 0)
(105.349 0 0)
(105.941 0 0)
(106.532 0 0)
(107.123 0 0)
(107.714 0 0)
(108.305 0 0)
(108.897 0 0)
(109.488 0 0)
(110.079 0 0)
(110.671 0 0)
(111.262 0 0)
(111.854 0 0)
(112.445 0 0)
(113.037 0 0)
(113.628 0 0)
(114.22 0 0)
(114.812 0 0)
(115.403 0 0)
(115.995 0 0)
(116.587 0 0)
(117.179 0 0)
(117.77 0 0)
(118.362 0 0)
(118.954 0 0)
(119.546 0 0)
(120.138 0 0)
(120.73 0 0)
(121.322 0 0)
(121.914 0 0)
(122.506 0 0)
(123.098 0 0)
(123.69 0 0)
(124.282 0 0)
(124.874 0 0)
(125.466 0 0)
(126.058 0 0)
(126.65 0 0)
(127.242 0 0)
(127.834 0 0)
(128.427 0 0)
(129.019 0 0)
(129.611 0 0)
(130.203 0 0)
(130.796 0 0)
(131.388 0 0)
(131.98 0 0)
(132.572 0 0)
(133.165 0 0)
(133.757 0 0)
(134.349 0 0)
(134.941 0 0)
(135.534 0 0)
(136.126 0 0)
(136.718 0 0)
(137.311 0 0)
(137.903 0 0)
(138.496 0 0)
(139.088 0 0)
(139.68 0 0)
(140.273 0 0)
(140.865 0 0)
(141.457 0 0)
(142.05 0 0)
(142.642 0 0)
(143.235 0 0)
(143.827 0 0)
(144.419 0 0)
(145.012 0 0)
(145.604 0 0)
(146.197 0 0)
(146.789 0 0)
(147.381 0 0)
(147.974 0 0)
(148.566 0 0)
(149.159 0 0)
(149.751 0 0)
(150.343 0 0)
(150.936 0 0)
(151.528 0 0)
(152.12 0 0)
(152.713 0 0)
(153.305 0 0)
(153.898 0 0)
(154.49 0 0)
(155.082 0 0)
(155.675 0 0)
(156.267 0 0)
(156.859 0 0)
(157.451 0 0)
(158.044 0 0)
(158.636 0 0)
(159.228 0 0)
(159.821 0 0)
(160.413 0 0)
(161.005 0 0)
(161.597 0 0)
(162.19 0 0)
(162.782 0 0)
(163.374 0 0)
(163.966 0 0)
(164.558 0 0)
(165.15 0 0)
(165.743 0 0)
(166.335 0 0)
(166.927 0 0)
(167.519 0 0)
(168.111 0 0)
(168.703 0 0)
(169.295 0 0)
(169.887 0 0)
(170.479 0 0)
(171.071 0 0)
(171.663 0 0)
(172.255 0 0)
(172.847 0 0)
(173.438 0 0)
(174.03 0 0)
(174.622 0 0)
(175.214 0 0)
(175.806 0 0)
(176.397 0 0)
(176.989 0 0)
(177.581 0 0)
(178.172 0 0)
(178.764 0 0)
(179.356 0 0)
(179.947 0 0)
(180.539 0 0)
(181.13 0 0)
(181.722 0 0)
(182.313 0 0)
(182.905 0 0)
(183.496 0 0)
(184.087 0 0)
(184.679 0 0)
(185.27 0 0)
(185.861 0 0)
(186.452 0 0)
(187.043 0 0)
(187.635 0 0)
(188.226 0 0)
(188.817 0 0)
(189.408 0 0)
(189.999 0 0)
(190.589 0 0)
(191.18 0 0)
(191.771 0 0)
(192.362 0 0)
(192.953 0 0)
(193.543 0 0)
(194.134 0 0)
(194.724 0 0)
(195.315 0 0)
(195.905 0 0)
(196.496 0 0)
(197.086 0 0)
(197.676 0 0)
(198.267 0 0)
(198.857 0 0)
(199.447 0 0)
(200.037 0 0)
(200.627 0 0)
(201.217 0 0)
(201.807 0 0)
(202.396 0 0)
(202.986 0 0)
(203.576 0 0)
(204.165 0 0)
(204.755 0 0)
(205.344 0 0)
(205.934 0 0)
(206.523 0 0)
(207.112 0 0)
(207.701 0 0)
(208.29 0 0)
(208.879 0 0)
(209.468 0 0)
(210.057 0 0)
(210.645 0 0)
(211.234 0 0)
(211.822 0 0)
(212.411 0 0)
(212.999 0 0)
(213.587 0 0)
(214.175 0 0)
(214.763 0 0)
(215.351 0 0)
(215.939 0 0)
(216.527 0 0)
(217.114 0 0)
(217.702 0 0)
(218.289 0 0)
(218.876 0 0)
(219.463 0 0)
(220.05 0 0)
(220.637 0 0)
(221.224 0 0)
(221.81 0 0)
(222.396 0 0)
(222.983 0 0)
(223.569 0 0)
(224.155 0 0)
(224.74 0 0)
(225.326 0 0)
(225.911 0 0)
(226.497 0 0)
(227.082 0 0)
(227.667 0 0)
(228.251 0 0)
(228.836 0 0)
(229.42 0 0)
(230.004 0 0)
(230.588 0 0)
(231.172 0 0)
(231.756 0 0)
(232.339 0 0)
(232.922 0 0)
(233.505 0 0)
(234.088 0 0)
(234.67 0 0)
(235.252 0 0)
(235.834 0 0)
(236.416 0 0)
(236.997 0 0)
(237.578 0 0)
(238.159 0 0)
(238.739 0 0)
(239.319 0 0)
(239.899 0 0)
(240.479 0 0)
(241.058 0 0)
(241.637 0 0)
(242.215 0 0)
(242.793 0 0)
(243.371 0 0)
(243.948 0 0)
(244.525 0 0)
(245.102 0 0)
(245.678 0 0)
(246.254 0 0)
(246.829 0 0)
(247.404 0 0)
(247.978 0 0)
(248.552 0 0)
(249.125 0 0)
(249.698 0 0)
(250.27 0 0)
(250.842 0 0)
(251.413 0 0)
(251.983 0 0)
(252.553 0 0)
(253.122 0 0)
(253.691 0 0)
(254.258 0 0)
(254.825 0 0)
(255.392 0 0)
(255.957 0 0)
(256.522 0 0)
(257.086 0 0)
(257.649 0 0)
(258.211 0 0)
(258.772 0 0)
(259.332 0 0)
(259.892 0 0)
(260.45 0 0)
(261.007 0 0)
(261.563 0 0)
(262.118 0 0)
(262.671 0 0)
(263.224 0 0)
(263.775 0 0)
(264.324 0 0)
(264.873 0 0)
(265.419 0 0)
(265.965 0 0)
(266.508 0 0)
(267.05 0 0)
(267.59 0 0)
(268.129 0 0)
(268.665 0 0)
(269.2 0 0)
(269.733 0 0)
(270.263 0 0)
(270.791 0 0)
(271.317 0 0)
(271.841 0 0)
(272.362 0 0)
(272.88 0 0)
(273.396 0 0)
(273.908 0 0)
(274.418 0 0)
(274.925 0 0)
(275.428 0 0)
(275.928 0 0)
(276.425 0 0)
(276.918 0 0)
(277.407 0 0)
(277.892 0 0)
(278.372 0 0)
(278.849 0 0)
(279.321 0 0)
(279.788 0 0)
(280.25 0 0)
(280.707 0 0)
(281.159 0 0)
(281.605 0 0)
(282.046 0 0)
(282.48 0 0)
(282.908 0 0)
(283.33 0 0)
(283.745 0 0)
(284.153 0 0)
(284.554 0 0)
(284.947 0 0)
(285.332 0 0)
(285.71 0 0)
(286.079 0 0)
(286.44 0 0)
(286.792 0 0)
(287.135 0 0)
(287.469 0 0)
(287.793 0 0)
(288.108 0 0)
(288.413 0 0)
(288.708 0 0)
(288.992 0 0)
(289.266 0 0)
(289.53 0 0)
(289.783 0 0)
(290.026 0 0)
(290.257 0 0)
(290.478 0 0)
(290.688 0 0)
(290.888 0 0)
(291.077 0 0)
(291.255 0 0)
(291.423 0 0)
(291.58 0 0)
(291.728 0 0)
(291.866 0 0)
(291.994 0 0)
(292.113 0 0)
(292.223 0 0)
(292.324 0 0)
(292.417 0 0)
(292.503 0 0)
(292.581 0 0)
(292.652 0 0)
(292.716 0 0)
(292.774 0 0)
(292.826 0 0)
(292.873 0 0)
(292.915 0 0)
(292.952 0 0)
(292.985 0 0)
(293.014 0 0)
(293.04 0 0)
(293.062 0 0)
(293.082 0 0)
(293.099 0 0)
(293.114 0 0)
(293.127 0 0)
(293.138 0 0)
(293.147 0 0)
(293.155 0 0)
(293.162 0 0)
(293.168 0 0)
(293.173 0 0)
(293.178 0 0)
(293.181 0 0)
(293.184 0 0)
(293.187 0 0)
(293.189 0 0)
(293.191 0 0)
(293.192 0 0)
(293.193 0 0)
(293.194 0 0)
(293.195 0 0)
(293.196 0 0)
(293.197 0 0)
(293.197 0 0)
(293.198 0 0)
(293.198 0 0)
(293.198 0 0)
(293.199 0 0)
(293.199 0 0)
(293.199 0 0)
(293.199 0 0)
(293.199 0 0)
(293.199 0 0)
(293.199 0 0)
(293.2 0 0)
(293.2 0 0)
(293.2 0 0)
(293.2 0 0)
(293.2 0 0)
(293.2 0 0)
(293.2 0 0)
(293.2 0 0)
(293.2 0 0)
(293.2 0 0)
(293.2 0 0)
(293.2 0 0)
(293.2 0 0)
(293.2 0 0)
(293.2 0 0)
(293.2 0 0)
(293.201 0 0)
(293.201 0 0)
(293.201 0 0)
(293.201 0 0)
(293.201 0 0)
(293.201 0 0)
(293.201 0 0)
(293.201 0 0)
(293.201 0 0)
(293.201 0 0)
(293.201 0 0)
(293.201 0 0)
(293.201 0 0)
(293.201 0 0)
(293.201 0 0)
(293.201 0 0)
(293.201 0 0)
(293.201 0 0)
(293.201 0 0)
(293.201 0 0)
(293.202 0 0)
(293.202 0 0)
(293.202 0 0)
(293.202 0 0)
(293.202 0 0)
(293.202 0 0)
(293.202 0 0)
(293.202 0 0)
(293.202 0 0)
(293.202 0 0)
(293.202 0 0)
(293.202 0 0)
(293.202 0 0)
(293.202 0 0)
(293.202 0 0)
(293.202 0 0)
(293.202 0 0)
(293.202 0 0)
(293.202 0 0)
(293.202 0 0)
(293.203 0 0)
(293.203 0 0)
(293.203 0 0)
(293.203 0 0)
(293.203 0 0)
(293.203 0 0)
(293.203 0 0)
(293.203 0 0)
(293.203 0 0)
(293.203 0 0)
(293.203 0 0)
(293.203 0 0)
(293.203 0 0)
(293.203 0 0)
(293.203 0 0)
(293.203 0 0)
(293.203 0 0)
(293.203 0 0)
(293.203 0 0)
(293.203 0 0)
(293.203 0 0)
(293.203 0 0)
(293.203 0 0)
(293.203 0 0)
(293.203 0 0)
(293.203 0 0)
(293.203 0 0)
(293.203 0 0)
(293.203 0 0)
(293.203 0 0)
(293.203 0 0)
(293.203 0 0)
(293.203 0 0)
(293.203 0 0)
(293.203 0 0)
(293.203 0 0)
(293.203 0 0)
(293.203 0 0)
(293.203 0 0)
(293.203 0 0)
(293.203 0 0)
(293.203 0 0)
(293.203 0 0)
(293.203 0 0)
(293.203 0 0)
(293.203 0 0)
(293.203 0 0)
(293.203 0 0)
(293.203 0 0)
(293.203 0 0)
(293.203 0 0)
(293.203 0 0)
(293.203 0 0)
(293.203 0 0)
(293.203 0 0)
(293.203 0 0)
(293.203 0 0)
(293.203 0 0)
(293.203 0 0)
(293.203 0 0)
(293.203 0 0)
(293.203 0 0)
(293.203 0 0)
(293.203 0 0)
(293.203 0 0)
(293.203 0 0)
(293.203 0 0)
(293.203 0 0)
(293.203 0 0)
(293.203 0 0)
(293.203 0 0)
(293.203 0 0)
(293.203 0 0)
(293.203 0 0)
(293.203 0 0)
(293.203 0 0)
(293.203 0 0)
(293.203 0 0)
(293.203 0 0)
(293.203 0 0)
(293.204 0 0)
(293.204 0 0)
(293.204 0 0)
(293.204 0 0)
(293.204 0 0)
(293.204 0 0)
(293.204 0 0)
(293.204 0 0)
(293.204 0 0)
(293.204 0 0)
(293.204 0 0)
(293.204 0 0)
(293.204 0 0)
(293.204 0 0)
(293.204 0 0)
(293.204 0 0)
(293.204 0 0)
(293.204 0 0)
(293.204 0 0)
(293.204 0 0)
(293.204 0 0)
(293.204 0 0)
(293.204 0 0)
(293.204 0 0)
(293.204 0 0)
(293.204 0 0)
(293.204 0 0)
(293.204 0 0)
(293.204 0 0)
(293.204 0 0)
(293.204 0 0)
(293.204 0 0)
(293.204 0 0)
(293.204 0 0)
(293.204 0 0)
(293.204 0 0)
(293.204 0 0)
(293.204 0 0)
(293.204 0 0)
(293.204 0 0)
(293.204 0 0)
(293.204 0 0)
(293.204 0 0)
(293.204 0 0)
(293.204 0 0)
(293.204 0 0)
(293.204 0 0)
(293.204 0 0)
(293.204 0 0)
(293.204 0 0)
(293.204 0 0)
(293.204 0 0)
(293.204 0 0)
(293.204 0 0)
(293.204 0 0)
(293.204 0 0)
(293.204 0 0)
(293.204 0 0)
(293.204 0 0)
(293.204 0 0)
(293.204 0 0)
(293.204 0 0)
(293.204 0 0)
(293.204 0 0)
(293.204 0 0)
(293.204 0 0)
(293.204 0 0)
(293.204 0 0)
(293.204 0 0)
(293.204 0 0)
(293.204 0 0)
(293.204 0 0)
(293.204 0 0)
(293.204 0 0)
(293.204 0 0)
(293.204 0 0)
(293.204 0 0)
(293.204 0 0)
(293.204 0 0)
(293.204 0 0)
(293.204 0 0)
(293.204 0 0)
(293.204 0 0)
(293.204 0 0)
(293.204 0 0)
(293.204 0 0)
(293.204 0 0)
(293.204 0 0)
(293.204 0 0)
(293.204 0 0)
(293.204 0 0)
(293.204 0 0)
(293.204 0 0)
(293.204 0 0)
(293.204 0 0)
(293.204 0 0)
(293.204 0 0)
(293.204 0 0)
(293.204 0 0)
(293.204 0 0)
(293.204 0 0)
(293.204 0 0)
(293.204 0 0)
(293.204 0 0)
(293.204 0 0)
(293.204 0 0)
(293.204 0 0)
(293.204 0 0)
(293.204 0 0)
(293.204 0 0)
(293.204 0 0)
(293.204 0 0)
(293.204 0 0)
(293.204 0 0)
(293.204 0 0)
(293.204 0 0)
(293.204 0 0)
(293.204 0 0)
(293.204 0 0)
(293.204 0 0)
(293.204 0 0)
(293.204 0 0)
(293.204 0 0)
(293.204 0 0)
(293.204 0 0)
(293.204 0 0)
(293.204 0 0)
(293.204 0 0)
(293.204 0 0)
(293.204 0 0)
(293.204 0 0)
(293.204 0 0)
(293.204 0 0)
(293.204 0 0)
(293.204 0 0)
(293.204 0 0)
(293.204 0 0)
(293.204 0 0)
(293.204 0 0)
(293.204 0 0)
(293.204 0 0)
(293.204 0 0)
(293.204 0 0)
(293.204 0 0)
(293.204 0 0)
(293.204 0 0)
(293.204 0 0)
(293.204 0 0)
(293.204 0 0)
(293.204 0 0)
(293.204 0 0)
(293.204 0 0)
(293.204 0 0)
(293.204 0 0)
(293.204 0 0)
(293.204 0 0)
(293.204 0 0)
(293.204 0 0)
(293.204 0 0)
(293.204 0 0)
(293.204 0 0)
(293.204 0 0)
(293.204 0 0)
(293.204 0 0)
(293.204 0 0)
(293.204 0 0)
(293.204 0 0)
(293.204 0 0)
(293.204 0 0)
(293.204 0 0)
(293.204 0 0)
(293.204 0 0)
(293.204 0 0)
(293.204 0 0)
(293.204 0 0)
(293.204 0 0)
(293.204 0 0)
(293.204 0 0)
(293.204 0 0)
(293.204 0 0)
(293.204 0 0)
(293.204 0 0)
(293.204 0 0)
(293.204 0 0)
(293.204 0 0)
(293.204 0 0)
(293.204 0 0)
(293.204 0 0)
(293.204 0 0)
(293.204 0 0)
(293.204 0 0)
(293.204 0 0)
(293.204 0 0)
(293.204 0 0)
(293.204 0 0)
(293.204 0 0)
(293.204 0 0)
(293.204 0 0)
(293.204 0 0)
(293.204 0 0)
(293.204 0 0)
(293.204 0 0)
(293.204 0 0)
(293.204 0 0)
(293.204 0 0)
(293.204 0 0)
(293.204 0 0)
(293.204 0 0)
(293.204 0 0)
(293.204 0 0)
(293.204 0 0)
(293.203 0 0)
(293.203 0 0)
(293.203 0 0)
(293.202 0 0)
(293.201 0 0)
(293.201 0 0)
(293.2 0 0)
(293.199 0 0)
(293.198 0 0)
(293.197 0 0)
(293.195 0 0)
(293.194 0 0)
(293.193 0 0)
(293.192 0 0)
(293.191 0 0)
(293.19 0 0)
(293.19 0 0)
(293.189 0 0)
(293.189 0 0)
(293.189 0 0)
(293.19 0 0)
(293.19 0 0)
(293.191 0 0)
(293.191 0 0)
(293.192 0 0)
(293.192 0 0)
(293.193 0 0)
(293.193 0 0)
(293.193 0 0)
(293.193 0 0)
(293.191 0 0)
(293.188 0 0)
(293.184 0 0)
(293.179 0 0)
(293.173 0 0)
(293.164 0 0)
(293.153 0 0)
(293.14 0 0)
(293.123 0 0)
(293.102 0 0)
(293.077 0 0)
(293.048 0 0)
(293.014 0 0)
(292.974 0 0)
(292.929 0 0)
(292.877 0 0)
(292.819 0 0)
(292.754 0 0)
(292.683 0 0)
(292.606 0 0)
(292.524 0 0)
(292.436 0 0)
(292.343 0 0)
(292.247 0 0)
(292.148 0 0)
(292.047 0 0)
(291.946 0 0)
(291.845 0 0)
(291.746 0 0)
(291.65 0 0)
(291.558 0 0)
(291.47 0 0)
(291.388 0 0)
(291.312 0 0)
(291.242 0 0)
(291.179 0 0)
(291.122 0 0)
(291.072 0 0)
(291.029 0 0)
(290.991 0 0)
(290.959 0 0)
(290.933 0 0)
(290.911 0 0)
(290.893 0 0)
(290.878 0 0)
(290.867 0 0)
(290.858 0 0)
(290.851 0 0)
(290.845 0 0)
(290.842 0 0)
(290.839 0 0)
(290.837 0 0)
(290.835 0 0)
(290.834 0 0)
(290.834 0 0)
(290.833 0 0)
(290.833 0 0)
(290.833 0 0)
(290.833 0 0)
(290.833 0 0)
(290.833 0 0)
(290.833 0 0)
(290.833 0 0)
(290.833 0 0)
(290.833 0 0)
(290.833 0 0)
(290.833 0 0)
(290.833 0 0)
(290.833 0 0)
(290.833 0 0)
(290.833 0 0)
(290.833 0 0)
(290.833 0 0)
(290.833 0 0)
(290.833 0 0)
(290.833 0 0)
(290.833 0 0)
(290.833 0 0)
(290.833 0 0)
)
;

boundaryField
{
    sides
    {
        type            zeroGradient;
    }
    empty
    {
        type            empty;
    }
}


// ************************************************************************* //
