/*--------------------------------*- C++ -*----------------------------------*\
| =========                 |                                                 |
| \\      /  F ield         | OpenFOAM: The Open Source CFD Toolbox           |
|  \\    /   O peration     | Version:  3.0.0                                 |
|   \\  /    A nd           | Web:      www.OpenFOAM.org                      |
|    \\/     M anipulation  |                                                 |
\*---------------------------------------------------------------------------*/
FoamFile
{
    version     2.0;
    format      ascii;
    class       surfaceScalarField;
    location    "1.25";
    object      phi;
}
// * * * * * * * * * * * * * * * * * * * * * * * * * * * * * * * * * * * * * //

dimensions      [0 3 -1 0 0 0 0];

internalField   nonuniform List<scalar> 
11520
(
-8.69259e-05
0.00016541
0.000112439
-2.18524e-05
0.000187549
0.00010243
5.45607e-05
0.000210217
8.28305e-05
0.000129897
0.000232487
6.02122e-05
0.000189159
0.000252502
3.94152e-05
0.000218961
0.000266079
2.12844e-05
0.000212311
0.000267447
3.82402e-06
0.000171316
0.000252234
-1.36079e-05
0.000107151
0.00022074
-2.92354e-05
3.43311e-05
0.000178675
-3.64571e-05
-3.45938e-05
0.000136193
-3.04775e-05
-9.16031e-05
0.000103707
-1.01229e-05
-0.000132317
8.82566e-05
2.0616e-05
-0.000154401
9.05092e-05
5.54939e-05
-0.000155586
0.000106346
8.57993e-05
0.000129318
0.0001031
-6.4464e-05
9.63169e-05
0.000102185
-8.02234e-06
0.000133998
7.23787e-05
5.40406e-05
0.000166872
2.97259e-05
0.000109951
0.000194763
-1.5911e-05
0.000146825
0.000216194
-5.55729e-05
0.00015521
0.000226303
-8.44643e-05
0.000133266
0.000217917
-0.000101893
8.7738e-05
0.000185869
-0.00010859
3.08492e-05
0.000131982
-0.000104179
-2.53083e-05
6.69114e-05
-8.74725e-05
-7.31352e-05
7.23841e-06
-5.81707e-05
-0.00010891
-3.28957e-05
-1.85397e-05
-0.000131684
-4.47507e-05
2.60237e-05
-0.0001404
-2.9927e-05
6.78762e-05
-0.000133215
3.78026e-06
9.82782e-05
4.6039e-05
0.000109387
-5.64154e-05
1.17716e-05
6.9519e-05
-2.38373e-06
6.81476e-05
2.41578e-05
5.22073e-05
0.00011552
-3.43226e-05
9.60361e-05
0.000153065
-9.34932e-05
0.000118439
0.000178147
-0.000141571
0.000113767
0.000184253
-0.000171471
8.40113e-05
0.000162839
-0.000181522
3.79188e-05
0.000109257
-0.000173397
-1.32296e-05
2.90304e-05
-0.000149785
-6.03659e-05
-6.10599e-05
-0.00011365
-9.84793e-05
-0.000138621
-6.85083e-05
-0.000126086
-0.000185524
-1.9122e-05
-0.000141963
-0.000193929
2.88949e-05
-0.000144477
-0.000167453
6.85064e-05
-0.000131464
-0.000116901
9.20251e-05
-5.52675e-05
9.28395e-05
-6.36463e-05
-7.79628e-05
1.93633e-05
-5.11633e-06
-3.39698e-06
-3.7063e-05
5.10036e-05
6.00418e-05
-0.000103455
9.31346e-05
0.000109653
-0.000166025
0.000112007
0.000140388
-0.000211781
0.000104281
0.00014339
-0.000233017
7.37086e-05
0.000109136
-0.000228587
2.89974e-05
3.47003e-05
-0.000202275
-2.04252e-05
-6.97351e-05
-0.000160294
-6.76122e-05
-0.000181299
-0.000109704
-0.00010865
-0.000273158
-5.67264e-05
-0.000140696
-0.000325538
-7.14863e-06
-0.000160569
-0.000331894
3.44276e-05
-0.000164505
-0.000297634
6.26291e-05
-0.000149473
-0.000235198
7.20988e-05
-0.000158654
5.85621e-05
-8.39216e-05
-0.000160999
-4.19513e-05
-1.58038e-05
-7.18695e-05
-0.000104518
4.96303e-05
5.97772e-06
-0.000170717
9.98042e-05
6.77584e-05
-0.000226957
0.000125482
0.000105426
-0.000260771
0.000123657
0.000107544
-0.000265336
9.77555e-05
6.38544e-05
-0.000241133
5.51099e-05
-2.64879e-05
-0.000194829
3.31804e-06
-0.000148786
-0.0001365
-5.16952e-05
-0.000275333
-7.65949e-05
-0.000104972
-0.000376521
-2.34268e-05
-0.000150933
-0.000432639
1.7832e-05
-0.000182929
-0.000438656
4.41623e-05
-0.000194523
-0.000401334
5.33621e-05
-0.000181369
-0.000333415
4.31414e-05
-0.000248383
1.27071e-05
-0.000112983
-0.000224755
-0.000107382
-3.32177e-05
-0.000126827
-0.000170178
4.59284e-05
-3.89067e-05
-0.000228416
0.000110551
3.26712e-05
-0.000269897
0.000150273
7.7224e-05
-0.000284271
0.000160679
8.09774e-05
-0.000266801
0.000143285
3.29693e-05
-0.000220468
0.000103248
-6.60417e-05
-0.000155162
4.66004e-05
-0.000197999
-8.45367e-05
-2.06473e-05
-0.000331976
-2.17841e-05
-9.13147e-05
-0.000437222
2.41999e-05
-0.00015617
-0.000495059
4.97713e-05
-0.000204766
-0.000502093
5.47448e-05
-0.000227839
-0.000465761
4.02925e-05
-0.00021964
-0.000398163
7.83594e-06
-0.000311166
-3.88389e-05
-0.000145833
-0.000258177
-0.000168647
-5.49521e-05
-0.00015808
-0.000224941
3.88111e-05
-6.59791e-05
-0.000268227
0.000120331
1.11349e-05
-0.000288536
0.000177541
6.09559e-05
-0.000278742
0.000203636
6.80855e-05
-0.000237198
0.000197226
2.0765e-05
-0.000169732
0.000160744
-7.95785e-05
-8.93517e-05
9.87688e-05
-0.000213009
-1.27928e-05
1.80027e-05
-0.00034709
4.54034e-05
-7.158e-05
-0.000451284
7.72536e-05
-0.000156764
-0.000508567
8.17415e-05
-0.000223322
-0.000517039
6.19419e-05
-0.000259352
-0.000484295
2.26088e-05
-0.000257963
-0.000421316
-3.08601e-05
-0.000337843
-9.02357e-05
-0.000177932
-0.00025418
-0.00021638
-7.77834e-05
-0.00015842
-0.000259255
2.92446e-05
-6.82603e-05
-0.000281975
0.000127205
9.34824e-06
-0.000277303
0.000202378
6.16252e-05
-0.000241896
0.000245281
7.24404e-05
-0.000177608
0.000251186
2.94061e-05
-9.33502e-05
0.000219433
-6.61856e-05
-4.8701e-06
0.000152953
-0.000194066
6.94763e-05
5.92435e-05
-0.000321797
0.000115423
-4.86068e-05
-0.000420226
0.000127395
-0.000153351
-0.000474426
0.000107765
-0.000237191
-0.000483827
6.29633e-05
-0.000285993
-0.00045586
1.18126e-06
-0.000292045
-0.000400169
-6.8738e-05
-0.00032449
-0.00013468
-0.000205508
-0.000211475
-0.000241553
-9.82757e-05
-0.000125675
-0.000265155
1.97597e-05
-4.2681e-05
-0.000263862
0.00013228
3.08059e-05
-0.000233459
0.000224198
8.24048e-05
-0.000174415
0.000283551
9.61397e-05
-9.21096e-05
0.000302128
5.92404e-05
1.50523e-06
0.000275799
-2.75699e-05
8.93706e-05
0.000205725
-0.000144546
0.000152622
0.000100261
-0.000260665
0.000179422
-2.42471e-05
-0.000349257
0.000167884
-0.000146561
-0.000397902
0.000124011
-0.000245737
-0.000407278
5.73581e-05
-0.000305962
-0.000384425
-2.11342e-05
-0.000319127
-0.000337543
-0.000100105
-0.000272765
-0.0001652
-0.000225414
-0.000135557
-0.000237952
-0.000113262
-6.3814e-05
-0.000239019
1.33598e-05
8.4782e-06
-0.000213383
0.000138134
7.46326e-05
-0.000159826
0.000244942
0.000122984
-8.22776e-05
0.000319396
0.000138285
1.0628e-05
0.000349808
0.000107944
0.00010501
0.000328615
3.23153e-05
0.000182563
0.000255144
-7.00903e-05
0.000226747
0.000139
-0.000170736
0.000229656
-3.2891e-08
-0.000246462
0.000193928
-0.000137025
-0.000287777
0.000129015
-0.000248589
-0.000296426
4.67867e-05
-0.000317923
-0.000278869
-4.00666e-05
-0.000337066
-0.000241787
-0.000119148
-0.000190028
-0.000176203
-0.00023497
-3.8469e-05
-0.000204559
-0.000120128
1.71281e-05
-0.00018384
1.24998e-05
7.71156e-05
-0.000137457
0.000146906
0.000134441
-6.68084e-05
0.000266136
0.000178135
2.15169e-05
0.00035341
0.000193939
0.000116495
0.000393596
0.000170044
0.000202468
0.000375813
0.000106794
0.00026194
0.000298328
2.12521e-05
0.000281891
0.000172668
-6.1525e-05
0.000259773
2.20712e-05
-0.00012281
0.000202909
-0.000125547
-0.000156215
0.000123423
-0.000245416
-0.000164262
3.44527e-05
-0.000320651
-0.000152541
-5.10608e-05
-0.00034391
-0.000125995
-0.000121445
-8.83096e-05
-0.000164972
-0.000232205
6.28565e-05
-0.000146728
-0.00011726
0.000102265
-0.000109605
1.82643e-05
0.000149948
-5.03214e-05
0.000158824
0.000198236
2.81512e-05
0.000286729
0.000236833
0.000117715
0.000382981
0.000252754
0.000205795
0.000429168
0.000235409
0.000276304
0.000411939
0.000185516
0.000313429
0.000329762
0.000118281
0.000308748
0.000196792
5.42961e-05
0.000265311
3.92955e-05
7.31796e-06
0.000194371
-0.000113269
-1.8969e-05
0.000109641
-0.000236045
-2.75105e-05
2.41376e-05
-0.000313069
-2.24557e-05
-5.05494e-05
-0.000337993
-6.8725e-06
-0.000105235
1.67994e-05
-0.000132572
-0.000216605
0.000149968
-7.51289e-05
-0.000104615
0.000175204
-3.09348e-05
2.96643e-05
0.00021151
3.02693e-05
0.000171266
0.000251125
0.000104815
0.000301953
0.000284671
0.000184768
0.000400927
0.000300772
0.000257866
0.000447532
0.000290517
0.000308842
0.000427606
0.000254924
0.000324398
0.000341278
0.000206485
0.000300484
0.000205469
0.00016054
0.000244503
4.80286e-05
0.000126112
0.000170159
-0.000101738
0.000104708
9.13479e-05
-0.000220694
9.41168e-05
1.94753e-05
-0.000294748
9.20204e-05
-3.67695e-05
-0.000318647
9.73485e-05
-7.18257e-05
0.000108837
-8.34734e-05
-0.000189642
0.000207772
-2.95045e-06
-8.42158e-05
0.000222731
3.73843e-05
4.36337e-05
0.000249575
8.80878e-05
0.000179427
0.000281324
0.000146536
0.000304641
0.000310052
0.000206681
0.000397749
0.000326436
0.000258491
0.000437914
0.000323353
0.000289295
0.000412506
0.000301509
0.000288845
0.000324505
0.000269752
0.00025608
0.000192823
0.000238162
0.00020026
4.48413e-05
0.000212178
0.000135225
-9.28957e-05
0.000192675
7.33439e-05
-0.000200494
0.000179162
2.32318e-05
-0.000266502
0.000171258
-1.02099e-05
-0.000286746
0.000169291
-2.55314e-05
0.000172712
-2.4972e-05
-0.000155559
0.000228105
5.8246e-05
-5.99301e-05
0.000238504
8.46794e-05
5.63039e-05
0.000259024
0.000114506
0.000179009
0.000284544
0.000147196
0.000289725
0.000309204
0.000179994
0.0003677
0.000325834
0.000206804
0.000394569
0.00032848
0.000219049
0.000361762
0.000316484
0.000209923
0.000275837
0.000294798
0.000179876
0.00015639
0.000269403
0.000137324
2.76748e-05
0.000244964
9.35445e-05
-8.87012e-05
0.000224009
5.75789e-05
-0.000177852
0.000208236
3.41548e-05
-0.000231432
0.000198655
2.42575e-05
-0.000246045
0.000195582
2.58452e-05
0.000197831
3.37789e-05
-0.00012167
0.000102016
-3.77253e-05
0.000109561
6.34902e-05
0.000113247
0.000167831
0.000115499
0.000257162
0.000117381
0.000312905
0.000117031
0.000321562
0.000110325
0.000280654
9.44193e-05
0.000200345
7.15799e-05
9.99596e-05
4.89853e-05
-1.7409e-06
3.37396e-05
-9.02345e-05
2.98833e-05
-0.000156454
3.71725e-05
-0.000195311
5.22242e-05
-0.00020371
6.9782e-05
8.3049e-05
-0.000119692
8.61393e-05
0.000111479
-6.68658e-05
7.67533e-05
7.508e-05
-3.76723e-06
8.62651e-05
3.94759e-05
5.87033e-05
0.000116588
1.55205e-05
0.000108006
0.000165403
9.35587e-06
0.000133789
0.000224397
1.95408e-05
0.000130739
0.000280632
3.87e-05
0.000100456
0.000320832
5.86578e-05
5.03825e-05
0.000336049
7.47345e-05
-8.1063e-06
0.000324942
8.78039e-05
-6.46656e-05
0.000293257
0.000100964
-0.000112077
0.000250246
0.000116183
-0.000146969
0.000204862
0.000132183
-0.000167277
0.00016303
0.000144518
-0.000171022
0.000127478
0.000146759
9.99022e-05
0.000133358
-7.06874e-05
1.73011e-05
0.000136137
-2.5792e-05
2.52169e-05
7.90196e-05
2.35262e-05
4.59537e-05
2.07191e-05
6.74459e-05
8.20352e-05
-2.52775e-05
9.59292e-05
0.000131204
-4.98574e-05
0.000102125
0.000184699
-5.0962e-05
8.48244e-05
0.000228988
-3.29493e-05
4.91028e-05
0.000250852
-2.88838e-06
4.33309e-06
0.000243395
3.32442e-05
-3.99431e-05
0.00020953
7.22162e-05
-7.70473e-05
0.00016031
0.000111881
-0.000104466
0.000109521
0.000149605
-0.000121991
6.75131e-05
0.000180897
-0.000129247
3.84839e-05
0.000199678
-0.000124478
2.15109e-05
0.000199476
1.42398e-05
0.000176145
-3.44775e-05
-7.29619e-05
0.000122476
8.89911e-06
-4.41808e-05
5.01789e-05
5.15527e-05
-7.75468e-06
-2.32678e-05
8.40807e-05
3.78895e-05
-8.18755e-05
9.8587e-05
8.94091e-05
-0.000114283
9.17519e-05
0.000136946
-0.000116883
6.59716e-05
0.000166469
-9.32224e-05
2.84007e-05
0.00016576
-5.07339e-05
-1.19801e-05
0.000131321
2.66941e-06
-4.78684e-05
7.13729e-05
6.03951e-05
-7.5737e-05
3.03816e-06
0.000116632
-9.50143e-05
-5.62592e-05
0.000165935
-0.000105729
-9.54098e-05
0.000202532
-0.000106917
-0.000112125
0.000220303
-9.62928e-05
-0.000110535
0.000213447
-9.63506e-05
0.000178921
-1.76131e-05
-0.000171204
7.40615e-05
3.10086e-05
-0.000122421
-7.44484e-06
7.59405e-05
-6.90634e-05
-8.7078e-05
0.000107345
-1.17011e-05
-0.000147839
0.000118512
4.41136e-05
-0.000177653
0.000108235
8.69063e-05
-0.0001727
8.0724e-05
0.000102339
-0.000136946
4.35476e-05
7.99095e-05
-7.92484e-05
4.48841e-06
2.01725e-05
-1.00859e-05
-3.17021e-05
-6.28709e-05
6.07303e-05
-6.22179e-05
-0.000147625
0.000124452
-8.60224e-05
-0.000214025
0.000174422
-0.000100976
-0.000251335
0.000205306
-0.000103913
-0.000259172
0.000212614
-9.13357e-05
-0.000243633
0.000192619
-0.000212026
0.000144058
-2.14e-05
-0.000263105
-1.46752e-06
3.70136e-05
-0.000198827
-8.65259e-05
9.16405e-05
-0.000130932
-0.000163475
0.000131585
-6.22899e-05
-0.000216312
0.000149914
-9.24586e-07
-0.000234062
0.000145599
3.9728e-05
-0.000213842
0.000122583
4.50098e-05
-0.000160788
8.73323e-05
6.07214e-06
-8.57414e-05
4.58615e-05
-7.26874e-05
-2.16964e-06
2.28598e-06
-0.000172629
7.67386e-05
-4.04759e-05
-0.000268511
0.000140222
-7.85289e-05
-0.000339475
0.000181335
-0.000106254
-0.000375996
0.000196549
-0.000117438
-0.00037918
0.000184554
-0.000107056
-0.000355897
0.000145024
-0.000313432
7.98736e-05
-4.2967e-05
-0.000335026
-9.39731e-05
2.65483e-05
-0.000261711
-0.000176809
9.47854e-05
-0.0001845
-0.000243086
0.000149572
-0.000107527
-0.000279446
0.000182703
-4.0804e-05
-0.000277522
0.000191379
7.09535e-07
-0.000236459
0.000177586
1.41914e-06
-0.000163084
0.000145692
-4.66518e-05
-7.0544e-05
9.98913e-05
-0.000135956
2.45324e-05
4.41874e-05
-0.000244735
0.000106025
-1.63126e-05
-0.000345706
0.000161894
-7.39137e-05
-0.000418292
0.000186189
-0.00011891
-0.000454582
0.000178326
-0.000142116
-0.000456744
0.000141063
-0.000137145
-0.000431518
7.84862e-05
-0.000384976
-2.9603e-06
-7.73823e-05
-0.000376082
-0.000191345
2.15392e-06
-0.000300672
-0.000265515
8.45322e-05
-0.000220627
-0.000314479
0.000156584
-0.000139877
-0.000328238
0.000208187
-6.92428e-05
-0.000301905
0.000233895
-2.49475e-05
-0.000237249
0.000232403
-2.34603e-05
-0.000143362
0.000204886
-7.25865e-05
-3.58998e-05
0.000154071
-0.00016374
6.58076e-05
8.45376e-05
-0.000273224
0.000143426
4.48782e-06
-0.000373217
0.000184814
-7.39144e-05
-0.000444372
0.000186223
-0.000137121
-0.00048041
0.000150977
-0.000173422
-0.000484114
8.62803e-05
-0.000175488
-0.000461507
1.19443e-06
-0.00041705
-9.25121e-05
-0.00011934
-0.00037987
-0.00027976
-3.18178e-05
-0.000308838
-0.000338611
6.31768e-05
-0.000232156
-0.00036544
0.000151961
-0.000152455
-0.00035351
0.000222586
-8.02309e-05
-0.000301533
0.000266395
-3.21789e-05
-0.000214185
0.000278177
-2.56802e-05
-0.000102912
0.00025577
-6.93478e-05
1.42975e-05
0.000200123
-0.000154601
0.000115984
0.000117003
-0.000257473
0.000182793
1.82189e-05
-0.000350999
0.000203962
-7.95905e-05
-0.000417822
0.000179025
-0.000159543
-0.000453202
0.000115708
-0.00020804
-0.000460122
2.56857e-05
-0.000217519
-0.000443705
-7.70609e-05
-0.000406427
-0.000176315
-0.000163642
-0.000345343
-0.000345288
-7.02544e-05
-0.000284156
-0.000383224
3.50726e-05
-0.000215742
-0.000385603
0.000138453
-0.000141015
-0.000348279
0.000226433
-6.95171e-05
-0.000273108
0.00028732
-1.77357e-05
-0.00016744
0.000311839
-3.75574e-06
-4.4939e-05
0.000294368
-3.71453e-05
7.46397e-05
0.000234254
-0.000110397
0.000168531
0.00013879
-0.000200741
0.000218154
2.36076e-05
-0.000283399
0.000215467
-9.07316e-05
-0.000343525
0.000164054
-0.000184533
-0.00037794
7.58968e-05
-0.000243226
-0.000389428
-3.3134e-05
-0.000259368
-0.000381889
-0.000145779
-0.000355928
-0.000242218
-0.000205093
-0.000277034
-0.000376412
-0.000107742
-0.000229854
-0.000390671
5.38625e-06
-0.000172749
-0.000369505
0.000120517
-0.000105406
-0.000310566
0.000223027
-3.62934e-05
-0.000218011
0.000298467
1.87306e-05
-0.000101278
0.000333961
4.14906e-05
2.42697e-05
0.000320319
2.1364e-05
0.000137695
0.000255836
-3.56837e-05
0.000216517
0.000149666
-0.000109351
0.000244436
2.11075e-05
-0.000178216
0.000217304
-0.000105843
-0.0002305
0.00014294
-0.000209768
-0.000264175
3.6946e-05
-0.000275822
-0.000281594
-8.18473e-05
-0.000297126
-0.0002851
-0.000194633
-0.000273491
-0.000280522
-0.000238548
-0.000184733
-0.000366778
-0.000139171
-0.00015415
-0.000358922
-2.09449e-05
-0.000109562
-0.000318871
0.000102633
-5.04689e-05
-0.000245324
0.000216078
1.55263e-05
-0.000143747
0.000302668
7.34994e-05
-2.48641e-05
0.000346163
0.000105563
9.49007e-05
0.000334503
0.000100417
0.000194548
0.000265514
6.21e-05
0.000253096
0.000150656
7.31707e-06
0.000257962
1.25657e-05
-4.66851e-05
0.000209468
-0.000122472
-9.13764e-05
0.000119337
-0.000232184
-0.000125467
5.45669e-06
-0.000302181
-0.000150329
-0.000112328
-0.000326545
-0.000166455
-0.000215725
-0.000170895
-0.000285646
-0.000259311
-8.26041e-05
-0.000317176
-0.000160115
-6.94186e-05
-0.000293532
-3.99517e-05
-3.72001e-05
-0.000242846
8.81096e-05
1.39034e-05
-0.000164282
0.000208054
7.68231e-05
-6.35258e-05
0.000301304
0.000137701
4.83423e-05
0.000348927
0.000179423
0.000154821
0.000336938
0.000190298
0.000235536
0.000263558
0.000171906
0.000272322
0.000142727
0.000136507
0.000256952
-2.0045e-07
9.64918e-05
0.000194122
-0.000137863
5.77727e-05
9.81551e-05
-0.000248358
2.14025e-05
-1.22372e-05
-0.000318473
-1.23043e-05
-0.000118459
-0.000343424
-4.17885e-05
-0.000204949
-6.24169e-05
-0.000256845
-0.000263771
1.26669e-05
-0.000235668
-0.000167422
9.63638e-06
-0.000206339
-4.91806e-05
3.06569e-05
-0.000155829
7.83836e-05
7.44222e-05
-8.32675e-05
0.000199055
0.000134478
6.44111e-06
0.000293163
0.000198264
0.000103195
0.000340246
0.000249807
0.000191375
0.000325679
0.000277076
0.000252188
0.000248959
0.000278562
0.000270548
0.000126371
0.000261299
0.0002423
-1.53804e-05
0.000233001
0.000175402
-0.000149286
0.000197728
8.52981e-05
-0.000255098
0.000157303
-1.06132e-05
-0.000321268
0.000113974
-9.68773e-05
-0.00034428
7.17633e-05
-0.000162366
3.66719e-05
-0.000197803
-0.000250127
8.48444e-05
-0.000135937
-0.000159683
6.9185e-05
-0.000112608
-4.7973e-05
8.08692e-05
-7.38346e-05
7.29787e-05
0.000118127
-1.81202e-05
0.000187201
0.000175356
5.15811e-05
0.000275089
0.00024154
0.000127328
0.000316428
0.000302009
0.000195753
0.00029765
0.000344252
0.000240447
0.000220122
0.000363221
0.00024895
0.000101557
0.000360648
0.000219476
-3.16983e-05
0.000340417
0.000161064
-0.000154726
0.000305908
8.81923e-05
-0.000249977
0.000260586
1.51997e-05
-0.000308207
0.000208941
-4.69479e-05
-0.000327
0.000156944
-9.19188e-05
0.000111497
-0.000115861
-0.000219088
0.000122237
-3.42508e-05
-0.00013776
0.000100022
-2.74864e-05
-3.75127e-05
0.000105435
-1.03072e-05
7.01479e-05
0.000137423
2.02394e-05
0.000169973
0.00019167
6.38561e-05
0.000243862
0.000258636
0.000115819
0.000274154
0.00032462
0.000166146
0.000250315
0.000376322
0.000201692
0.000175869
0.000405505
0.000212037
6.84745e-05
0.000410069
0.000195298
-4.80577e-05
0.000392188
0.000158306
-0.000152696
0.000356232
0.000111894
-0.000231723
0.000307774
6.59929e-05
-0.000278517
0.000252884
2.71094e-05
-0.000291539
0.000197994
-2.18322e-06
0.000149622
-2.1693e-05
-0.000174895
5.42858e-05
-0.000105573
3.80315e-05
-2.11407e-05
2.82413e-05
6.71597e-05
3.0255e-05
0.000145004
4.65611e-05
0.000197204
7.50301e-05
0.000211218
0.000108473
0.00018202
0.000137124
0.000115757
0.000153403
2.82505e-05
0.000155846
-6.21753e-05
0.000148214
-0.000140832
0.000135631
-0.000198989
0.000121566
-0.00023256
0.000106933
-0.000240067
9.05896e-05
7.07989e-05
-0.000127108
-7.44428e-06
0.000109352
-9.51955e-05
-5.32344e-05
5.35422e-05
-5.7022e-05
-6.19498e-05
6.44131e-06
-2.05168e-05
-2.84214e-05
-1.79737e-05
6.53088e-06
4.47649e-05
-1.32423e-05
1.90113e-05
0.00014587
1.70616e-05
1.50487e-05
0.000256137
6.20411e-05
-3.78137e-06
0.000354397
0.000108737
-3.34652e-05
0.000422839
0.000147613
-6.76374e-05
0.000451321
0.000174987
-0.000100142
0.000439044
0.000192367
-0.000126706
0.000392416
0.000202896
-0.000145586
0.000321408
0.000207864
-0.000156307
0.000236412
0.000204921
-0.000157877
0.000147227
0.000188727
6.44493e-05
0.000154876
-5.36563e-05
-6.06319e-05
0.000168366
-2.87664e-05
-8.94867e-05
9.03821e-05
-3.4644e-06
-8.75358e-05
2.1003e-05
1.6481e-05
-4.94455e-05
-2.41987e-05
2.59916e-05
2.21388e-05
-3.67418e-05
2.26989e-05
0.000115438
-1.72377e-05
7.23611e-06
0.00021208
2.65702e-05
-1.68985e-05
0.00029188
8.37633e-05
-4.40852e-05
0.000339011
0.000144259
-6.8355e-05
0.000346823
0.000200984
-8.57934e-05
0.000318716
0.000249647
-9.55465e-05
0.000264852
0.000286921
-9.89183e-05
0.000196871
0.000308806
-9.72136e-05
0.000124088
0.000310297
-8.99187e-05
5.29073e-05
0.000286501
-1.06633e-05
0.000235953
8.1497e-06
-0.000138231
0.000176455
3.21315e-05
-0.000145568
8.22781e-05
5.21247e-05
-0.000128221
-2.57611e-06
6.26163e-05
-8.20222e-05
-5.97903e-05
6.04054e-05
-1.06014e-05
-7.93318e-05
4.58442e-05
7.39078e-05
-6.07913e-05
2.2468e-05
0.000153501
-1.12673e-05
-4.20837e-06
0.000209525
5.82979e-05
-2.84269e-05
0.000229317
0.000136582
-4.57362e-05
0.000210811
0.000213716
-5.48182e-05
0.000162823
0.000281607
-5.69792e-05
9.97443e-05
0.000333204
-5.42591e-05
3.4687e-05
0.000361997
-4.75024e-05
-2.45186e-05
0.000362153
-3.54779e-05
-7.50606e-05
0.00032939
-0.000115546
0.000263796
4.7048e-05
-0.000227108
0.000133812
7.63448e-05
-0.000213378
3.1069e-05
9.94603e-05
-0.000179052
-5.93624e-05
0.000110295
-0.000122563
-0.000118132
0.000106278
-4.94112e-05
-0.000134826
8.92226e-05
2.74261e-05
-0.000109163
6.41713e-05
9.02638e-05
-4.86574e-05
3.73357e-05
0.000122436
3.46754e-05
1.39871e-05
0.00011504
0.00012754
-3.168e-06
7.12705e-05
0.000217426
-1.43123e-05
4.94735e-06
0.000293472
-2.06637e-05
-6.63254e-05
0.000346843
-2.26012e-05
-0.000128971
0.000370901
-1.87082e-05
-0.000176878
0.00036108
-6.12166e-06
-0.00020999
0.000314963
-0.000229578
0.000234048
5.80326e-05
-0.000312744
4.85289e-05
9.66194e-05
-0.000282497
-5.59943e-05
0.000129739
-0.000233508
-0.000142138
0.000150042
-0.000167095
-0.000192083
0.000154288
-9.09135e-05
-0.000196806
0.000143977
-1.90702e-05
-0.000157036
0.000123788
3.08975e-05
-8.12325e-05
9.92312e-05
4.41267e-05
1.71255e-05
7.43384e-05
1.53379e-05
0.000122425
5.07195e-05
-4.7678e-05
0.000219306
2.83883e-05
-0.000127111
0.000294611
8.06919e-06
-0.000203652
0.000338981
-7.29082e-06
-0.000264404
0.000347342
-1.28759e-05
-0.000304981
0.000318242
-4.05629e-06
-0.000326665
0.000252879
-0.000331437
0.000155283
4.23331e-05
-0.000381574
-6.6134e-05
9.10093e-05
-0.000341443
-0.000166539
0.000137561
-0.000283159
-0.000239987
0.000173216
-0.000209775
-0.000272422
0.000192995
-0.0001305
-0.000257714
0.000196402
-6.05389e-05
-0.000198398
0.000186142
-1.76519e-05
-0.000104274
0.000165859
-1.559e-05
9.4552e-06
0.000138086
-5.70193e-05
0.000124663
0.000104008
-0.000130725
0.000223151
6.51547e-05
-0.000216449
0.000290085
2.56154e-05
-0.000294602
0.000316678
-7.63302e-06
-0.000353626
0.000300797
-2.64768e-05
-0.000390613
0.000245539
-2.48392e-05
-0.000406923
0.000157107
-0.000404023
4.34444e-05
4.81061e-06
-0.000423486
-0.000193866
6.22381e-05
-0.000380377
-0.000284009
0.000122395
-0.000319466
-0.000338329
0.000175389
-0.000243596
-0.00034741
0.000214043
-0.000162352
-0.000308708
0.000234895
-9.16208e-05
-0.000227019
0.000237491
-4.97903e-05
-0.00011382
0.000222768
-5.04808e-05
1.37148e-05
0.000191652
-9.5055e-05
0.000134959
0.000145569
-0.000170444
0.000229227
8.85441e-05
-0.000255535
0.000280926
2.86849e-05
-0.000331641
0.000283121
-2.3019e-05
-0.000388821
0.000237876
-5.61283e-05
-0.000425009
0.000153785
-6.32249e-05
-0.000441201
4.25692e-05
-0.000437558
-8.25788e-05
-4.81349e-05
-0.000433027
-0.000316576
1.60272e-05
-0.000393201
-0.000389949
8.80216e-05
-0.000335956
-0.000420944
0.000157298
-0.00026213
-0.000404253
0.00021466
-0.000180558
-0.000340688
0.000253439
-0.000107283
-0.000237302
0.000269532
-6.14248e-05
-0.00010737
0.000260714
-5.73094e-05
2.99439e-05
0.000226305
-9.63292e-05
0.000151667
0.00016843
-0.000165244
0.000235468
9.41935e-05
-0.000243599
0.000266262
1.57378e-05
-0.000314477
0.000240317
-5.24636e-05
-0.000369668
0.000164757
-9.82995e-05
-0.000407367
5.38794e-05
-0.000113783
-0.000427843
-7.49355e-05
-0.000429585
-0.00020358
-0.00010931
-0.00040966
-0.000416069
-4.03129e-05
-0.000378425
-0.000466997
4.09487e-05
-0.000329639
-0.000473182
0.000123675
-0.000261255
-0.00043188
0.00019714
-0.000180703
-0.000346428
0.000251838
-0.000103735
-0.000225686
0.0002801
-5.00983e-05
-8.45273e-05
0.000276533
-3.52417e-05
5.61386e-05
0.000238917
-6.17696e-05
0.000171587
0.000170495
-0.000117731
0.000239064
8.16381e-05
-0.000184716
0.00024544
-1.18236e-05
-0.000248215
0.000191253
-9.30002e-05
-0.000301593
8.89979e-05
-0.000148705
-0.000342978
-4.18186e-05
-0.000171056
-0.000371626
-0.000179646
-0.000384009
-0.000302125
-0.000170955
-0.000357319
-0.000476576
-9.88608e-05
-0.000338904
-0.000502287
-1.11707e-05
-0.000301472
-0.000485362
8.13391e-05
-0.000240249
-0.000424082
0.000166971
-0.000161252
-0.000323094
0.000233995
-7.96827e-05
-0.000192355
0.000271707
-1.56977e-05
-4.78424e-05
0.000271781
1.40571e-05
8.83217e-05
0.000230896
4.90161e-06
0.000190731
0.000153715
-3.37582e-05
0.000237644
5.37499e-05
-8.6666e-05
0.000219219
-5.0247e-05
-0.000142032
0.000140754
-0.000139871
-0.000194572
1.95498e-05
-0.00020174
-0.000242027
-0.000120929
-0.000228546
-0.000282216
-0.000257236
-0.000309295
-0.000365005
-0.000225211
-0.000283684
-0.000487774
-0.000151829
-0.00028109
-0.000490118
-6.07398e-05
-0.000256023
-0.000455409
3.75232e-05
-0.000202164
-0.000381672
0.000130765
-0.000124394
-0.000273847
0.000205664
-3.72865e-05
-0.00014216
0.00024927
3.89742e-05
-3.37747e-06
0.00025074
8.61038e-05
0.000121031
0.000206418
9.71455e-05
0.000205174
0.000122628
7.7877e-05
0.000230117
1.55252e-05
3.9708e-05
0.000190197
-9.38187e-05
-8.56144e-06
9.52105e-05
-0.000186922
-6.21463e-05
-3.38658e-05
-0.000250751
-0.00011808
-0.000172446
-0.0002791
-0.000172395
-0.000297198
-0.000216627
-0.000384843
-0.000264962
-0.000199294
-0.000447331
-0.000192335
-0.000213993
-0.000433255
-0.000101086
-0.000200889
-0.000389229
-1.40378e-06
-0.000153577
-0.000312551
9.46493e-05
-7.63397e-05
-0.000207633
0.000172663
1.71832e-05
-8.41408e-05
0.000217894
0.00010675
4.1814e-05
0.000218453
0.000172814
0.000148266
0.000170718
0.000205171
0.000212032
8.29641e-05
0.00020529
0.000217294
-2.64786e-05
0.000180477
0.000162796
-0.000136061
0.000137256
6.19205e-05
-0.000227489
8.01175e-05
-6.30732e-05
-0.000289042
1.34984e-05
-0.000188485
-0.000315936
-5.63497e-05
-0.000294101
-0.000118358
-0.000360322
-0.000284523
-0.000116499
-0.000361582
-0.000214914
-0.000148052
-0.000341889
-0.000126976
-0.000145616
-0.00029904
-3.03022e-05
-0.000103814
-0.000229704
6.32058e-05
-2.64383e-05
-0.000136968
0.000139071
7.38334e-05
-2.93203e-05
0.000181862
0.000176993
7.83407e-05
0.000179377
0.000262179
0.000165308
0.000128854
0.000315502
0.000210739
4.03617e-05
0.000333513
0.000202568
-6.66086e-05
0.000319508
0.000143341
-0.000170822
0.000278409
4.83582e-05
-0.000255553
0.000215355
-6.11205e-05
-0.00031089
0.000136788
-0.000164831
-0.000333604
5.15277e-05
-0.000247529
-2.6964e-05
-0.000295159
-0.000280122
-4.80535e-05
-0.000244177
-0.000215954
-9.36318e-05
-0.000231197
-0.000135118
-9.98902e-05
-0.000200396
-4.64415e-05
-6.26964e-05
-0.000147914
3.89624e-05
1.47011e-05
-7.49622e-05
0.000107374
0.000120727
1.20229e-05
0.000143956
0.00023604
0.000100125
0.000137204
0.000338724
0.000170654
8.54713e-05
0.000411055
0.00020513
5.28905e-09
0.000444313
0.000194142
-9.9529e-05
0.000437968
0.000142138
-0.000193216
0.000396155
6.41333e-05
-0.000266643
0.000325623
-2.16413e-05
-0.000312242
0.000235409
-9.9969e-05
-0.000328482
0.000136968
-0.00016112
4.54658e-05
-0.000196856
-0.00025043
-4.33361e-06
-0.000113775
-0.000194305
-5.8456e-05
-0.000118788
-0.000124552
-7.05486e-05
-0.000109401
-4.91145e-05
-3.70418e-05
-8.0853e-05
2.20596e-05
3.94499e-05
-3.20668e-05
7.72012e-05
0.000148267
3.31371e-05
0.000103831
0.000271
0.000104556
9.24582e-05
0.000385157
0.000166631
4.25044e-05
0.000470057
0.000202988
-3.48558e-05
0.000512641
0.00020433
-0.000121197
0.000509577
0.000173038
-0.000198956
0.000465227
0.00012058
-0.000256733
0.00038863
6.07633e-05
-0.000289769
0.00029122
4.33374e-06
-0.000298229
0.00018595
-4.27041e-05
8.82301e-05
-7.64523e-05
-0.000197503
8.44145e-06
-0.000152227
-2.28407e-05
-9.71007e-05
-4.06221e-05
-4.0092e-05
-3.83852e-05
9.70315e-06
-1.29987e-05
4.35475e-05
3.35818e-05
5.40054e-05
9.34998e-05
3.69547e-05
0.000153686
-5.59808e-06
0.00019998
-6.44746e-05
0.000223032
-0.00012632
0.000221694
-0.000179501
0.000201477
-0.00021731
0.000169795
-0.000237541
0.000132292
-0.000240391
9.17643e-05
5.04861e-05
-0.000109255
-9.18681e-05
0.000106388
-0.000104586
-0.000173962
4.25763e-05
-9.93455e-05
-0.000203298
-8.70902e-06
-9.66866e-05
-0.000172132
-3.21093e-05
-9.83845e-05
-8.37585e-05
-2.14998e-05
-0.000103965
4.72987e-05
1.8045e-05
-0.000111581
0.00019839
7.40707e-05
-0.000119261
0.000343512
0.000132033
-0.000125545
0.000458666
0.000180225
-0.00012946
0.000526656
0.000212712
-0.000130324
0.000539956
0.000229824
-0.000128195
0.000500369
0.000235752
-0.00012431
0.000416324
0.000234298
-0.000120409
0.000300028
0.000225156
-0.000116943
0.000166169
0.00020319
3.25197e-05
0.000162825
-1.56846e-05
-0.000118681
0.000191696
-1.73127e-05
-0.000185746
0.000103794
-2.4194e-05
-0.000205916
3.05025e-05
-3.66819e-05
-0.000171974
-1.18695e-05
-5.3393e-05
-8.74106e-05
-1.63785e-05
-7.1436e-05
3.3931e-05
1.4173e-05
-8.77005e-05
0.000170847
7.03781e-05
-9.9719e-05
0.000299377
0.000139916
-0.000105593
0.000397589
0.00021121
-0.000103996
0.000450438
0.000275605
-9.47248e-05
0.000452535
0.000327797
-7.94778e-05
0.000407616
0.000364427
-6.17344e-05
0.000325381
0.000382006
-4.52635e-05
0.000217999
0.000375854
-3.18144e-05
9.81044e-05
0.000341116
-2.08741e-05
0.0002767
6.74171e-05
-0.000168983
0.000221098
6.4856e-05
-0.000215288
0.000114382
5.3456e-05
-0.000221423
2.43315e-05
3.32707e-05
-0.000181621
-2.99571e-05
7.04199e-06
-0.000100077
-4.04367e-05
-2.02617e-05
9.7756e-06
-9.33219e-06
-4.3366e-05
0.000128249
5.44347e-05
-5.80831e-05
0.000233551
0.000138842
-6.19044e-05
0.000306666
0.000231326
-5.43593e-05
0.00033605
0.000320559
-3.72638e-05
0.000320204
0.000396842
-1.45203e-05
0.000266368
0.000451709
9.10427e-06
0.000186253
0.0004775
2.98725e-05
9.15604e-05
0.000467824
4.66671e-05
-8.23697e-06
0.000418937
-0.000104822
0.000332653
0.000125528
-0.000233791
0.000189141
0.000127467
-0.000258653
7.24943e-05