/*--------------------------------*- C++ -*----------------------------------*\
| =========                 |                                                 |
| \\      /  F ield         | OpenFOAM: The Open Source CFD Toolbox           |
|  \\    /   O peration     | Version:  3.0.0                                 |
|   \\  /    A nd           | Web:      www.OpenFOAM.org                      |
|    \\/     M anipulation  |                                                 |
\*---------------------------------------------------------------------------*/
FoamFile
{
    version     2.0;
    format      ascii;
    class       volVectorField;
    location    "1.25";
    object      U;
}
// * * * * * * * * * * * * * * * * * * * * * * * * * * * * * * * * * * * * * //

dimensions      [0 1 -1 0 0 0 0];

internalField   nonuniform List<vector> 
4096
(
(-0.0299804 0.048787 0.0286907)
(-0.0148432 0.0525037 0.0296255)
(0.00377385 0.0570287 0.0268032)
(0.0240023 0.0620056 0.0212602)
(0.0421522 0.0668987 0.0140361)
(0.0543205 0.0706802 0.00563177)
(0.0575996 0.0720362 -0.00380282)
(0.051178 0.0700277 -0.0135596)
(0.0368868 0.0645989 -0.0218953)
(0.0184008 0.0567319 -0.0266402)
(-0.000485602 0.0481819 -0.0262048)
(-0.0170585 0.0410011 -0.0203798)
(-0.0298209 0.0367488 -0.0103324)
(-0.038043 0.035862 0.00180101)
(-0.0412529 0.0377581 0.0134889)
(-0.0384861 0.0412584 0.0221853)
(-0.0233058 0.0351841 0.0219662)
(-0.00990926 0.0425852 0.018045)
(0.00580272 0.0494296 0.0093353)
(0.0216638 0.0556572 -0.00222503)
(0.0342998 0.0609283 -0.0144807)
(0.0405641 0.0641489 -0.0258286)
(0.0387926 0.0636537 -0.0353569)
(0.0296083 0.0581127 -0.0422798)
(0.0157066 0.0476222 -0.045558)
(0.000549083 0.0341478 -0.0441954)
(-0.0131769 0.0210452 -0.0378475)
(-0.0240867 0.0116819 -0.0271665)
(-0.03171 0.00802527 -0.0137357)
(-0.035873 0.0100498 0.000196715)
(-0.036242 0.0162276 0.0120851)
(-0.0320807 0.024422 0.0194971)
(-0.0211625 0.0145465 0.0114123)
(-0.00788212 0.0265177 0.003381)
(0.00661507 0.0366225 -0.0096276)
(0.0199197 0.0448244 -0.0249821)
(0.0289753 0.0506866 -0.0396725)
(0.0314498 0.052797 -0.0513756)
(0.0267761 0.0491111 -0.0588351)
(0.0164582 0.0382714 -0.0615498)
(0.00335155 0.0211152 -0.0594093)
(-0.00969848 0.00113774 -0.0526862)
(-0.0208774 -0.0166542 -0.0421177)
(-0.0294658 -0.0278529 -0.028936)
(-0.035192 -0.0304141 -0.0147729)
(-0.0377057 -0.0249706 -0.00159202)
(-0.0364952 -0.0139824 0.00841416)
(-0.0309281 -0.000500904 0.0131626)
(-0.0237393 -0.00859212 -0.00157328)
(-0.00899275 0.00835854 -0.012792)
(0.00634443 0.0225852 -0.0282356)
(0.0196096 0.0336932 -0.0448365)
(0.0278745 0.0407536 -0.0591319)
(0.0293438 0.0418207 -0.0685208)
(0.024083 0.0345527 -0.0718584)
(0.0138884 0.0179287 -0.0692984)
(0.00133029 -0.0060566 -0.0618482)
(-0.0113962 -0.0322612 -0.0509781)
(-0.0229768 -0.0542789 -0.03821)
(-0.0326367 -0.0671322 -0.0249829)
(-0.0395916 -0.0689335 -0.0126263)
(-0.0428828 -0.0608648 -0.00253354)
(-0.0415929 -0.0459924 0.00371272)
(-0.03498 -0.027898 0.00464622)
(-0.0302028 -0.031518 -0.0155094)
(-0.0129385 -0.0101818 -0.0287117)
(0.00488949 0.00816163 -0.044563)
(0.0204109 0.0225416 -0.0598608)
(0.0305577 0.0312756 -0.0711455)
(0.033626 0.0317615 -0.0759934)
(0.0297503 0.0214604 -0.0737537)
(0.0205253 -9.63205e-05 -0.0654987)
(0.00803124 -0.0296649 -0.0534112)
(-0.00600661 -0.0606705 -0.0399479)
(-0.0203028 -0.0857686 -0.0270854)
(-0.0335322 -0.0998222 -0.0160629)
(-0.0440145 -0.101324 -0.00762171)
(-0.0499498 -0.0918705 -0.00242595)
(-0.049918 -0.0747559 -0.00127909)
(-0.0428798 -0.0536017 -0.0047644)
(-0.0391207 -0.0510691 -0.028829)
(-0.0189877 -0.0266646 -0.0424578)
(0.00212958 -0.00505255 -0.0566534)
(0.0213255 0.0122786 -0.0683725)
(0.0351973 0.0228742 -0.0746078)
(0.0417212 0.0234739 -0.0735061)
(0.040622 0.0113688 -0.0651895)
(0.0329458 -0.0133919 -0.0517457)
(0.0202167 -0.0465213 -0.036398)
(0.00390026 -0.0804008 -0.0222705)
(-0.0144071 -0.107203 -0.0113479)
(-0.0325375 -0.12196 -0.00434601)
(-0.0477647 -0.123594 -0.00126594)
(-0.0574054 -0.113954 -0.00197005)
(-0.0595451 -0.0962652 -0.0064118)
(-0.0527263 -0.0738212 -0.0141214)
(-0.0489614 -0.0640438 -0.0397771)
(-0.0261314 -0.0382433 -0.0520055)
(-0.00172659 -0.0147764 -0.0626077)
(0.0215752 0.00458499 -0.0689777)
(0.0399805 0.0168221 -0.0689166)
(0.0509214 0.018145 -0.0614513)
(0.0534196 0.00564757 -0.0475976)
(0.0477456 -0.0203246 -0.0303727)
(0.0348164 -0.0548107 -0.0137685)
(0.0159525 -0.0895924 -0.00109792)
(-0.0067584 -0.116743 0.0060695)
(-0.0301729 -0.131656 0.00777629)
(-0.0504883 -0.133661 0.00480347)
(-0.0641845 -0.124704 -0.00193096)
(-0.0689392 -0.10776 -0.0115452)
(-0.0628179 -0.0856034 -0.0225125)
(-0.0584421 -0.0680037 -0.0464537)
(-0.0333255 -0.0425441 -0.0554089)
(-0.00609135 -0.0188448 -0.0608153)
(0.0210631 0.00127421 -0.0607577)
(0.0440137 0.0145394 -0.0540746)
(0.0596065 0.0168566 -0.0408226)
(0.0660526 0.00511881 -0.022915)
(0.0627267 -0.0202851 -0.00407819)
(0.0498517 -0.0541315 0.0114079)
(0.0286027 -0.0880253 0.020548)
(0.0016362 -0.114254 0.0225554)
(-0.0268723 -0.128696 0.0183346)
(-0.0520671 -0.13104 0.00940231)
(-0.0696882 -0.123224 -0.00263756)
(-0.0771204 -0.107897 -0.016173)
(-0.0719609 -0.0872744 -0.0288459)
(-0.0665466 -0.0618322 -0.0472086)
(-0.0396253 -0.0382974 -0.0513197)
(-0.0101623 -0.0158683 -0.0505159)
(0.0202878 0.00371173 -0.0437842)
(0.0473703 0.0171861 -0.0310837)
(0.0674115 0.0204021 -0.0135088)
(0.077827 0.01011 0.00627424)
(0.0770116 -0.0134272 0.0241733)
(0.0644045 -0.0450449 0.0361491)
(0.0410277 -0.076545 0.0400282)
(0.0101626 -0.100713 0.0360641)
(-0.0229583 -0.114016 0.0260054)
(-0.0524979 -0.116474 0.0119807)
(-0.0735971 -0.109951 -0.00388094)
(-0.0834865 -0.0967389 -0.0194506)
(-0.0793627 -0.0785819 -0.0319564)
(-0.0724118 -0.0460807 -0.0412846)
(-0.044224 -0.0257308 -0.0396774)
(-0.0131304 -0.00570432 -0.0325019)
(0.0199889 0.0123112 -0.0197471)
(0.0506463 0.0252254 -0.00242881)
(0.0747185 0.0290186 0.0174374)
(0.0888349 0.020413 0.0366304)
(0.090397 -0.00047873 0.0511164)
(0.078034 -0.0287413 0.0576013)
(0.0526766 -0.0566859 0.0551453)
(0.0183352 -0.0778676 0.0451523)
(-0.0187186 -0.0894578 0.0301045)
(-0.0518153 -0.0917782 0.0125428)
(-0.0756892 -0.0865765 -0.00509435)
(-0.087573 -0.0757706 -0.0204886)
(-0.0844076 -0.0607406 -0.0310128)
(-0.0752466 -0.0230566 -0.0293301)
(-0.0464562 -0.00668869 -0.0221745)
(-0.0143379 0.0102987 -0.00953482)
(0.0207722 0.0261603 0.0076859)
(0.0543354 0.038 0.0276295)
(0.0818259 0.0420247 0.0475622)
(0.0990869 0.0350786 0.0639507)
(0.102517 0.0172231 0.0731558)
(0.0900532 -0.00696498 0.0730437)
(0.0627654 -0.030563 0.0641394)
(0.0255075 -0.0481534 0.0489541)
(-0.0145187 -0.0577039 0.0305057)
(-0.0500741 -0.0597896 0.0115144)
(-0.0757538 -0.0559843 -0.00558406)
(-0.088945 -0.0477946 -0.0186603)
(-0.0865288 -0.0363048 -0.0257942)
(-0.0744474 0.00340661 -0.0135227)
(-0.0458682 0.0155181 -0.00216089)
(-0.0134264 0.0292833 0.0139287)
(0.0228269 0.042807 0.0332339)
(0.0583582 0.0533532 0.0534148)
(0.0882862 0.0574104 0.0713337)
(0.107687 0.0520795 0.0833827)
(0.112066 0.037493 0.0865413)
(0.0989792 0.0178372 0.0800126)
(0.069958 -0.000978175 0.0657487)
(0.0307276 -0.0147638 0.047153)
(-0.0108549 -0.0223028 0.027533)
(-0.0473747 -0.0243138 0.00951359)
(-0.0736058 -0.0220956 -0.00481801)
(-0.0872177 -0.0166885 -0.0139159)
(-0.0852689 -0.00888318 -0.0169588)
(-0.0698081 0.0286032 0.00302489)
(-0.042373 0.0367055 0.0163)
(-0.0104895 0.0473768 0.0329906)
(0.0257246 0.0585946 0.0514157)
(0.0617971 0.0678096 0.06924)
(0.092568 0.0718703 0.0833572)
(0.112508 0.0682616 0.0903923)
(0.11659 0.0572398 0.0880527)
(0.102476 0.0424307 0.076712)
(0.072413 0.0284775 0.0593836)
(0.0327964 0.0182672 0.0400032)
(-0.00834186 0.0123472 0.0218622)
(-0.0439049 0.0100206 0.0071959)
(-0.0691857 0.0104161 -0.00258829)
(-0.0822197 0.013014 -0.00682315)
(-0.0804331 0.0173397 -0.00588456)
(-0.0617427 0.0479019 0.0172118)
(-0.036382 0.0527205 0.0297039)
(-0.0061429 0.0606119 0.0439048)
(0.0284968 0.0696287 0.0584358)
(0.063146 0.0775148 0.071453)
(0.0925144 0.0816052 0.0803965)
(0.110866 0.0798776 0.0825144)
(0.113282 0.07263 0.0762712)
(0.0980825 0.0626518 0.0627874)
(0.0682975 0.053148 0.0455177)
(0.030554 0.0458346 0.0284107)
(-0.00762373 0.0408779 0.0143799)
(-0.0400166 0.0378605 0.00502654)
(-0.0627115 0.0364453 0.000838617)
(-0.0741593 0.0366017 0.00148986)
(-0.0722793 0.03814 0.00562396)
(-0.0514765 0.0578306 0.0269239)
(-0.0289029 0.0605372 0.0363108)
(-0.00135439 0.0661956 0.045467)
(0.0301269 0.0732284 0.0536792)
(0.0612289 0.079851 0.0599848)
(0.086731 0.083979 0.0628282)
(0.101243 0.0840237 0.0604529)
(0.100737 0.0800849 0.052121)
(0.0846999 0.0739201 0.0392873)
(0.0568483 0.0674408 0.0251859)
(0.0234439 0.0617011 0.0131979)
(-0.00918878 0.0569506 0.00546008)
(-0.0362453 0.0532703 0.00265239)
(-0.0548823 0.0507802 0.00432673)
(-0.0639426 0.0496685 0.00929598)
(-0.0617962 0.0498151 0.0155864)
(-0.0411556 0.0593636 0.0318027)
(-0.0216336 0.0620689 0.0369662)
(0.00256759 0.0669077 0.0397544)
(0.0297977 0.0728943 0.0402755)
(0.0557716 0.0789011 0.0386405)
(0.0755072 0.0834023 0.0345203)
(0.0844767 0.0849055 0.0274055)
(0.0802162 0.0828588 0.0175649)
(0.063725 0.0779009 0.00677367)
(0.0392515 0.0712768 -0.00230305)
(0.0121864 0.0642751 -0.00730354)
(-0.0129702 0.058039 -0.00729661)
(-0.0332337 0.0534553 -0.00271751)
(-0.046953 0.050974 0.0050672)
(-0.0532992 0.0505716 0.0141707)
(-0.0509112 0.0517012 0.0222452)
(-0.0370789 0.0285108 0.0286067)
(-0.0245923 0.0242166 0.0223605)
(-0.00938352 0.0253696 0.0151196)
(0.00734207 0.0323834 0.00916261)
(0.0223601 0.0445854 0.0059419)
(0.0325581 0.0597925 0.00537178)
(0.0357626 0.0747407 0.00614525)
(0.0313362 0.0861993 0.00692291)
(0.0204522 0.0920025 0.00741591)
(0.00577662 0.0915309 0.0084246)
(-0.00960137 0.0856236 0.01097)
(-0.0233177 0.0760298 0.0154348)
(-0.0340832 0.0647055 0.0212158)
(-0.0413319 0.0531977 0.026867)
(-0.0447101 0.0425502 0.0305445)
(-0.0428565 0.0335983 0.0305412)
(-0.0235944 0.0152846 0.0302397)
(-0.0128 0.0146995 0.0188764)
(-0.000305214 0.0182238 0.00579891)
(0.0122108 0.026506 -0.00592196)
(0.0220142 0.039048 -0.0139211)
(0.026778 0.053737 -0.0173602)
(0.0253501 0.0671785 -0.0168333)
(0.0181932 0.0758532 -0.0134816)
(0.00728927 0.0775306 -0.00809928)
(-0.0046524 0.0722291 -0.000936881)
(-0.0153963 0.0620303 0.0078171)
(-0.0238198 0.049926 0.0175772)
(-0.0296739 0.0384818 0.0271062)
(-0.0329837 0.0290743 0.0346582)
(-0.0335181 0.0219747 0.0382914)
(-0.0303465 0.0171242 0.0364751)
(-0.0142854 -0.00614383 0.0240089)
(-0.00346421 -0.00153571 0.00882075)
(0.00805058 0.00559676 -0.00812588)
(0.0181978 0.0158777 -0.0231149)
(0.0245799 0.0286662 -0.0331587)
(0.0256461 0.0416171 -0.0369472)
(0.0212519 0.0511827 -0.0348486)
(0.0126942 0.0540365 -0.0281528)
(0.00221945 0.0487611 -0.0182664)
(-0.00789719 0.0367379 -0.00637918)
(-0.0162375 0.0216002 0.00638927)
(-0.022383 0.00743592 0.0188041)
(-0.0263504 -0.00293858 0.0294439)
(-0.0280452 -0.00867885 0.0366485)
(-0.0270092 -0.0104932 0.0386775)
(-0.0224245 -0.00949213 0.0342693)
(-0.0107249 -0.0313046 0.0111811)
(0.00167367 -0.0211456 -0.00650388)
(0.014231 -0.0095743 -0.0251422)
(0.0245166 0.00358468 -0.0407519)
(0.0302252 0.017236 -0.0501317)
(0.0302784 0.0286713 -0.0518822)
(0.025124 0.0342487 -0.0464804)
(0.016415 0.0310377 -0.0356317)
(0.00624714 0.0186562 -0.0214859)
(-0.00362968 -1.5068e-05 -0.00614863)
(-0.0123162 -0.0199382 0.00853652)
(-0.0194936 -0.0362008 0.0210494)
(-0.0247319 -0.0459401 0.0301074)
(-0.0272917 -0.0488186 0.0345167)
(-0.0262272 -0.0462276 0.0330986)
(-0.0205723 -0.0399484 0.025131)
(-0.0128887 -0.0565961 -0.00645383)
(0.0019389 -0.0416846 -0.0252972)
(0.0170748 -0.0258405 -0.0434836)
(0.0297432 -0.00954574 -0.0572123)
(0.0374663 0.00544172 -0.0635171)
(0.0391879 0.0159539 -0.0612348)
(0.0353941 0.0182702 -0.0511713)
(0.0275914 0.00994928 -0.0356115)
(0.0174914 -0.00831862 -0.0175518)
(0.00636368 -0.0322891 2.43743e-05)
(-0.00500681 -0.0558565 0.0147277)
(-0.0157988 -0.0736829 0.025037)
(-0.0247012 -0.0831252 0.0301513)
(-0.0300692 -0.0842919 0.0296391)
(-0.0303617 -0.0789086 0.023191)
(-0.0243515 -0.0689376 0.0109774)
(-0.0196591 -0.0783376 -0.0267634)
(-0.00232121 -0.0602164 -0.0452864)
(0.016034 -0.0411888 -0.0610493)
(0.0324301 -0.0222438 -0.070771)
(0.0440502 -0.00576564 -0.072102)
(0.0494415 0.00458496 -0.0643902)
(0.0486173 0.00496125 -0.0489371)
(0.0425453 -0.00668823 -0.0286973)
(0.0323764 -0.0288133 -0.00752916)
(0.0190567 -0.0561228 0.0108237)
(0.00363508 -0.0817837 0.0236899)
(-0.0122023 -0.100412 0.0298618)
(-0.0260272 -0.109754 0.0292784)
(-0.0352458 -0.110252 0.0224729)
(-0.0377936 -0.103692 0.0102077)
(-0.0321823 -0.0918474 -0.0061654)
(-0.0295942 -0.0932619 -0.0472083)
(-0.0100754 -0.073747 -0.0637607)
(0.0113746 -0.0531597 -0.0754023)
(0.0318749 -0.0326237 -0.0795497)
(0.0482281 -0.0148889 -0.0747028)
(0.0583632 -0.0040141 -0.0609149)
(0.0614936 -0.00406741 -0.0401028)
(0.0577077 -0.0169759 -0.0159239)
(0.0474828 -0.0406528 0.00699034)
(0.0315988 -0.0691407 0.0243815)
(0.0116367 -0.0952845 0.0336442)
(-0.00964162 -0.113915 0.0341938)
(-0.0286491 -0.123209 0.0269021)
(-0.0419412 -0.123826 0.0133541)
(-0.0470948 -0.117428 -0.00453355)
(-0.0424019 -0.105398 -0.0241238)
(-0.0413295 -0.0991227 -0.0648697)
(-0.0200138 -0.0799828 -0.0777653)
(0.00401277 -0.0595506 -0.0839911)
(0.0283291 -0.0387181 -0.0816944)
(0.0494258 -0.0202739 -0.0702962)
(0.0645485 -0.0084815 -0.0506438)
(0.0719438 -0.00768379 -0.0253309)
(0.0706873 -0.019946 0.00132524)
(0.0605079 -0.0429962 0.0241306)
(0.0420778 -0.0706282 0.0386875)
(0.0176915 -0.095737 0.0428524)
(-0.00872214 -0.113577 0.036917)
(-0.0324983 -0.122743 0.0227726)
(-0.0495294 -0.123996 0.00303982)
(-0.0572415 -0.118787 -0.0193161)
(-0.0536722 -0.108011 -0.040511)
(-0.0535813 -0.0949973 -0.0768029)
(-0.0307625 -0.0777804 -0.0846343)
(-0.00477804 -0.0589674 -0.0847346)
(0.0227489 -0.0390121 -0.0759224)
(0.0480819 -0.0205021 -0.0584801)
(0.0678459 -0.00771908 -0.0340336)
(0.0793257 -0.00522682 -0.00583876)
(0.0805244 -0.0153442 0.021257)
(0.0704039 -0.0359648 0.0418394)
(0.0496136 -0.0610178 0.0518306)
(0.0212592 -0.0837969 0.049927)
(-0.00958176 -0.100147 0.0374428)
(-0.0373269 -0.109066 0.0172397)
(-0.0574457 -0.11132 -0.0071762)
(-0.06739 -0.108084 -0.0320674)
(-0.0648593 -0.0997448 -0.0529167)
(-0.0650059 -0.081381 -0.0806662)
(-0.0409578 -0.0673249 -0.0827092)
(-0.0136219 -0.0511471 -0.0767616)
(0.0164013 -0.0328863 -0.0622191)
(0.0452144 -0.0148386 -0.0400704)
(0.0689153 -0.00116047 -0.0126204)
(0.0839276 0.00347876 0.0163141)
(0.0872103 -0.00351512 0.0415838)
(0.077 -0.0203941 0.0579491)
(0.054062 -0.0415722 0.0621355)
(0.0223777 -0.0610702 0.0539637)
(-0.0119461 -0.0754637 0.0357729)
(-0.0426446 -0.0841115 0.0112036)
(-0.0649925 -0.0877021 -0.0156494)
(-0.0766343 -0.0870603 -0.040717)
(-0.0748483 -0.0820851 -0.0593592)
(-0.0741676 -0.0601447 -0.0753824)
(-0.0492979 -0.0501124 -0.0719475)
(-0.0212177 -0.0370853 -0.0609898)
(0.0105149 -0.0209081 -0.0423566)
(0.0418958 -0.00361804 -0.0175248)
(0.0686091 0.0108377 0.0106976)
(0.0863182 0.0178197 0.0381031)
(0.0910374 0.0145065 0.0595098)
(0.0804458 0.00220129 0.0702626)
(0.0556007 -0.0142923 0.068272)
(0.0213741 -0.0300069 0.0545959)
(-0.0152919 -0.0423311 0.0324481)
(-0.0477459 -0.0508872 0.0059198)
(-0.0713117 -0.0561899 -0.0207381)
(-0.0839394 -0.058628 -0.043636)
(-0.0824951 -0.0576396 -0.0586904)
(-0.0796896 -0.0343857 -0.0615865)
(-0.0546427 -0.0288132 -0.0541512)
(-0.0264824 -0.0190311 -0.0402013)
(0.00604065 -0.00497508 -0.0198862)
(0.0388837 0.0114958 0.00511318)
(0.0674318 0.0266869 0.031754)
(0.0867219 0.0360974 0.0556838)
(0.0920244 0.036778 0.0719304)
(0.0807272 0.0294874 0.0767504)
(0.0543602 0.0179936 0.0693838)
(0.0186189 0.00607708 0.0520128)
(-0.0190079 -0.00443492 0.0284011)
(-0.0518308 -0.0132965 0.00270634)
(-0.0754646 -0.0207132 -0.021166)
(-0.0882352 -0.0265402 -0.0400066)
(-0.0867469 -0.0297894 -0.0508458)
(-0.0804967 -0.00810746 -0.0415971)
(-0.0561485 -0.00695921 -0.0326)
(-0.0286825 -0.00023895 -0.018448)
(0.00349912 0.0118482 0.000617509)
(0.0363932 0.0275697 0.0230347)
(0.0652361 0.0435294 0.0459075)
(0.0846813 0.0554733 0.0650662)
(0.0895958 0.0603696 0.0760126)
(0.0774133 0.0582675 0.075963)
(0.0502615 0.0516695 0.0652949)
(0.0144232 0.0431233 0.0469548)
(-0.0224898 0.0338392 0.0248544)
(-0.0541226 0.0241303 0.0027467)
(-0.076584 0.0142657 -0.0162493)
(-0.0885949 0.00499041 -0.029956)
(-0.0867964 -0.00232304 -0.0367923)
(-0.0760652 0.0142511 -0.0189232)
(-0.0534062 0.0115542 -0.011253)
(-0.0275336 0.0155753 3.57181e-05)
(0.00293985 0.0258698 0.0148612)
(0.0341386 0.0408651 0.0321382)
(0.061356 0.0575316 0.0495407)
(0.0792509 0.0719571 0.0635167)
(0.0828059 0.0810294 0.0702693)
(0.0698687 0.0839309 0.0677705)
(0.0431073 0.0817487 0.0569762)
(0.00897974 0.0758682 0.0409765)
(-0.0252846 0.067136 0.0233182)
(-0.0540299 0.0561723 0.00697671)
(-0.0740373 0.0438472 -0.00599848)
(-0.0844193 0.0314976 -0.0145598)
(-0.0822097 0.0208121 -0.0184062)
(-0.0666589 0.0286597 0.00261696)
(-0.0466023 0.0233317 0.00637739)
(-0.0232824 0.0252072 0.0121865)
(0.00400622 0.0338669 0.0204054)
(0.0315884 0.0479941 0.0307123)
(0.0550458 0.0649497 0.0416877)
(0.0695439 0.081156 0.0507551)
(0.0708468 0.0934044 0.055027)
(0.0575909 0.100044 0.0529969)
(0.0327803 0.100942 0.0455375)
(0.00247803 0.0966872 0.0351143)
(-0.0270306 0.0880811 0.0243328)
(-0.0511654 0.0761819 0.0150521)
(-0.0675397 0.0623558 0.00821995)
(-0.0756107 0.0482854 0.00394206)
(-0.0730705 0.0357656 0.0016606)
(-0.0535161 0.0341627 0.0200933)
(-0.0367597 0.0281668 0.018488)
(-0.0168707 0.028997 0.0174313)
(0.00591063 0.0366511 0.0180093)
(0.0281035 0.050347 0.020721)
(0.045752 0.0679249 0.0249759)
(0.055032 0.0859006 0.0291052)
(0.053236 0.100482 0.0312259)
(0.0402831 0.108919 0.0305577)
(0.019336 0.110201 0.0279659)
(-0.00464391 0.104938 0.0250121)
(-0.0270966 0.0947434 0.0229039)
(-0.0450135 0.0815586 0.0219769)
(-0.0569535 0.067169 0.0218227)
(-0.0625435 0.0531625 0.0215799)
(-0.0600596 0.0409695 0.0201807)
(-0.0365061 0.0026725 0.0281582)
(-0.0287584 -0.0108503 0.0157641)
(-0.0196302 -0.0142911 0.0047828)
(-0.00969395 -0.00618342 -0.00150999)
(-0.00118307 0.0126772 -0.00143199)
(0.00415774 0.038932 0.00437096)
(0.00541226 0.0674612 0.0134593)
(0.00245907 0.0928772 0.0229431)
(-0.00402915 0.110922 0.0308088)
(-0.0126457 0.119274 0.036567)
(-0.0216302 0.117625 0.0407614)
(-0.0294886 0.107209 0.0440354)
(-0.0354416 0.0900946 0.0463874)
(-0.0393443 0.0686262 0.0469772)
(-0.0411893 0.0452826 0.0443958)
(-0.0394278 0.0229968 0.0375219)
(-0.0169145 -0.00655041 0.0391814)
(-0.0106149 -0.0165783 0.0213527)
(-0.00395558 -0.0178073 0.00463669)
(0.00211658 -0.00887658 -0.00714204)
(0.00606953 0.0096265 -0.0116624)
(0.00694355 0.0348385 -0.00876037)
(0.00450627 0.0620686 -9.39049e-05)
(-0.000750295 0.0859242 0.0118637)
(-0.00762874 0.101838 0.0248952)
(-0.0145261 0.107362 0.0375893)
(-0.0200636 0.102616 0.0490922)
(-0.0236055 0.0896706 0.0586397)
(-0.0252871 0.0713847 0.0651547)
(-0.0255627 0.0504544 0.0672587)
(-0.0245814 0.0291323 0.0635719)
(-0.0214482 0.00966729 0.0534712)
(-0.00115588 -0.0242514 0.0383904)
(0.005335 -0.0290403 0.0166714)
(0.0112352 -0.0267794 -0.00388021)
(0.0153571 -0.0161759 -0.01877)
(0.016466 0.00203189 -0.0251996)
(0.0142128 0.0248291 -0.0226844)
(0.00914977 0.0475503 -0.0126995)
(0.00246233 0.0651814 0.00224585)
(-0.00432354 0.0739968 0.0195534)
(-0.00980555 0.0727983 0.0370531)
(-0.0132306 0.0631183 0.0529666)
(-0.0146521 0.0481304 0.0657305)
(-0.014588 0.0310668 0.0738236)
(-0.0134746 0.0141605 0.0757603)
(-0.0112282 -0.00143338 0.0702886)
(-0.00691969 -0.0148193 0.0570584)
(0.00798992 -0.0466229 0.0264271)
(0.0161058 -0.0455913 0.00255457)
(0.0231387 -0.0389057 -0.019403)
(0.0277076 -0.0257886 -0.0347006)
(0.0285692 -0.00736637 -0.0404189)
(0.0256593 0.0131626 -0.036068)
(0.0199688 0.0312259 -0.023229)
(0.013038 0.0422874 -0.00471309)
(0.00641349 0.043584 0.0163276)
(0.00114895 0.0352845 0.036991)
(-0.00248323 0.0203523 0.0547879)
(-0.00477547 0.00297665 0.0677897)
(-0.00597748 -0.013341 0.0745304)
(-0.00593708 -0.0268095 0.073904)
(-0.00404312 -0.0371502 0.0651528)
(0.00103904 -0.0444666 0.0483127)
(0.009698 -0.0699501 0.00542236)
(0.0200513 -0.0638632 -0.0190579)
(0.0296243 -0.0528639 -0.0400332)
(0.036753 -0.0369614 -0.0531177)
(0.0399267 -0.0178544 -0.0557276)
(0.0389506 0.000992896 -0.0476276)
(0.0347592 0.0150947 -0.0306546)
(0.0287919 0.0204433 -0.00803869)
(0.0223394 0.0152638 0.0164038)
(0.0160807 0.0010296 0.0389709)
(0.0100904 -0.0181127 0.0566096)
(0.00437685 -0.0373296 0.0672841)
(-0.000517167 -0.0531548 0.0699676)
(-0.0035355 -0.0642488 0.0643716)
(-0.00340925 -0.0708409 0.050655)
(0.001644 -0.0734572 0.0295961)
(0.00469718 -0.0904566 -0.0216015)
(0.0170901 -0.0809181 -0.0452148)
(0.0297443 -0.0667155 -0.0631351)
(0.0406667 -0.048512 -0.0718084)
(0.0479264 -0.0285372 -0.069371)
(0.0508223 -0.0105637 -0.0560794)
(0.0497707 0.000916393 -0.0341426)
(0.0457197 0.00230485 -0.0072832)
(0.0394999 -0.00733979 0.0199527)
(0.0314782 -0.0254868 0.0431077)
(0.0218429 -0.0471533 0.0587159)
(0.011295 -0.0672639 0.064933)
(0.00143595 -0.0826444 0.0614993)
(-0.00569487 -0.0923794 0.049247)
(-0.00821286 -0.0968591 0.0295658)
(-0.0040909 -0.0966081 0.00435123)
(-0.00565168 -0.105008 -0.0509746)
(0.00827959 -0.0938681 -0.0721287)
(0.0238373 -0.0781435 -0.0853449)
(0.0388313 -0.058703 -0.0880877)
(0.0509056 -0.038038 -0.0794059)
(0.0586577 -0.020165 -0.0601822)
(0.0616744 -0.00969604 -0.0331146)
(0.0601157 -0.0100712 -0.00248252)
(0.0542119 -0.0217144 0.0264811)
(0.0441057 -0.0414092 0.0486869)
(0.0303601 -0.0637498 0.060521)
(0.0146194 -0.0837601 0.0606552)
(-0.000408638 -0.0986724 0.0498857)
(-0.0117963 -0.107873 0.0303373)
(-0.017213 -0.111701 0.00478304)
(-0.0146187 -0.110428 -0.0235398)
(-0.0198275 -0.111637 -0.0785791)
(-0.00472062 -0.100633 -0.0956039)
(0.0132024 -0.0851434 -0.102985)
(0.0318767 -0.0657204 -0.0991076)
(0.0486079 -0.0447811 -0.0839106)
(0.0612851 -0.0264465 -0.0589336)
(0.0685563 -0.0155188 -0.0273976)
(0.0696428 -0.0155337 0.00587013)
(0.0640911 -0.0267617 0.0350251)
(0.0518918 -0.0457304 0.0546046)
(0.0341672 -0.0670198 0.0612023)
(0.0136135 -0.0860161 0.0543251)
(-0.00603784 -0.100395 0.0360025)
(-0.0211984 -0.109692 0.00969587)
(-0.0293213 -0.114094 -0.0205097)
(-0.028362 -0.113472 -0.0500414)
(-0.0361555 -0.109667 -0.100249)
(-0.0199723 -0.100288 -0.111721)
(-0.000323287 -0.0864939 -0.112803)
(0.0212979 -0.0681515 -0.102512)
(0.0419573 -0.0473609 -0.0814989)
(0.0589543 -0.028211 -0.0518688)
(0.0700634 -0.0156893 -0.0173286)
(0.0735517 -0.0135866 0.0168206)
(0.0682654 -0.0223574 0.0443313)
(0.0541241 -0.0386863 0.0597147)
(0.0329237 -0.0575161 0.0601518)
(0.00838352 -0.0747895 0.046228)
(-0.0149215 -0.0886203 0.0212299)
(-0.0330006 -0.0985712 -0.0101859)
(-0.0433191 -0.104606 -0.0429086)
(-0.0436476 -0.106104 -0.0713708)
(-0.0526868 -0.0996148 -0.112419)
(-0.0354252 -0.0930775 -0.117655)
(-0.0147057 -0.0819548 -0.112796)
(0.00898565 -0.0653417 -0.0971887)
(0.032558 -0.044943 -0.0719297)
(0.0528722 -0.024728 -0.0395156)
(0.0669933 -0.0098155 -0.00401219)
(0.0723182 -0.00431226 0.0289424)
(0.0670637 -0.00910835 0.0530047)
(0.0511984 -0.0214005 0.0630592)
(0.027242 -0.0368209 0.0572011)
(-0.00019908 -0.0519952 0.0371883)
(-0.0259569 -0.0654248 0.00742246)
(-0.0458911 -0.0766178 -0.0265946)
(-0.0576756 -0.0852313 -0.0592408)
(-0.0586224 -0.0900623 -0.0845558)
(-0.0672727 -0.0830086 -0.112873)
(-0.0490953 -0.0802303 -0.112332)
(-0.0279726 -0.072243 -0.10283)
(-0.00314228 -0.0575641 -0.08379)
(0.0222023 -0.0375604 -0.0564906)
(0.0446366 -0.016042 -0.0236058)
(0.0607059 0.00181437 0.010614)
(0.0670898 0.0115419 0.0404118)
(0.0615321 0.0116845 0.0596769)
(0.0442074 0.00423864 0.0640346)
(0.0183563 -0.00735686 0.0526931)
(-0.0107418 -0.0204836 0.0285083)
(-0.0376276 -0.0338978 -0.00335774)
(-0.0582379 -0.0469689 -0.0370503)
(-0.070599 -0.0589441 -0.0670967)
(-0.0713988 -0.0679623 -0.0878716)
(-0.0778519 -0.0621799 -0.101327)
(-0.0592415 -0.0637309 -0.0967284)
(-0.0383913 -0.0589146 -0.0847362)
(-0.0133939 -0.0460436 -0.0647284)
(0.0125169 -0.0262674 -0.0379213)
(0.0357829 -0.00319966 -0.00694042)
(0.0525929 0.0179669 0.0239898)
(0.0591407 0.0324022 0.0492569)
(0.0529573 0.0379464 0.0632356)
(0.0345413 0.0355713 0.0625331)
(0.00776531 0.0276715 0.047494)
(-0.0216524 0.0161631 0.0217891)
(-0.0482595 0.00217673 -0.00914212)
(-0.0683238 -0.0133834 -0.0397053)
(-0.080307 -0.0292418 -0.0651903)
(-0.0803387 -0.0428518 -0.0809847)
(-0.0827553 -0.0400489 -0.0795618)
(-0.0644972 -0.046077 -0.0735995)
(-0.0445954 -0.0441902 -0.0618508)
(-0.0204727 -0.0328537 -0.043612)
(0.00471081 -0.0130848 -0.0198135)
(0.027417 0.0117261 0.00721613)
(0.0437021 0.0364297 0.0335205)
(0.0495596 0.0558475 0.0538317)
(0.0425441 0.0669155 0.063172)
(0.023577 0.0694 0.0591357)
(-0.00299143 0.0646379 0.0429863)
(-0.0313299 0.0540371 0.0187958)
(-0.0562896 0.0387752 -0.00829168)
(-0.074634 0.0202107 -0.033531)
(-0.0853095 0.000263856 -0.053422)
(-0.0842423 -0.0178773 -0.064792)
(-0.0809164 -0.0199386 -0.0510809)
(-0.0639572 -0.0300639 -0.0468459)
(-0.0456961 -0.030703 -0.0382121)
(-0.0235584 -0.0206485 -0.0243464)
(-0.000501785 -0.000806307 -0.00568991)
(0.0201597 0.0256787 0.0159817)
(0.0346645 0.0537893 0.0372638)
(0.0391454 0.0780282 0.0534419)
(0.03137 0.0943448 0.0601621)
(0.0126064 0.101175 0.055656)
(-0.0125676 0.0988322 0.041566)
(-0.0384852 0.0884044 0.0217946)
(-0.0605197 0.0713491 0.000698126)
(-0.0760665 0.0496296 -0.0182065)
(-0.084584 0.0258713 -0.0327382)
(-0.0823709 0.00378977 -0.0411828)
(-0.0720162 -0.00513978 -0.0204722)
(-0.057317 -0.0183209 -0.0207715)
(-0.0414215 -0.0209371 -0.0177079)
(-0.0224336 -0.0119901 -0.0101794)
(-0.00300413 0.00770874 0.00200732)
(0.0139804 0.0352084 0.0178049)
(0.0253444 0.0656397 0.0345936)
(0.0278561 0.0933525 0.0484845)
(0.0197143 0.113535 0.0556788)
(0.00230262 0.123485 0.054424)
(-0.0199977 0.122693 0.0458067)
(-0.0420115 0.112117 0.0327801)
(-0.059839 0.0936191 0.0185414)
(-0.0716414 0.0697153 0.00545217)
(-0.0773916 0.0435185 -0.00528948)
(-0.0742978 0.0189737 -0.0129906)
(-0.056651 0.00312365 0.00742502)
(-0.0451098 -0.0112442 0.000691708)
(-0.0323056 -0.0148817 -0.00324196)
(-0.0175625 -0.00679336 -0.00275304)
(-0.00334359 0.0126451 0.00294095)
(0.00795527 0.0410979 0.013324)
(0.0141948 0.0740579 0.0263741)
(0.0136228 0.105478 0.03894)
(0.00565207 0.129264 0.0479306)
(-0.00820169 0.141225 0.051769)
(-0.0246147 0.140146 0.0507795)
(-0.0400063 0.127487 0.0464015)
(-0.0519272 0.10623 0.0400864)
(-0.0594503 0.0798622 0.0327162)
(-0.0627135 0.0519676 0.0245728)
(-0.0597297 0.0263837 0.0158612)
(-0.0285757 -0.0222586 0.0275447)
(-0.0271507 -0.0451291 0.0114805)
(-0.0260045 -0.0538704 -0.00158548)
(-0.0250081 -0.0459849 -0.00777385)
(-0.0249367 -0.0224718 -0.00543481)
(-0.0258935 0.0121915 0.00427184)
(-0.0275277 0.0513711 0.0182119)
(-0.0294061 0.0881033 0.0326772)
(-0.0311854 0.116637 0.0447453)
(-0.0325919 0.133355 0.0530352)
(-0.033348 0.136955 0.057727)
(-0.0332661 0.127999 0.0597821)
(-0.0324768 0.108208 0.0598849)
(-0.0314858 0.0799975 0.057713)
(-0.0307187 0.0465279 0.0519746)
(-0.0286966 0.012216 0.0415247)
(-0.00415229 -0.0249087 0.046668)
(-0.00374854 -0.0444197 0.0246737)
(-0.00493557 -0.0510345 0.00594215)
(-0.00753214 -0.0429439 -0.00534268)
(-0.0114769 -0.0209326 -0.00718064)
(-0.0161176 0.0115887 -5.67241e-05)
(-0.0206072 0.0492025 0.013711)
(-0.0242599 0.0854861 0.0309831)
(-0.0265762 0.114285 0.048815)
(-0.027154 0.131054 0.0650501)
(-0.0257492 0.13377 0.0783684)
(-0.0225088 0.122955 0.0878616)
(-0.0181273 0.10098 0.0925495)
(-0.0136664 0.0712224 0.0912295)
(-0.00989832 0.0375343 0.0827714)
(-0.00614028 0.0041835 0.0670279)
(0.0168482 -0.0354967 0.0515832)
(0.0176821 -0.0502682 0.0251969)
(0.0157648 -0.0538737 0.00239225)
(0.0115331 -0.0446212 -0.0119408)
(0.00528013 -0.023446 -0.0154587)
(-0.00190116 0.00619491 -0.00845444)
(-0.00858185 0.0391087 0.00691929)
(-0.0135307 0.069419 0.027558)
(-0.0159229 0.0918242 0.0502519)
(-0.0153894 0.102806 0.0721597)
(-0.0120993 0.101364 0.0909217)
(-0.00680631 0.088832 0.104512)
(-0.000683314 0.0679596 0.111121)
(0.00505479 0.0418664 0.109246)
(0.00974744 0.0134412 0.0979627)
(0.0144407 -0.0145128 0.0776424)
(0.0307805 -0.0511198 0.041678)
(0.0332928 -0.0601062 0.0130621)
(0.0323469 -0.0595818 -0.011202)
(0.0287045 -0.0483936 -0.0259278)
(0.0225441 -0.027757 -0.0287103)
(0.015067 -0.00110379 -0.0198961)
(0.00799091 0.0266765 -0.00175853)
(0.00286325 0.0502838 0.0223583)
(0.000664296 0.0652949 0.0487979)
(0.00160358 0.0693273 0.0740787)
(0.00508315 0.0626103 0.0951187)
(0.00995458 0.0475234 0.109369)
(0.0150566 0.0273234 0.114898)
(0.0195999 0.00488579 0.110478)
(0.0234244 -0.017838 0.0956437)
(0.0284747 -0.0392891 0.0711071)
(0.035933 -0.0689232 0.0189787)
(0.0404866 -0.0726099 -0.00996567)
(0.0418382 -0.0678551 -0.0330206)
(0.0407727 -0.0543762 -0.0454493)
(0.0370994 -0.0338289 -0.0452175)
(0.0317459 -0.00968433 -0.0329323)
(0.0262985 0.0134293 -0.0110935)
(0.0222468 0.0307951 0.0166201)
(0.0204621 0.0388951 0.0460241)
(0.020902 0.0365123 0.0729665)
(0.0226999 0.0250505 0.0937867)
(0.0247365 0.00774037 0.105752)
(0.0263851 -0.0119116 0.107294)
(0.0276876 -0.0313637 0.0979901)
(0.0291933 -0.0493237 0.0782952)
(0.0336768 -0.064879 0.0494454)
(0.0324817 -0.0855621 -0.0127559)
(0.038589 -0.0854962 -0.040469)
(0.0428273 -0.0774879 -0.0600904)
(0.0455679 -0.0620716 -0.0679755)
(0.0460891 -0.0413291 -0.062847)
(0.0447018 -0.0188454 -0.0457497)
(0.0424545 0.00087778 -0.0194914)
(0.040438 0.013568 0.0118601)
(0.039221 0.0165039 0.0435383)
(0.0385195 0.0094966 0.0707209)
(0.0374216 -0.00511696 0.0892922)
(0.0351932 -0.0236327 0.0966153)
(0.0320527 -0.0426294 0.0918718)
(0.0290107 -0.0599706 0.0758523)
(0.0273301 -0.0746773 0.0503032)
(0.0301404 -0.0859844 0.0173992)
(0.0215992 -0.0982199 -0.0488146)
(0.0285663 -0.0962939 -0.0737468)
(0.0356294 -0.0866845 -0.0882947)
(0.0425016 -0.070281 -0.0901651)
(0.0479253 -0.0493529 -0.0790013)
(0.051423 -0.0275981 -0.0563781)
(0.0532261 -0.00954931 -0.025483)