/*--------------------------------*- C++ -*----------------------------------*\
| =========                 |                                                 |
| \\      /  F ield         | OpenFOAM: The Open Source CFD Toolbox           |
|  \\    /   O peration     | Version:  3.0.0                                 |
|   \\  /    A nd           | Web:      www.OpenFOAM.org                      |
|    \\/     M anipulation  |                                                 |
\*---------------------------------------------------------------------------*/
FoamFile
{
    version     2.0;
    format      ascii;
    class       volScalarField;
    location    "7.5";
    object      k;
}
// * * * * * * * * * * * * * * * * * * * * * * * * * * * * * * * * * * * * * //

dimensions      [0 2 -2 0 0 0 0];

internalField   nonuniform List<scalar> 
400
(
1.19235e-06
2.52759e-06
9.46309e-06
9.49683e-05
0.000320657
0.000513185
0.000606625
0.00065167
0.000665034
0.000665144
0.000624147
0.000587887
0.000527058
0.000474978
0.000410639
0.000351684
0.000290988
0.000229531
0.00016081
9.65188e-05
4.08131e-06
1.59315e-05
5.94064e-05
0.000185724
0.000291197
0.000335005
0.000346563
0.000349575
0.000350549
0.000359513
0.00037286
0.00040041
0.000429247
0.000460018
0.000491025
0.000512467
0.000521052
0.000521491
0.000476097
0.000437822
1.27592e-05
6.45473e-05
0.000146839
0.000226857
0.000287235
0.000316746
0.000343961
0.000371568
0.000415133
0.000450059
0.000484596
0.000508117
0.000532074
0.000561928
0.000598905
0.000643868
0.000682595
0.000699233
0.00073707
0.000866632
3.7242e-05
0.000114645
0.000182033
0.000244807
0.000296031
0.000334167
0.000382574
0.000424708
0.000454923
0.000477896
0.000497509
0.000512518
0.000535594
0.000565815
0.000613418
0.000675282
0.000755847
0.000820334
0.000863936
0.00114097
6.97121e-05
0.000142897
0.000205692
0.00026394
0.000313123
0.000351579
0.000383743
0.000398747
0.000400089
0.000382726
0.000376158
0.000376456
0.000408437
0.000453667
0.000532679
0.000641885
0.000772684
0.000899002
0.000984247
0.00135317
0.000106008
0.000161969
0.000216545
0.000271906
0.00032011
0.000345181
0.000354247
0.000319467
0.000279617
0.000255008
0.000244596
0.00024286
0.000268798
0.000320145
0.000406361
0.000544365
0.000742673
0.000936848
0.00107887
0.001512
0.000146222
0.000161814
0.000219753
0.000278919
0.000314155
0.000321645
0.000292901
0.00023778
0.000197897
0.000174685
0.000164205
0.000161959
0.000181101
0.000228062
0.000309865
0.000446037
0.00067341
0.000950834
0.00117398
0.00164844
0.000190831
0.000159284
0.000218291
0.000276904
0.000300335
0.00029327
0.000247103
0.000190136
0.000154405
0.000134428
0.000125845
0.000124374
0.0001391
0.00017612
0.000245479
0.000370044
0.000603493
0.000951215
0.00126262
0.00176214
0.000232038
0.000154613
0.000213803
0.000270393
0.000287248
0.000272653
0.000220504
0.000167384
0.000135869
0.000117744
0.000110441
0.000109853
0.000122129
0.000152486
0.000210407
0.000314932
0.00053144
0.000920342
0.00135038
0.00187026
0.000280728
0.000144555
0.000204393
0.000262678
0.000280982
0.000264016
0.000216478
0.000167962
0.000136736
0.000117166
0.000107328
0.000106428
0.00011724
0.000143777
0.00019417
0.000284476
0.000475245
0.000894528
0.0014355
0.00197213
0.000317054
0.000141251
0.000191235
0.000251324
0.000274596
0.00026215
0.000220466
0.000174419
0.000143521
0.000124063
0.000113498
0.000111012
0.000119049
0.000142516
0.000188691
0.000269666
0.000427589
0.00085664
0.00151358
0.00208027
0.000345562
0.000143922
0.000172766
0.000237341
0.000268498
0.000261486
0.00023172
0.000189065
0.000158836
0.00013985
0.000128729
0.000127092
0.000134349
0.000154641
0.000191161
0.000264116
0.000403641
0.000832214
0.00158996
0.00219682
0.000343208
0.000149509
0.000157755
0.000215062
0.000256254
0.000257483
0.000244239
0.000212886
0.000184012
0.000164886
0.000153181
0.000152329
0.000158543
0.00017655
0.000208043
0.000263825
0.000390914
0.000812504
0.00166099
0.00233483
0.000321652
0.000160124
0.000150399
0.000183374
0.00024001
0.000249744
0.000243941
0.000230005
0.000210221
0.000194912
0.0001843
0.000184459
0.000189421
0.000204055
0.000225494
0.000273501
0.000387169
0.000806623
0.00175337
0.002502
0.00026705
0.000157544
0.000143039
0.000157505
0.00020327
0.000229735
0.000235462
0.000230821
0.000221741
0.000215635
0.000210255
0.00021139
0.000215158
0.000224596
0.00024105
0.000283948
0.000394341
0.000824605
0.00187633
0.00272309
0.000155414
0.000139819
0.000133935
0.000144788
0.000176493
0.000208622
0.000220086
0.000222287
0.00022019
0.000218397
0.000218999
0.000222104
0.000224821
0.000232071
0.000248817
0.000298219
0.000425091
0.00089054
0.00204347
0.00301548
4.35723e-05
9.41538e-05
0.000111379
0.000119441
0.000136609
0.00016128
0.00017907
0.000188043
0.000193129
0.000197055
0.000200088
0.000206508
0.000214284
0.000230399
0.00026154
0.000339966
0.000510446
0.00103973
0.00232051
0.00343587
2.77974e-05
6.44363e-05
9.36801e-05
0.0001148
0.000133853
0.000154696
0.000168457
0.000180004
0.000185285
0.000195137
0.00020368
0.000221472
0.000241865
0.000286943
0.000360906
0.000534756
0.000797013
0.00144953
0.00289649
0.00408726
0.000144498
0.000309173
0.00037476
0.000405435
0.000430404
0.000466616
0.000497668
0.000552079
0.000597485
0.000680257
0.00075034
0.000880184
0.000993673
0.0012013
0.001366
0.00175862
0.00216689
0.00299527
0.00455531
0.00529212
0.00304901
0.00591723
0.00683517
0.00684555
0.00677284
0.00666446
0.00659466
0.00657967
0.00658487
0.00660506
0.00663486
0.0066893
0.00674953
0.00682243
0.00692687
0.00701509
0.00710221
0.00723356
0.00773093
0.00674149
)
;

boundaryField
{
    movingWall
    {
        type            kqRWallFunction;
        value           nonuniform List<scalar> 
20
(
0.00304901
0.00591723
0.00683517
0.00684555
0.00677284
0.00666446
0.00659466
0.00657967
0.00658487
0.00660506
0.00663486
0.0066893
0.00674953
0.00682243
0.00692687
0.00701509
0.00710221
0.00723356
0.00773093
0.00674149
)
;
    }
    fixedWalls
    {
        type            kqRWallFunction;
        value           nonuniform List<scalar> 
60
(
1.19235e-06
4.08131e-06
1.27592e-05
3.7242e-05
6.97121e-05
0.000106008
0.000146222
0.000190831
0.000232038
0.000280728
0.000317054
0.000345562
0.000343208
0.000321652
0.00026705
0.000155414
4.35723e-05
2.77974e-05
0.000144498
0.00304901
9.65188e-05
0.000437822
0.000866632
0.00114097
0.00135317
0.001512
0.00164844
0.00176214
0.00187026
0.00197213
0.00208027
0.00219682
0.00233483
0.002502
0.00272309
0.00301548
0.00343587
0.00408726
0.00529212
0.00674149
1.19235e-06
2.52759e-06
9.46309e-06
9.49683e-05
0.000320657
0.000513185
0.000606625
0.00065167
0.000665034
0.000665144
0.000624147
0.000587887
0.000527058
0.000474978
0.000410639
0.000351684
0.000290988
0.000229531
0.00016081
9.65188e-05
)
;
    }
    frontAndBack
    {
        type            empty;
    }
}


// ************************************************************************* //
