/*--------------------------------*- C++ -*----------------------------------*\
| =========                 |                                                 |
| \\      /  F ield         | OpenFOAM: The Open Source CFD Toolbox           |
|  \\    /   O peration     | Version:  3.0.0                                 |
|   \\  /    A nd           | Web:      www.OpenFOAM.org                      |
|    \\/     M anipulation  |                                                 |
\*---------------------------------------------------------------------------*/
FoamFile
{
    version     2.0;
    format      ascii;
    class       volScalarField;
    location    "7.5";
    object      nut;
}
// * * * * * * * * * * * * * * * * * * * * * * * * * * * * * * * * * * * * * //

dimensions      [0 2 -1 0 0 0 0];

internalField   nonuniform List<scalar> 
400
(
9.31416e-09
1.9742e-08
7.38629e-08
7.35218e-07
2.43085e-06
3.82379e-06
4.48326e-06
4.79747e-06
4.89023e-06
4.89099e-06
4.60575e-06
4.35183e-06
3.92234e-06
3.55105e-06
3.0877e-06
2.6585e-06
2.21188e-06
1.75464e-06
1.23722e-06
7.47105e-07
3.18727e-08
3.2847e-07
8.10482e-07
2.22955e-06
3.48057e-06
4.60904e-06
5.57369e-06
6.74651e-06
7.99518e-06
9.34685e-06
1.04261e-05
1.14784e-05
1.19357e-05
1.19411e-05
1.17581e-05
1.08427e-05
9.43392e-06
7.62643e-06
5.1416e-06
3.28411e-06
9.95588e-08
1.32522e-06
2.56773e-06
3.93091e-06
6.08063e-06
8.73283e-06
1.16144e-05
1.48061e-05
1.80469e-05
2.03771e-05
2.21841e-05
2.27771e-05
2.24424e-05
2.18081e-05
2.03851e-05
1.84095e-05
1.5407e-05
1.16383e-05
8.10794e-06
6.26526e-06
2.8991e-07
2.44858e-06
3.89556e-06
6.07442e-06
1.02709e-05
1.47553e-05
2.03794e-05
2.56764e-05
2.9775e-05
3.29026e-05
3.49927e-05
3.61726e-05
3.589e-05
3.46447e-05
3.22145e-05
2.84149e-05
2.3488e-05
1.71055e-05
1.0519e-05
8.06713e-06
5.40989e-07
3.34961e-06
5.40935e-06
9.1207e-06
1.54966e-05
2.16382e-05
2.8541e-05
3.3775e-05
3.79088e-05
3.90697e-05
3.98235e-05
4.02405e-05
4.13574e-05
4.07032e-05
3.96468e-05
3.64925e-05
3.07589e-05
2.26608e-05
1.3274e-05
9.41045e-06
8.19822e-07
4.18977e-06
6.91373e-06
1.2328e-05
2.05695e-05
2.74492e-05
3.47817e-05
3.67405e-05
3.75487e-05
3.79908e-05
3.84825e-05
3.88878e-05
4.09154e-05
4.21054e-05
4.27789e-05
4.17072e-05
3.74347e-05
2.81114e-05
1.61447e-05
1.03892e-05
1.12653e-06
4.6099e-06
8.21653e-06
1.54721e-05
2.4477e-05
3.11838e-05
3.61031e-05
3.53474e-05
3.53162e-05
3.49441e-05
3.48846e-05
3.50645e-05
3.7036e-05
3.9677e-05
4.20735e-05
4.28236e-05
4.07484e-05
3.28436e-05
1.91624e-05
1.12127e-05
1.46408e-06
4.84284e-06
9.31574e-06
1.78349e-05
2.68398e-05
3.29442e-05
3.60639e-05
3.41723e-05
3.36646e-05
3.29786e-05
3.27766e-05
3.29284e-05
3.4667e-05
3.7631e-05
4.10368e-05
4.33012e-05
4.2882e-05
3.67631e-05
2.23851e-05
1.18873e-05
1.77341e-06
4.99072e-06
1.00011e-05
1.89754e-05
2.78445e-05
3.3612e-05
3.57756e-05
3.3771e-05
3.3209e-05
3.23124e-05
3.19987e-05
3.21495e-05
3.35913e-05
3.63444e-05
3.96328e-05
4.2001e-05
4.27705e-05
3.88372e-05
2.52947e-05
1.25194e-05
2.13593e-06
4.7626e-06
1.02528e-05
1.9572e-05
2.83994e-05
3.41036e-05
3.64888e-05
3.53299e-05
3.45742e-05
3.33866e-05
3.23465e-05
3.21811e-05
3.34472e-05
3.59665e-05
3.89126e-05
4.09319e-05
4.22374e-05
4.04405e-05
2.85414e-05
1.31067e-05
2.40431e-06
4.43121e-06
9.86915e-06
1.87455e-05
2.75947e-05
3.36302e-05
3.66244e-05
3.6057e-05
3.54787e-05
3.45359e-05
3.38029e-05
3.33113e-05
3.40678e-05
3.60592e-05
3.86366e-05
4.00938e-05
4.01195e-05
4.04764e-05
3.10483e-05
1.37219e-05
2.61371e-06
3.97416e-06
8.7687e-06
1.74411e-05
2.63487e-05
3.26141e-05
3.68641e-05
3.71117e-05
3.69312e-05
3.64939e-05
3.6002e-05
3.55716e-05
3.61248e-05
3.74336e-05
3.85171e-05
3.95467e-05
3.87331e-05
4.02004e-05
3.36296e-05
1.43754e-05
2.59646e-06
3.43907e-06
7.54533e-06
1.51951e-05
2.38171e-05
3.01649e-05
3.56237e-05
3.76977e-05
3.81044e-05
3.81605e-05
3.81444e-05
3.78368e-05
3.79774e-05
3.84696e-05
3.84231e-05
3.76674e-05
3.75948e-05
3.95437e-05
3.54659e-05
1.51372e-05
2.43817e-06
2.95994e-06
6.2999e-06
1.19957e-05
2.08595e-05
2.70739e-05
3.22595e-05
3.6182e-05
3.80387e-05
3.87737e-05
3.91295e-05
3.89745e-05
3.87386e-05
3.85492e-05
3.72637e-05
3.60109e-05
3.53871e-05
3.82994e-05
3.61416e-05
1.60432e-05
2.03443e-06
2.46388e-06
4.9384e-06
8.90685e-06
1.56244e-05
2.20152e-05
2.70119e-05
3.07309e-05
3.33653e-05
3.51563e-05
3.64063e-05
3.65152e-05
3.63279e-05
3.57194e-05
3.43947e-05
3.32488e-05
3.31774e-05
3.68856e-05
3.6874e-05
1.72143e-05
1.19632e-06
1.91712e-06
3.64268e-06
6.81599e-06
1.16517e-05
1.73803e-05
2.19682e-05
2.54446e-05
2.7999e-05
2.9493e-05
3.10376e-05
3.14126e-05
3.12495e-05
3.07317e-05
3.0013e-05
2.99273e-05
3.12095e-05
3.57205e-05
3.70075e-05
1.87188e-05
3.38983e-07
1.32438e-06
2.5429e-06
4.17284e-06
6.75677e-06
1.03529e-05
1.40391e-05
1.71112e-05
1.97767e-05
2.15175e-05
2.30138e-05
2.37164e-05
2.41764e-05
2.46782e-05
2.53265e-05
2.71054e-05
2.99992e-05
3.46359e-05
3.69933e-05
2.08006e-05
2.16585e-07
1.06356e-06
2.12365e-06
3.49659e-06
5.25789e-06
7.47429e-06
9.65991e-06
1.17647e-05
1.35049e-05
1.51643e-05
1.65505e-05
1.78929e-05
1.90283e-05
2.10171e-05
2.33748e-05
2.75156e-05
3.09969e-05
3.43027e-05
3.70874e-05
2.38569e-05
1.11343e-06
5.98678e-06
7.9344e-06
9.58188e-06
1.13688e-05
1.35318e-05
1.54928e-05
1.79369e-05
1.95712e-05
2.20323e-05
2.36312e-05
2.60913e-05
2.77704e-05
3.02187e-05
3.18651e-05
3.46605e-05
3.56118e-05
3.5315e-05
3.80712e-05
2.90554e-05
1.88885e-05
3.15586e-05
3.50317e-05
3.50692e-05
3.48021e-05
3.44016e-05
3.4142e-05
3.40861e-05
3.41055e-05
3.41807e-05
3.42915e-05
3.44935e-05
3.4716e-05
3.49842e-05
3.53661e-05
3.56866e-05
3.60013e-05
3.64724e-05
3.8221e-05
3.46868e-05
)
;

boundaryField
{
    movingWall
    {
        type            nutkWallFunction;
        Cmu             0.09;
        kappa           0.41;
        E               9.8;
        value           nonuniform List<scalar> 
20
(
0
0
0
0
0
0
0
0
0
0
0
0
0
0
0
0
6.61151e-09
7.91905e-08
3.47322e-07
0
)
;
    }
    fixedWalls
    {
        type            nutkWallFunction;
        Cmu             0.09;
        kappa           0.41;
        E               9.8;
        value           uniform 0;
    }
    frontAndBack
    {
        type            empty;
    }
}


// ************************************************************************* //
