/*--------------------------------*- C++ -*----------------------------------*\
| =========                 |                                                 |
| \\      /  F ield         | OpenFOAM: The Open Source CFD Toolbox           |
|  \\    /   O peration     | Version:  3.0.0                                 |
|   \\  /    A nd           | Web:      www.OpenFOAM.org                      |
|    \\/     M anipulation  |                                                 |
\*---------------------------------------------------------------------------*/
FoamFile
{
    version     2.0;
    format      ascii;
    class       volScalarField;
    location    "7.5";
    object      omega;
}
// * * * * * * * * * * * * * * * * * * * * * * * * * * * * * * * * * * * * * //

dimensions      [0 0 -1 0 0 0 0];

internalField   nonuniform List<scalar> 
400
(
128.015
128.031
128.117
129.17
131.912
134.208
135.309
135.836
135.992
135.994
135.515
135.09
134.373
133.757
132.992
132.287
131.557
130.814
129.978
129.191
128.051
48.5022
73.2976
83.3011
83.6634
72.6844
62.1783
51.8157
43.845
38.4635
35.7621
34.8838
35.9631
38.5239
41.7607
47.2639
55.2318
68.3795
92.597
133.315
128.158
48.7067
57.1862
57.7109
47.2377
36.2706
29.615
25.0956
23.003
22.0865
21.8443
22.3082
23.7084
25.767
29.3795
34.9748
44.3042
60.0803
90.9072
138.323
128.46
46.821
46.7284
40.3013
28.8224
22.6472
18.7725
16.5408
15.2787
14.5246
14.2175
14.1687
14.9232
16.3319
19.0417
23.7651
32.1802
47.9574
82.1308
141.434
128.86
42.6608
38.0253
28.9386
20.206
16.2481
13.4453
11.806
10.554
9.79598
9.44562
9.35515
9.87579
11.1457
13.4356
17.5895
25.1207
39.6722
74.1486
143.794
129.306
38.6581
31.321
22.0559
15.5623
12.5753
10.1849
8.69522
7.44679
6.71237
6.35603
6.24514
6.56962
7.60341
9.4991
13.052
19.8392
33.3262
66.8253
145.536
129.799
35.1015
26.7452
18.0273
12.8347
10.3145
8.11289
6.72696
5.60356
4.99897
4.70709
4.61889
4.88986
5.74796
7.36486
10.4157
16.5261
28.9503
61.2649
147.015
130.342
32.8906
23.4325
15.5259
11.1899
8.90203
6.85183
5.56405
4.58657
4.07622
3.83947
3.77711
4.01245
4.68018
5.98192
8.5458
14.0734
25.8742
56.4045
148.237
130.843
30.9802
21.3781
14.2497
10.3161
8.11178
6.16353
4.95643
4.09133
3.64392
3.45143
3.41693
3.63572
4.19559
5.30891
7.49819
12.4254
23.6974
53.3858
149.389
131.432
30.3521
19.9353
13.4211
9.89393
7.74161
5.93274
4.7541
3.95484
3.50939
3.31808
3.30717
3.50521
3.99753
4.9899
6.94999
11.2517
22.1196
50.2954
150.467
131.869
31.8763
19.377
13.4072
9.95104
7.79506
6.01965
4.83732
4.04528
3.59229
3.35763
3.33256
3.49449
3.95227
4.88375
6.72586
10.6579
21.1639
48.7491
151.603
132.211
36.2145
19.7026
13.6081
10.1902
8.01757
6.28578
5.09449
4.30087
3.83214
3.5756
3.57284
3.71901
4.13109
4.96303
6.67858
10.4211
20.7017
47.2785
152.818
132.183
43.4738
20.9077
14.1534
10.7592
8.53586
6.85609
5.6472
4.82917
4.32087
4.0158
4.02594
4.17466
4.58935
5.41454
7.00406
10.3981
20.547
46.8335
154.244
131.924
54.0969
23.8733
15.2866
11.506
9.22451
7.56182
6.3569
5.5265
5.02691
4.70999
4.73281
4.88973
5.29336
6.05129
7.59494
10.941
21.061
48.5139
155.954
131.266
63.9412
28.9647
17.6836
13.0098
10.4353
8.71698
7.51102
6.64585
6.13362
5.77523
5.7891
5.92268
6.2878
7.00836
8.54011
11.8858
22.3558
50.8849
158.187
129.91
72.932
36.7682
21.2424
15.1474
12.0033
10.0184
8.73608
7.8642
7.40505
7.05593
7.07053
7.19439
7.55152
8.2903
9.96477
13.6206
24.9308
55.2178
161.093
128.539
71.0926
43.7999
28.6234
20.2182
15.5782
12.7551
10.9895
9.76547
9.15787
8.69428
8.70738
8.86335
9.33615
10.3267
12.5424
17.0153
30.019
62.7279
165.182
128.344
60.5856
44.1127
32.8321
25.4576
20.697
17.4388
15.3003
13.7199
12.8682
12.3066
12.3776
12.7108
13.6528
15.44
19.4346
25.7127
42.257
78.0991
171.324
129.778
51.6425
47.2323
42.3127
37.8583
34.4829
32.1226
30.7789
30.5288
30.8754
31.7521
33.7348
35.7817
39.7535
42.8681
50.7385
60.8474
84.8159
119.652
182.139
161.421
187.5
195.114
195.201
194.61
193.726
193.154
193.031
193.074
193.239
193.484
193.929
194.421
195.015
195.862
196.575
197.277
198.33
202.269
194.353
)
;

boundaryField
{
    movingWall
    {
        Cmu             0.09;
        kappa           0.41;
        E               9.8;
        beta1           0.075;
        type            omegaWallFunction;
        value           nonuniform List<scalar> 
20
(
161.421
187.5
195.114
195.201
194.61
193.726
193.154
193.031
193.074
193.239
193.484
193.929
194.421
195.015
195.862
196.575
197.277
198.33
202.269
194.353
)
;
    }
    fixedWalls
    {
        Cmu             0.09;
        kappa           0.41;
        E               9.8;
        beta1           0.075;
        type            omegaWallFunction;
        value           nonuniform List<scalar> 
60
(
128.015
128.051
128.158
128.46
128.86
129.306
129.799
130.342
130.843
131.432
131.869
132.211
132.183
131.924
131.266
129.91
128.539
128.344
129.778
161.421
129.191
133.315
138.323
141.434
143.794
145.536
147.015
148.237
149.389
150.467
151.603
152.818
154.244
155.954
158.187
161.093
165.182
171.324
182.139
194.353
128.015
128.031
128.117
129.17
131.912
134.208
135.309
135.836
135.992
135.994
135.515
135.09
134.373
133.757
132.992
132.287
131.557
130.814
129.978
129.191
)
;
    }
    frontAndBack
    {
        type            empty;
    }
}


// ************************************************************************* //
