/*--------------------------------*- C++ -*----------------------------------*\
| =========                 |                                                 |
| \\      /  F ield         | OpenFOAM: The Open Source CFD Toolbox           |
|  \\    /   O peration     | Version:  3.0.0                                 |
|   \\  /    A nd           | Web:      www.OpenFOAM.org                      |
|    \\/     M anipulation  |                                                 |
\*---------------------------------------------------------------------------*/
FoamFile
{
    version     2.0;
    format      ascii;
    class       volScalarField;
    location    "7.5";
    object      p;
}
// * * * * * * * * * * * * * * * * * * * * * * * * * * * * * * * * * * * * * //

dimensions      [0 2 -2 0 0 0 0];

internalField   nonuniform List<scalar> 
400
(
4.35348e-08
-9.19356e-05
-0.000203253
-0.00021418
-0.0006155
-0.00194047
-0.00387751
-0.00582573
-0.007435
-0.00853379
-0.00903411
-0.00883152
-0.00788028
-0.00616212
-0.00366253
-0.000487385
0.00308257
0.00634727
0.00841312
0.00889846
1.63959e-05
-6.33437e-05
-0.000153344
-0.000577895
-0.00159791
-0.00321927
-0.00508565
-0.00686895
-0.00836458
-0.00938616
-0.00984118
-0.00967183
-0.00885028
-0.00731237
-0.00505086
-0.00210533
0.00128862
0.00461598
0.00705215
0.00825536
0.00026978
-1.55785e-05
-0.00058949
-0.00165943
-0.00326137
-0.00513307
-0.00698873
-0.00868289
-0.0100432
-0.0109122
-0.0112624
-0.0110696
-0.0103182
-0.00899572
-0.00709226
-0.0046215
-0.00167611
0.00149706
0.00433975
0.0060664
0.000305352
-0.000282227
-0.00147434
-0.00322877
-0.00526771
-0.00728468
-0.0090909
-0.0105615
-0.0116273
-0.0122894
-0.0125354
-0.0123483
-0.0117114
-0.0106184
-0.0090691
-0.00707304
-0.00465025
-0.00187571
0.000884895
0.00270263
-0.000309897
-0.00116068
-0.00284426
-0.00504079
-0.00726007
-0.00922968
-0.0108529
-0.0120957
-0.0129656
-0.0134859
-0.0136595
-0.0134804
-0.0129401
-0.012038
-0.0107836
-0.00919076
-0.00726168
-0.0049909
-0.00258644
-0.000906678
-0.00161722
-0.00260849
-0.0045461
-0.00683945
-0.00901298
-0.0108267
-0.0122547
-0.0133171
-0.0140515
-0.0144773
-0.0146057
-0.014439
-0.0139778
-0.0132267
-0.0122003
-0.0109184
-0.00939259
-0.00759795
-0.00575326
-0.00421193
-0.00331863
-0.00434898
-0.00628474
-0.0084567
-0.0104641
-0.0120873
-0.0133439
-0.0142685
-0.014902
-0.0152627
-0.0153649
-0.0152147
-0.014818
-0.0141838
-0.0133294
-0.0122775
-0.0110637
-0.00965244
-0.00828315
-0.00696997
-0.0050152
-0.00596797
-0.00777061
-0.00977602
-0.0115896
-0.0130349
-0.0141535
-0.0149742
-0.0155337
-0.0158496
-0.0159372
-0.0158042
-0.0154584
-0.0149116
-0.0141841
-0.0132953
-0.0123111
-0.0111822
-0.0101779
-0.00907355
-0.00634889
-0.00722379
-0.00887211
-0.0107255
-0.0123738
-0.0136798
-0.014698
-0.0154465
-0.0159562
-0.0162431
-0.0163226
-0.0162033
-0.0158942
-0.0154074
-0.0147666
-0.0139809
-0.01316
-0.0121926
-0.0114661
-0.0105277
-0.00719379
-0.00798088
-0.00950799
-0.0112594
-0.0127967
-0.0140198
-0.0149821
-0.0156915
-0.0161747
-0.0164467
-0.0165224
-0.0164112
-0.0161229
-0.0156688
-0.0150766
-0.0143313
-0.0136442
-0.0126981
-0.0122309
-0.0113291
-0.00747789
-0.00821663
-0.00966079
-0.0113651
-0.0128562
-0.0140591
-0.0150083
-0.0157117
-0.0161918
-0.0164628
-0.0165383
-0.016428
-0.0161434
-0.0156933
-0.015112
-0.0143463
-0.0137679
-0.0127058
-0.012512
-0.011493
-0.00720307
-0.007939
-0.0093374
-0.0110402
-0.0125504
-0.0137894
-0.0147702
-0.0155032
-0.0160059
-0.016291
-0.0163707
-0.0162542
-0.0159548
-0.0154807
-0.0148619
-0.014081
-0.0134454
-0.0123059
-0.0123307
-0.0110273
-0.00646528
-0.00724241
-0.008627
-0.0103104
-0.0118938
-0.0132086
-0.0142608
-0.0150586
-0.0156117
-0.0159282
-0.0160185
-0.0158901
-0.0155583
-0.0150298
-0.0143416
-0.0134962
-0.0127217
-0.0115628
-0.0116166
-0.0100116
-0.00551825
-0.00629368
-0.00761676
-0.00920785
-0.0108621
-0.0122873
-0.0134577
-0.0143634
-0.015001
-0.0153711
-0.0154827
-0.0153402
-0.0149614
-0.0143514
-0.0135571
-0.0125871
-0.0116403
-0.0104454
-0.0103984
-0.00855737
-0.00462872
-0.00530415
-0.00643749
-0.00783977
-0.00945862
-0.0110072
-0.012344
-0.0134069
-0.0141694
-0.0146216
-0.0147711
-0.0146187
-0.0141834
-0.0134689
-0.0125304
-0.0113805
-0.0102273
-0.00892205
-0.00871322
-0.00667524
-0.00412911
-0.00445247
-0.00514332
-0.00622667
-0.00771425
-0.00936704
-0.0109078
-0.0121793
-0.0131159
-0.0136886
-0.0139017
-0.0137533
-0.0132648
-0.0124341
-0.0113209
-0.00994341
-0.008522
-0.00698065
-0.00651483
-0.00406602
-0.00408905
-0.00387384
-0.00383937
-0.00445228
-0.00574229
-0.0074509
-0.00919462
-0.0107085
-0.0118687
-0.012613
-0.0129354
-0.012827
-0.0123023
-0.0113586
-0.0100544
-0.00840301
-0.00660572
-0.00461234
-0.0035057
0.000455696
-0.00361672
-0.0031842
-0.00246751
-0.00261304
-0.00372389
-0.00547549
-0.00738542
-0.00910388
-0.0104798
-0.0114163
-0.0118777
-0.0118419
-0.0113309
-0.0103334
-0.00887069
-0.0069265
-0.00461023
-0.00175971
0.00101193
0.00916335
-0.00430021
-0.00283723
-0.00138493
-0.00118379
-0.0022131
-0.00399158
-0.0060136
-0.00789814
-0.00943972
-0.0105283
-0.0111096
-0.0111714
-0.0106957
-0.00966892
-0.00805631
-0.00575788
-0.00268149
0.00177464
0.00790211
0.0226957
-0.00220038
0.000765026
0.000832872
0.000115173
-0.00120216
-0.00304187
-0.00512784
-0.00713099
-0.00878241
-0.00995511
-0.0105885
-0.0106677
-0.0101692
-0.0090741
-0.00731703
-0.00473444
-0.00046403
0.00646126
0.0173802
0.0352619
)
;

boundaryField
{
    movingWall
    {
        type            zeroGradient;
    }
    fixedWalls
    {
        type            zeroGradient;
    }
    frontAndBack
    {
        type            empty;
    }
}


// ************************************************************************* //
