/*--------------------------------*- C++ -*----------------------------------*\
| =========                 |                                                 |
| \\      /  F ield         | OpenFOAM: The Open Source CFD Toolbox           |
|  \\    /   O peration     | Version:  3.0.0                                 |
|   \\  /    A nd           | Web:      www.OpenFOAM.org                      |
|    \\/     M anipulation  |                                                 |
\*---------------------------------------------------------------------------*/
FoamFile
{
    version     2.0;
    format      ascii;
    class       surfaceScalarField;
    location    "7.5";
    object      phi;
}
// * * * * * * * * * * * * * * * * * * * * * * * * * * * * * * * * * * * * * //

dimensions      [0 3 -1 0 0 0 0];

internalField   nonuniform List<scalar> 
760
(
2.62621e-07
-2.62625e-07
1.87817e-07
7.48042e-08
-3.24131e-07
5.11948e-07
-1.53774e-06
1.21361e-06
-3.21597e-06
1.67822e-06
-4.77148e-06
1.55551e-06
-6.06252e-06
1.29104e-06
-7.07516e-06
1.01264e-06
-7.78927e-06
7.14116e-07
-8.27976e-06
4.90493e-07
-8.52504e-06
2.45278e-07
-8.57746e-06
5.24119e-08
-8.38896e-06
-1.885e-07
-7.99885e-06
-3.90108e-07
-7.3026e-06
-6.96248e-07
-6.29003e-06
-1.01257e-06
-4.85786e-06
-1.43218e-06
-3.06546e-06
-1.79239e-06
-1.12471e-06
-1.94075e-06
-1.12471e-06
-1.44183e-07
-1.18442e-07
-9.1822e-07
8.48841e-07
-2.41995e-06
2.01367e-06
-4.16716e-06
2.96083e-06
-5.46205e-06
2.97312e-06
-6.51656e-06
2.61002e-06
-7.37743e-06
2.15191e-06
-8.02073e-06
1.65594e-06
-8.51116e-06
1.20454e-06
-8.79413e-06
7.73464e-07
-8.90626e-06
3.57407e-07
-8.80664e-06
-4.72043e-08
-8.58713e-06
-4.08008e-07
-8.1646e-06
-8.12643e-07
-7.55483e-06
-1.30601e-06
-6.66927e-06
-1.89813e-06
-5.46781e-06
-2.63364e-06
-3.83494e-06
-3.42526e-06
-1.86765e-06
-3.90804e-06
-2.99236e-06
-8.57553e-07
7.3911e-07
-2.25554e-06
2.24683e-06
-3.81079e-06
3.56893e-06
-4.97035e-06
4.12038e-06
-5.83114e-06
3.83391e-06
-6.52008e-06
3.29896e-06
-7.00659e-06
2.63842e-06
-7.30951e-06
1.95885e-06
-7.46607e-06
1.36111e-06
-7.49095e-06
7.98348e-07
-7.44416e-06
3.10612e-07
-7.3305e-06
-1.60863e-07
-7.1128e-06
-6.2571e-07
-6.77748e-06
-1.14796e-06
-6.32287e-06
-1.76062e-06
-5.69642e-06
-2.52458e-06
-4.84811e-06
-3.48195e-06
-3.66525e-06
-4.60812e-06
-2.06081e-06
-5.51249e-06
-5.05316e-06
-1.24564e-06
1.98475e-06
-2.74459e-06
3.74578e-06
-3.98167e-06
4.80601e-06
-4.78895e-06
4.92766e-06
-5.32972e-06
4.37468e-06
-5.6579e-06
3.62714e-06
-5.81827e-06
2.79879e-06
-5.90329e-06
2.04387e-06
-5.93445e-06
1.39227e-06
-5.93461e-06
7.98499e-07
-5.87769e-06
2.53697e-07
-5.75977e-06
-2.78787e-07
-5.56312e-06
-8.22358e-07
-5.2873e-06
-1.42378e-06
-4.92519e-06
-2.12274e-06
-4.46813e-06
-2.98164e-06
-3.88322e-06
-4.06685e-06
-3.05547e-06
-5.43588e-06
-1.77824e-06
-6.78972e-06
-6.8314e-06
-1.3311e-06
3.31585e-06
-2.61446e-06
5.02913e-06
-3.51334e-06
5.70489e-06
-4.0729e-06
5.48723e-06
-4.37531e-06
4.67708e-06
-4.52422e-06
3.77605e-06
-4.60372e-06
2.8783e-06
-4.65686e-06
2.09701e-06
-4.66822e-06
1.40363e-06
-4.64507e-06
7.75357e-07
-4.57659e-06
1.85211e-07
-4.45803e-06
-3.97345e-07
-4.27988e-06
-1.00051e-06
-4.04197e-06
-1.66168e-06
-3.7438e-06
-2.42091e-06
-3.38717e-06
-3.33826e-06
-2.9605e-06
-4.49352e-06
-2.38411e-06
-6.01226e-06
-1.45696e-06
-7.71688e-06
-8.28836e-06
-1.14621e-06
4.46206e-06
-2.14707e-06
6.02999e-06
-2.81177e-06
6.36959e-06
-3.19761e-06
5.87307e-06
-3.39167e-06
4.87113e-06
-3.49087e-06
3.87525e-06
-3.54965e-06
2.93708e-06
-3.58464e-06
2.132e-06
-3.58961e-06
1.40859e-06
-3.56279e-06
7.48534e-07
-3.49867e-06
1.21099e-07
-3.39348e-06
-5.0254e-07
-3.24171e-06
-1.15228e-06
-3.04215e-06
-1.86125e-06
-2.79816e-06
-2.66491e-06
-2.51811e-06
-3.61831e-06
-2.21633e-06
-4.7953e-06
-1.83474e-06
-6.39385e-06
-1.13127e-06
-8.42034e-06
-9.41963e-06
-8.89592e-07
5.35165e-06
-1.59088e-06
6.73129e-06
-2.06949e-06
6.84819e-06
-2.34147e-06
6.14505e-06
-2.48739e-06
5.01706e-06
-2.568e-06
3.95586e-06
-2.62081e-06
2.98989e-06
-2.65034e-06
2.16153e-06
-2.65656e-06
1.41481e-06
-2.63755e-06
7.29524e-07
-2.58937e-06
7.29183e-08
-2.508e-06
-5.83914e-07
-2.38965e-06
-1.27063e-06
-2.23307e-06
-2.01782e-06
-2.04194e-06
-2.85604e-06
-1.82277e-06
-3.83748e-06
-1.59161e-06
-5.02645e-06
-1.31762e-06
-6.66785e-06
-9.0729e-07
-8.83067e-06
-1.03269e-05
-5.53748e-07
5.9054e-06
-1.03446e-06
7.212e-06
-1.37684e-06
7.19057e-06
-1.564e-06
6.33221e-06
-1.6756e-06
5.12866e-06
-1.74371e-06
4.02397e-06
-1.79324e-06
3.03942e-06
-1.82229e-06
2.19057e-06
-1.83324e-06
1.42577e-06
-1.8251e-06
7.21384e-07
-1.79614e-06
4.39594e-08
-1.74309e-06
-6.36961e-07
-1.66329e-06
-1.35043e-06
-1.55463e-06
-2.12648e-06
-1.42052e-06
-2.99015e-06
-1.26789e-06
-3.99012e-06
-1.11406e-06
-5.18028e-06
-9.3621e-07
-6.84569e-06
-6.67613e-07
-9.09927e-06
-1.09945e-05
-2.86482e-07
6.19188e-06
-5.46021e-07
7.47154e-06
-7.35017e-07
7.37957e-06
-8.54137e-07
6.45133e-06
-9.3858e-07
5.2131e-06
-9.96854e-07
4.08224e-06
-1.04283e-06
3.0854e-06
-1.07204e-06
2.21978e-06
-1.08793e-06
1.44166e-06
-1.09062e-06
7.24072e-07
-1.08037e-06
3.37066e-08
-1.05579e-06
-6.61535e-07
-1.0158e-06
-1.39043e-06
-9.57445e-07
-2.18484e-06
-8.81872e-07
-3.06572e-06
-7.91842e-07
-4.08015e-06
-7.16438e-07
-5.25569e-06
-6.33922e-07
-6.92821e-06
-5.2468e-07
-9.20851e-06
-1.15192e-05
1.63953e-08
6.17549e-06
-8.49109e-08
7.57284e-06
-1.53709e-07
7.44837e-06
-2.1117e-07
6.50879e-06
-2.59822e-07
5.26176e-06
-3.0464e-07
4.12706e-06
-3.42429e-07
3.12319e-06
-3.70214e-07
2.24756e-06
-3.90279e-07
1.46173e-06
-4.03644e-07
7.37437e-07
-4.11524e-07
4.15872e-08
-4.14356e-07
-6.58703e-07
-4.12714e-07
-1.39207e-06
-4.04517e-07
-2.19303e-06
-3.92329e-07
-3.07791e-06
-3.71488e-07
-4.10099e-06
-3.87702e-07
-5.23947e-06
-3.92656e-07
-6.92326e-06
-3.74401e-07
-9.22677e-06
-1.18936e-05
2.61567e-07
5.91392e-06
3.75383e-07
7.45903e-06
4.49455e-07
7.3743e-06
4.30471e-07
6.52777e-06
4.01586e-07
5.29064e-06
3.69528e-07
4.15912e-06
3.38926e-07
3.15379e-06
3.13002e-07
2.27349e-06
2.89081e-07
1.48565e-06
2.6531e-07
7.61208e-07
2.39239e-07
6.76581e-08
2.09119e-07
-6.28583e-07
1.73489e-07
-1.35644e-06
1.30718e-07
-2.15026e-06
8.85303e-08
-3.03572e-06
-8.55625e-09
-4.0039e-06
-4.48458e-08
-5.20318e-06
-1.86141e-07
-6.78196e-06
-2.87735e-07
-9.12517e-06
-1.21814e-05
5.28805e-07
5.38511e-06
8.33749e-07
7.15408e-06
1.02438e-06
7.18366e-06
1.05264e-06
6.49952e-06
1.0478e-06
5.29548e-06
1.03577e-06
4.17114e-06
1.0208e-06
3.16877e-06
1.00334e-06
2.29094e-06
9.79687e-07
1.5093e-06
9.47548e-07
7.93348e-07
9.03365e-07
1.11841e-07
8.45184e-07
-5.70401e-07
7.69494e-07
-1.28075e-06
6.76164e-07
-2.05693e-06
5.52768e-07
-2.91232e-06
4.21549e-07
-3.87268e-06
2.33685e-07
-5.01532e-06
-2.56169e-08
-6.52266e-06
-1.58768e-07
-8.99202e-06
-1.23401e-05
7.74116e-07
4.611e-06
1.24573e-06
6.68247e-06
1.57553e-06
6.85387e-06
1.70982e-06
6.36523e-06
1.7413e-06
5.264e-06
1.75459e-06
4.15786e-06
1.75534e-06
3.16801e-06
1.74475e-06
2.30153e-06
1.71996e-06
1.5341e-06
1.67842e-06
8.3489e-07
1.61508e-06
1.75178e-07
1.52706e-06
-4.82376e-07
1.40863e-06
-1.16232e-06
1.25676e-06
-1.90506e-06
1.06427e-06
-2.71984e-06
8.47615e-07
-3.65603e-06
5.39668e-07
-4.70737e-06
2.25018e-07
-6.20801e-06
-8.98589e-09
-8.75802e-06
-1.23491e-05
1.01804e-06
3.59295e-06
1.67046e-06
6.03005e-06
2.08542e-06
6.43891e-06
2.33406e-06
6.1166e-06
2.4308e-06
5.16726e-06
2.49009e-06
4.09857e-06
2.52483e-06
3.13327e-06
2.53708e-06
2.28928e-06
2.52337e-06
1.54781e-06
2.48057e-06
8.77697e-07
2.40181e-06
2.53934e-07
2.28352e-06
-3.64089e-07
2.11921e-06
-9.9801e-07
1.90542e-06
-1.69127e-06
1.63262e-06
-2.44703e-06
1.30787e-06
-3.33128e-06
8.84129e-07
-4.28363e-06
4.75947e-07
-5.79983e-06
1.28104e-07
-8.41017e-06
-1.2221e-05
1.16811e-06
2.42484e-06
1.95211e-06
5.24605e-06
2.52693e-06
5.86409e-06
2.96566e-06
5.67787e-06
3.206e-06
4.92691e-06
3.34119e-06
3.96338e-06
3.41847e-06
3.05599e-06
3.45416e-06
2.25359e-06
3.44867e-06
1.5533e-06
3.40076e-06
9.25602e-07
3.3023e-06
3.52392e-07
3.14806e-06
-2.0985e-07
2.93209e-06
-7.82032e-07
2.64849e-06
-1.40768e-06
2.28041e-06
-2.07894e-06
1.8329e-06
-2.88377e-06
1.2781e-06
-3.72883e-06
7.41581e-07
-5.26331e-06
2.69188e-07
-7.93778e-06
-1.19518e-05
1.17121e-06
1.25363e-06
2.05641e-06
4.36085e-06
2.76818e-06
5.15232e-06
3.40023e-06
5.04581e-06
3.85266e-06
4.47448e-06
4.14347e-06
3.67257e-06
4.32342e-06
2.87604e-06
4.4243e-06
2.15271e-06
4.45564e-06
1.52197e-06
4.42252e-06
9.58724e-07
4.31874e-06
4.56169e-07
4.14235e-06
-3.34626e-08
3.87674e-06
-5.16422e-07
3.51949e-06
-1.05043e-06
3.04183e-06
-1.60129e-06
2.4526e-06
-2.29454e-06
1.74528e-06
-3.0215e-06
1.05156e-06
-4.5696e-06
4.49856e-07
-7.33608e-06
-1.1502e-05
6.45533e-07
6.08101e-07
1.80225e-06
3.20413e-06
2.83894e-06
4.11564e-06
3.73758e-06
4.14717e-06
4.45755e-06
3.75451e-06
4.97144e-06
3.15868e-06
5.31738e-06
2.5301e-06
5.52772e-06
1.94237e-06
5.62432e-06
1.42537e-06
5.62451e-06
9.58542e-07
5.52308e-06
5.57594e-07
5.3177e-06
1.71916e-07
4.99251e-06
-1.91233e-07
4.55401e-06
-6.11919e-07
3.95658e-06
-1.00386e-06
3.22526e-06
-1.56323e-06
2.3657e-06
-2.16195e-06
1.48922e-06
-3.69312e-06
6.65315e-07
-6.51217e-06
-1.08366e-05
2.97976e-08
5.78304e-07
1.03466e-06
2.19927e-06
2.24673e-06
2.90357e-06
3.47195e-06
2.92195e-06
4.52439e-06
2.70207e-06
5.34871e-06
2.33436e-06
5.94816e-06
1.93065e-06
6.35786e-06
1.53266e-06
6.59416e-06
1.18907e-06
6.68572e-06
8.66983e-07
6.63145e-06
6.1187e-07
6.46614e-06
3.37226e-07
6.15836e-06
1.16545e-07
5.7119e-06
-1.65457e-07
5.09054e-06
-3.82498e-07
4.33362e-06
-8.0631e-07
3.42063e-06
-1.24896e-06
2.40846e-06
-2.68095e-06
1.15764e-06
-5.26134e-06
-9.67901e-06
-1.09124e-06
1.66955e-06
-1.78316e-07
1.28634e-06
1.40985e-06
1.3154e-06
2.96933e-06
1.36247e-06
4.3084e-06
1.363e-06
5.40267e-06
1.24008e-06
6.25802e-06
1.07531e-06
6.90074e-06
8.89934e-07
7.35214e-06
7.37666e-07
7.63261e-06
5.8652e-07
7.77816e-06
4.66319e-07
7.78107e-06
3.34318e-07
7.66341e-06
2.34197e-07
7.39597e-06
1.01987e-07
7.01265e-06
8.18502e-10
6.47342e-06
-2.67076e-07
5.77656e-06
-5.52101e-07
4.70821e-06
-1.61259e-06
2.6567e-06
-3.20984e-06
-7.02231e-06
1.66955e-06
2.95589e-06
4.27129e-06
5.63377e-06
6.99676e-06
8.23685e-06
9.31215e-06
1.02021e-05
1.09398e-05
1.15263e-05
1.19926e-05
1.23269e-05
1.25611e-05
1.26631e-05
1.26639e-05
1.23968e-05
1.18447e-05
1.02321e-05
7.02231e-06
)
;

boundaryField
{
    movingWall
    {
        type            calculated;
        value           uniform 0;
    }
    fixedWalls
    {
        type            calculated;
        value           uniform 0;
    }
    frontAndBack
    {
        type            empty;
        value           nonuniform 0();
    }
}


// ************************************************************************* //
