/*--------------------------------*- C++ -*----------------------------------*\
| =========                 |                                                 |
| \\      /  F ield         | OpenFOAM: The Open Source CFD Toolbox           |
|  \\    /   O peration     | Version:  3.0.0                                 |
|   \\  /    A nd           | Web:      www.OpenFOAM.org                      |
|    \\/     M anipulation  |                                                 |
\*---------------------------------------------------------------------------*/
FoamFile
{
    version     2.0;
    format      ascii;
    class       volVectorField;
    location    "7.5";
    object      U;
}
// * * * * * * * * * * * * * * * * * * * * * * * * * * * * * * * * * * * * * //

dimensions      [0 1 -1 0 0 0 0];

internalField   nonuniform List<vector> 
400
(
(0.00286403 -0.00363258 0)
(0.00709529 -0.00146434 0)
(-0.000194232 0.00135003 0)
(-0.0110887 0.0072695 0)
(-0.0467191 0.0168291 0)
(-0.0856223 0.0164911 0)
(-0.111709 0.0132323 0)
(-0.135944 0.011227 0)
(-0.150475 0.00840407 0)
(-0.163258 0.00629736 0)
(-0.169333 0.00370289 0)
(-0.172228 0.00211579 0)
(-0.1715 -0.00153235 0)
(-0.164403 -0.00340357 0)
(-0.1533 -0.00747222 0)
(-0.134425 -0.0101071 0)
(-0.109573 -0.0143963 0)
(-0.0766193 -0.0162035 0)
(-0.0418352 -0.0167304 0)
(-0.00784304 -0.00337545 0)
(0.00063826 -0.00787573 0)
(-0.00681986 0.00455426 0)
(-0.0276906 0.0213186 0)
(-0.0661228 0.043931 0)
(-0.100148 0.0474937 0)
(-0.123386 0.0416151 0)
(-0.142408 0.0350798 0)
(-0.155794 0.0272602 0)
(-0.167628 0.0187731 0)
(-0.174409 0.012148 0)
(-0.178598 0.00531161 0)
(-0.17842 -0.000518795 0)
(-0.175287 -0.00728333 0)
(-0.168311 -0.0142575 0)
(-0.157417 -0.0233234 0)
(-0.141215 -0.0338641 0)
(-0.119477 -0.0466843 0)
(-0.0913267 -0.0585852 0)
(-0.0578512 -0.0611142 0)
(-0.0175036 -0.0373826 0)
(-0.006391 0.00414879 0)
(-0.0277202 0.031591 0)
(-0.0598823 0.0584591 0)
(-0.0914236 0.0714484 0)
(-0.111394 0.0676151 0)
(-0.1261 0.0589421 0)
(-0.137125 0.0470667 0)
(-0.14529 0.0351546 0)
(-0.14896 0.0255723 0)
(-0.150117 0.0156218 0)
(-0.149958 0.00681696 0)
(-0.148161 -0.00214982 0)
(-0.14534 -0.0110242 0)
(-0.139356 -0.0210007 0)
(-0.131449 -0.0326853 0)
(-0.11988 -0.0473388 0)
(-0.104597 -0.0655377 0)
(-0.0835946 -0.0862413 0)
(-0.0565079 -0.101153 0)
(-0.0214557 -0.0863215 0)
(-0.00984041 0.0277913 0)
(-0.0394353 0.0614738 0)
(-0.0712603 0.0853153 0)
(-0.0917194 0.0898 0)
(-0.103985 0.0814942 0)
(-0.112082 0.0687831 0)
(-0.116067 0.0543218 0)
(-0.117688 0.0403249 0)
(-0.118392 0.0275223 0)
(-0.11916 0.0159349 0)
(-0.118489 0.00560153 0)
(-0.116876 -0.00449522 0)
(-0.113642 -0.0147444 0)
(-0.108892 -0.0261586 0)
(-0.102447 -0.0395494 0)
(-0.0942268 -0.0562197 0)
(-0.083406 -0.0774464 0)
(-0.0681649 -0.103381 0)
(-0.0476022 -0.126732 0)
(-0.0184815 -0.124151 0)
(-0.0112091 0.0525987 0)
(-0.0424289 0.0872992 0)
(-0.0654069 0.10431 0)
(-0.0799156 0.103523 0)
(-0.0864684 0.0903386 0)
(-0.0901285 0.0743542 0)
(-0.0913861 0.0572831 0)
(-0.0926338 0.0418753 0)
(-0.0932883 0.0281068 0)
(-0.0933942 0.015737 0)
(-0.0924967 0.00431127 0)
(-0.0906987 -0.00688111 0)
(-0.0876571 -0.018418 0)
(-0.0834358 -0.0310972 0)
(-0.0780567 -0.0457675 0)
(-0.0716344 -0.0637304 0)
(-0.0639142 -0.0867214 0)
(-0.0523846 -0.117171 0)
(-0.0379801 -0.148737 0)
(-0.0158959 -0.155201 0)
(-0.00943127 0.0763283 0)
(-0.0371563 0.110178 0)
(-0.0528892 0.119954 0)
(-0.0637406 0.113134 0)
(-0.0669661 0.095612 0)
(-0.0691719 0.0769148 0)
(-0.0701266 0.0585143 0)
(-0.0713577 0.0425524 0)
(-0.0717611 0.0282703 0)
(-0.0716823 0.0152821 0)
(-0.0708056 0.00301079 0)
(-0.0691553 -0.00910598 0)
(-0.0665477 -0.0216631 0)
(-0.0629609 -0.0353597 0)
(-0.0584839 -0.0509307 0)
(-0.0532762 -0.069517 0)
(-0.0477331 -0.0927067 0)
(-0.0389709 -0.123988 0)
(-0.0318107 -0.163524 0)
(-0.00878709 -0.179481 0)
(-0.00792865 0.0973167 0)
(-0.0288677 0.126208 0)
(-0.0386993 0.130993 0)
(-0.0473523 0.11972 0)
(-0.0485957 0.0988614 0)
(-0.0506348 0.0785063 0)
(-0.0515989 0.0594368 0)
(-0.0527283 0.0430621 0)
(-0.0530403 0.0283047 0)
(-0.0530384 0.0147761 0)
(-0.0523941 0.00184455 0)
(-0.0511278 -0.0110409 0)
(-0.0490958 -0.0244659 0)
(-0.0462871 -0.0390655 0)
(-0.0427672 -0.0555135 0)
(-0.0385025 -0.0748982 0)
(-0.0347782 -0.0986493 0)
(-0.0270662 -0.13133 0)
(-0.0254562 -0.17326 0)
(-0.00656317 -0.199003 0)
(-0.00420949 0.111993 0)
(-0.0188458 0.139419 0)
(-0.025867 0.140569 0)
(-0.0320032 0.124792 0)
(-0.0322529 0.101622 0)
(-0.034225 0.0799356 0)
(-0.0351378 0.0603899 0)
(-0.0361581 0.0435923 0)
(-0.0365028 0.0284396 0)
(-0.0366313 0.014493 0)
(-0.0362839 0.00108537 0)
(-0.0354789 -0.0123565 0)
(-0.0341144 -0.0264187 0)
(-0.0321748 -0.0416804 0)
(-0.0297775 -0.0586932 0)
(-0.0264001 -0.0784847 0)
(-0.0247872 -0.1021 0)
(-0.0180508 -0.135293 0)
(-0.0208973 -0.179538 0)
(-0.00215969 -0.213989 0)
(-0.0017821 0.12175 0)
(-0.0103599 0.146404 0)
(-0.0138055 0.145333 0)
(-0.0177682 0.127676 0)
(-0.0175496 0.103261 0)
(-0.0194031 0.0810366 0)
(-0.0202317 0.0612775 0)
(-0.021138 0.0441349 0)
(-0.0215409 0.0286858 0)
(-0.0217903 0.0144315 0)
(-0.0217332 0.000699332 0)
(-0.021385 -0.0131119 0)
(-0.0207093 -0.0276067 0)
(-0.0196518 -0.0433851 0)
(-0.0185322 -0.0608946 0)
(-0.0158894 -0.0811276 0)
(-0.0166026 -0.104702 0)
(-0.0102073 -0.138332 0)
(-0.0171317 -0.183275 0)
(-0.000666792 -0.225838 0)
(0.00233785 0.124734 0)
(-0.00178204 0.151855 0)
(-0.00252537 0.149491 0)
(-0.00471886 0.130175 0)
(-0.00427181 0.105248 0)
(-0.00573046 0.0823386 0)
(-0.00635218 0.0621951 0)
(-0.0071046 0.0447135 0)
(-0.00754588 0.0290365 0)
(-0.0079108 0.0145842 0)
(-0.00813244 0.000676658 0)
(-0.00822401 -0.013316 0)
(-0.00823259 -0.027995 0)
(-0.00801437 -0.0440104 0)
(-0.00831678 -0.0617421 0)
(-0.00636975 -0.0820356 0)
(-0.00974528 -0.105455 0)
(-0.00366572 -0.13867 0)
(-0.0144447 -0.184482 0)
(0.00242676 -0.23458 0)
(0.00518987 0.122407 0)
(0.00509126 0.151369 0)
(0.0082278 0.148746 0)
(0.00789598 0.130185 0)
(0.00871301 0.105246 0)
(0.00769464 0.0826507 0)
(0.0071987 0.0626703 0)
(0.00657319 0.0451586 0)
(0.00609347 0.0294342 0)
(0.0056077 0.0149337 0)
(0.00510433 0.00100693 0)
(0.0045804 -0.0129974 0)
(0.00387403 -0.0276656 0)
(0.00330954 -0.0436859 0)
(0.00163165 -0.0614521 0)
(0.00266121 -0.0813952 0)
(-0.00332608 -0.105068 0)
(0.00259371 -0.137152 0)
(-0.0124142 -0.184263 0)
(0.00400088 -0.24094 0)
(0.00751139 0.115405 0)
(0.0129596 0.148991 0)
(0.0183245 0.147668 0)
(0.0200323 0.131405 0)
(0.0212374 0.106625 0)
(0.0208878 0.0836978 0)
(0.0206999 0.0634051 0)
(0.0203414 0.0457059 0)
(0.0199395 0.0299435 0)
(0.0193892 0.015496 0)
(0.0186158 0.00170706 0)
(0.0176686 -0.0121158 0)
(0.016232 -0.0265476 0)
(0.0148584 -0.0423064 0)
(0.0120251 -0.059788 0)
(0.0115451 -0.0792041 0)
(0.00328259 -0.102483 0)
(0.00868153 -0.133394 0)
(-0.0109079 -0.181632 0)
(0.00735808 -0.244734 0)
(0.0102695 0.1037 0)
(0.0192505 0.140235 0)
(0.0281972 0.140946 0)
(0.0320608 0.129093 0)
(0.0346988 0.104797 0)
(0.0350898 0.082749 0)
(0.0352359 0.0630756 0)
(0.0351124 0.0457698 0)
(0.0347735 0.0303439 0)
(0.0341476 0.0162162 0)
(0.0330721 0.00279407 0)
(0.0317068 -0.0106244 0)
(0.0294512 -0.0245676 0)
(0.0272955 -0.0398163 0)
(0.0230193 -0.056609 0)
(0.0210732 -0.0757225 0)
(0.010627 -0.0976009 0)
(0.0147153 -0.127873 0)
(-0.00914718 -0.177612 0)
(0.010375 -0.2467 0)
(0.0127597 0.0847021 0)
(0.0260394 0.131077 0)
(0.0382119 0.135258 0)
(0.0432041 0.126952 0)
(0.0475862 0.105845 0)
(0.0492631 0.0832934 0)
(0.0502263 0.0634232 0)
(0.0507368 0.0461601 0)
(0.0507573 0.0309726 0)
(0.0502815 0.0172086 0)
(0.0489908 0.00429564 0)
(0.0472863 -0.00851093 0)
(0.0441163 -0.0216879 0)
(0.0411648 -0.0360925 0)
(0.0351594 -0.0518904 0)
(0.0317362 -0.0701605 0)
(0.0187049 -0.0903515 0)
(0.0210045 -0.120797 0)
(-0.00691564 -0.172187 0)
(0.0150182 -0.24697 0)
(0.0146277 0.0631 0)
(0.030102 0.113576 0)
(0.0456892 0.123435 0)
(0.0543637 0.11802 0)
(0.061185 0.10135 0)
(0.0652381 0.0806117 0)
(0.067539 0.0617224 0)
(0.0688399 0.0452771 0)
(0.0691953 0.0309294 0)
(0.068847 0.0180113 0)
(0.0671921 0.00602812 0)
(0.0651292 -0.00580382 0)
(0.0608409 -0.0178138 0)
(0.0570797 -0.0309906 0)
(0.0490134 -0.0453097 0)
(0.0440526 -0.0622997 0)
(0.0278561 -0.080509 0)
(0.0280528 -0.11135 0)
(-0.00444191 -0.164825 0)
(0.0196156 -0.246576 0)
(0.0143593 0.0352691 0)
(0.0332894 0.0989896 0)
(0.0496067 0.113312 0)
(0.0614415 0.110746 0)
(0.0715236 0.0975565 0)
(0.0792463 0.079187 0)
(0.0843762 0.0611708 0)
(0.0875889 0.0452471 0)
(0.0889514 0.0315586 0)
(0.0893363 0.0194511 0)
(0.0875325 0.008518 0)
(0.0855132 -0.00213304 0)
(0.0801359 -0.0126787 0)
(0.0756979 -0.0242856 0)
(0.0653192 -0.0365978 0)
(0.0585175 -0.0516978 0)
(0.0386272 -0.0677006 0)
(0.0365053 -0.0993441 0)
(-0.00169735 -0.155844 0)
(0.0257364 -0.243718 0)
(0.000939633 0.0105156 0)
(0.0269326 0.0707375 0)
(0.0487601 0.091492 0)
(0.0654572 0.0930093 0)
(0.0805858 0.084233 0)
(0.0931027 0.0704852 0)
(0.102167 0.0560065 0)
(0.108535 0.0421585 0)
(0.111516 0.0299589 0)
(0.113345 0.019165 0)
(0.111474 0.00978724 0)
(0.109692 0.000804035 0)
(0.102935 -0.00763147 0)
(0.0976324 -0.0168712 0)
(0.0847017 -0.0261312 0)
(0.0758072 -0.0384437 0)
(0.0524473 -0.0517551 0)
(0.0478368 -0.0841815 0)
(0.00229535 -0.143499 0)
(0.0334203 -0.234304 0)
(-0.0100357 0.0179595 0)
(0.01151 0.0618661 0)
(0.0343691 0.0773765 0)
(0.0569467 0.0779247 0)
(0.0783342 0.0712159 0)
(0.0976788 0.0606363 0)
(0.112077 0.0494368 0)
(0.123403 0.0393423 0)
(0.129146 0.0302048 0)
(0.133892 0.0216217 0)
(0.133096 0.0143161 0)
(0.132572 0.00712205 0)
(0.125845 0.00103022 0)
(0.120849 -0.00597007 0)
(0.107273 -0.0121426 0)
(0.0977724 -0.0221549 0)
(0.0737272 -0.0333263 0)
(0.0674063 -0.0653816 0)
(0.0147458 -0.123341 0)
(0.0484324 -0.206368 0)
(-0.0210922 -0.00124845 0)
(-0.0176189 0.0147371 0)
(0.0124598 0.031144 0)
(0.0436898 0.0361516 0)
(0.0715458 0.0365131 0)
(0.0966839 0.033181 0)
(0.115816 0.0283342 0)
(0.132065 0.022443 0)
(0.142424 0.0177646 0)
(0.150845 0.0130519 0)
(0.154256 0.0096579 0)
(0.156604 0.00552875 0)
(0.154433 0.00296173 0)
(0.151639 -0.00152954 0)
(0.143051 -0.00442407 0)
(0.136442 -0.0112307 0)
(0.117902 -0.0187081 0)
(0.111046 -0.044733 0)
(0.0569172 -0.0884788 0)
(0.0820653 -0.153151 0)
(0.0393753 0.0794274 0)
(0.0396871 0.0488408 0)
(0.0700137 0.02986 0)
(0.0990821 0.0230035 0)
(0.125427 0.0208204 0)
(0.151681 0.0188304 0)
(0.17439 0.0169394 0)
(0.195078 0.0150567 0)
(0.211368 0.01334 0)
(0.22539 0.0118232 0)
(0.23542 0.0103339 0)
(0.243924 0.0091507 0)
(0.248811 0.00766572 0)
(0.252634 0.00657936 0)
(0.252775 0.00476263 0)
(0.250035 0.00227014 0)
(0.241164 0.00116713 0)
(0.225772 -0.00821087 0)
(0.172019 -0.0172403 0)
(0.157502 -0.0940836 0)
)
;

boundaryField
{
    movingWall
    {
        type            fixedValue;
        value           uniform (1 0 0);
    }
    fixedWalls
    {
        type            fixedValue;
        value           uniform (0 0 0);
    }
    frontAndBack
    {
        type            empty;
    }
}


// ************************************************************************* //
