/*--------------------------------*- C++ -*----------------------------------*\
| =========                 |                                                 |
| \\      /  F ield         | OpenFOAM: The Open Source CFD Toolbox           |
|  \\    /   O peration     | Version:  3.0.0                                 |
|   \\  /    A nd           | Web:      www.OpenFOAM.org                      |
|    \\/     M anipulation  |                                                 |
\*---------------------------------------------------------------------------*/
FoamFile
{
    version     2.0;
    format      ascii;
    class       surfaceScalarField;
    location    "9.75";
    object      phi;
}
// * * * * * * * * * * * * * * * * * * * * * * * * * * * * * * * * * * * * * //

dimensions      [0 3 -1 0 0 0 0];

internalField   nonuniform List<scalar> 
11520
(
7.21047e-05
2.99585e-05
4.2083e-06
-2.38037e-05
9.81262e-05
-8.27078e-06
-0.000138362
0.000157973
-2.9433e-05
-0.000248461
0.00019589
-6.09916e-05
-0.000335089
0.000202475
-9.47791e-05
-0.000385485
0.000176291
-0.000118893
-0.000395029
0.000123059
-0.000123941
-0.000366719
5.38986e-05
-0.000107287
-0.000308429
-1.75775e-05
-7.39217e-05
-0.000229838
-7.86761e-05
-3.43832e-05
-0.000139956
-0.000121539
-5.7061e-07
-4.75092e-05
-0.000143855
1.83952e-05
3.75791e-05
-0.000147541
2.06193e-05
0.000102332
-0.000134883
1.24757e-05
0.000132787
-0.000103583
5.81589e-06
-4.55297e-05
8.88862e-06
-9.03971e-05
0.00013224
-5.70917e-05
-0.000200926
0.000192282
-5.75764e-05
-0.000313903
0.000227411
-6.15619e-05
-0.000406475
0.000229607
-6.81281e-05
-0.000462626
0.00019692
-7.21915e-05
-0.000475628
0.000135755
-6.85449e-05
-0.000448093
5.87511e-05
-5.49403e-05
-0.000389257
-1.88558e-05
-3.30664e-05
-0.000310978
-8.31068e-05
-8.17067e-06
-0.000224195
-0.000124413
1.23066e-05
-0.000137752
-0.000139506
2.06895e-05
-5.93152e-05
-0.00013107
1.26481e-05
2.41663e-06
-0.000104885
-9.44234e-06
3.64127e-05
-6.55384e-05
-3.5689e-05
3.28385e-05
-1.38222e-05
-5.33804e-05
5.04448e-05
-5.66042e-05
-0.00021178
0.000243778
-8.85514e-05
-0.000322629
0.000281495
-7.36388e-05
-0.000422418
0.000281795
-5.83124e-05
-0.000492259
0.000241495
-4.40206e-05
-0.000521402
0.000166611
-2.90882e-05
-0.000508732
7.1398e-05
-1.22521e-05
-0.000461138
-2.5546e-05
5.95808e-06
-0.000389918
-0.000106184
2.33039e-05
-0.000306882
-0.000157491
3.60678e-05
-0.000222002
-0.000173431
3.92752e-05
-0.000143199
-0.000155523
2.78996e-05
-7.78593e-05
-0.000111277
8.84729e-08
-3.45563e-05
-5.06925e-05
-3.88302e-05
-2.28795e-05
1.80488e-05
-7.58992e-05
-4.93478e-05
8.97945e-05
-9.6652e-05
0.000158046
-9.50949e-05
-0.000273509
0.00034953
-8.85825e-05
-0.000372587
0.000355996
-6.08038e-05
-0.000453378
0.00031691
-3.13426e-05
-0.000502049
0.000232976
-5.59609e-06
-0.000512676
0.000117761
1.53553e-05
-0.000487836
-7.49062e-06
3.15505e-05
-0.000436054
-0.000119302
4.27904e-05
-0.000367871
-0.000198396
4.88186e-05
-0.000292902
-0.000233392
4.84265e-05
-0.000218671
-0.000222055
3.87813e-05
-0.000151466
-0.000170241
1.60714e-05
-9.81849e-05
-8.95481e-05
-2.08211e-05
-6.73326e-05
6.03946e-06
-6.54125e-05
-6.75473e-05
0.000103949
-0.00010312
-0.000103604
0.000194336
-0.000118416
0.000265816
-0.000105401
-0.000267213
0.000434078
-6.45478e-05
-0.000345437
0.000407813
-2.98136e-05
-0.000405136
0.000329959
5.08738e-06
-0.000436821
0.000205898
3.09215e-05
-0.000438414
5.57238e-05
4.62203e-05
-0.000414363
-9.30703e-05
5.1223e-05
-0.000372627
-0.000213551
4.80322e-05
-0.000321081
-0.000286315
3.94756e-05
-0.000265503
-0.000302779
2.74675e-05
-0.000209796
-0.000264699
1.09141e-05
-0.000157736
-0.000181718
-1.3768e-05
-0.000115083
-6.84882e-05
-4.82461e-05
-9.00185e-05
5.80396e-05
-8.68328e-05
-9.10171e-05
0.000181304
-0.000115361
-0.000122788
0.000287121
-0.000118958
0.000361237
-9.28118e-05
-0.000192456
0.000482877
-2.64021e-05
-0.000243492
0.000430126
9.84098e-06
-0.000281921
0.000319261
4.15163e-05
-0.000301913
0.000162425
5.95483e-05
-0.000303871
-1.37649e-05
6.13091e-05
-0.000292667
-0.000176673
4.86178e-05
-0.000273863
-0.000297582
2.66152e-05
-0.000250926
-0.000358601
2.27473e-06
-0.000224354
-0.000355067
-1.91814e-05
-0.000193508
-0.000293077
-3.70858e-05
-0.000158953
-0.000185306
-5.55123e-05
-0.000124691
-4.80623e-05
-7.78735e-05
-9.84575e-05
0.000100334
-0.000100727
-8.93735e-05
0.000241009
-0.000112683
-0.000103687
0.000356581
-0.000101487
0.000431413
-6.44923e-05
-5.8118e-05
0.000484552
2.10945e-05
-7.77782e-05
0.00041765
5.62895e-05
-9.65241e-05
0.000284245
8.04933e-05
-0.000110851
0.000106442
8.59631e-05
-0.000122718
-8.27695e-05
6.98025e-05
-0.000135619
-0.000247455
3.5214e-05
-0.000150931
-0.000358961
-8.77204e-06
-0.000165999
-0.000402874
-4.99712e-05
-0.000175123
-0.000379454
-7.92164e-05
-0.000172512
-0.000298917
-9.47043e-05
-0.000155375
-0.000176059
-0.000101215
-0.000125945
-2.73438e-05
-0.000104535
-9.16174e-05
0.000129488
-0.000104938
-6.28451e-05
0.000275718
-9.56455e-05
-4.85367e-05
0.000392573
-6.86439e-05
0.000463413
-2.39114e-05
0.000115899
0.000434722
8.12299e-05
0.000129224
0.000368022
0.000115166
0.000127232
0.000227156
0.000130219
0.00011178
4.45624e-05
0.000120664
8.08578e-05
-0.000141389
8.31798e-05
3.42456e-05
-0.000293686
2.27938e-05
-2.32525e-05
-0.000385981
-4.61702e-05
-8.15798e-05
-0.000408893
-0.000105417
-0.0001284
-0.000368061
-0.000141666
-0.000153132
-0.00027718
-0.000152154
-0.000150189
-0.000151769
-0.00014309
-0.000120618
-6.80977e-06
-0.000123129
-7.18883e-05
0.000142437
-9.69287e-05
-1.61022e-05
0.000279862
-6.3337e-05
3.44761e-05
0.000387545
-1.93028e-05
0.000446212
3.3022e-05
0.000300733
0.000340554
0.000157179
0.000344673
0.000285518
0.000189949
0.00035537
0.000154237
0.000194739
0.000332331
-1.42242e-05
0.000167679
0.000275003
-0.000179413
0.000105374
0.00018871
-0.000305523
1.59324e-05
8.60631e-05
-0.000370867
-7.97944e-05
-1.493e-05
-0.000371952
-0.000156799
-9.57646e-05
-0.000319441
-0.000198296
-0.000142157
-0.000229071
-0.00020149
-0.000147016
-0.000115261
-0.000174538
-0.000111268
1.01067e-05
-0.000129119
-4.31368e-05
0.000135908
-7.4278e-05
4.38042e-05
0.000250302
-1.43744e-05
0.000134189
0.000338143
4.89991e-05
0.000376754
0.000114078
0.000464004
0.00022256
0.000240136
0.000530999
0.000182779
0.000269855
0.00054915
7.62048e-05
0.00026395
0.000513843
-6.03123e-05
0.000218079
0.000426758
-0.000188575
0.00012941
0.000300369
-0.000277868
1.08312e-05
0.000156176
-0.000312537
-0.000109494
1.97953e-05
-0.00029518
-0.000200511
-8.54395e-05
-0.000240119
-0.000243424
-0.000143378
-0.000162907
-0.000236605
-0.000147221
-7.46751e-05
-0.00019066
-9.92288e-05
1.74431e-05
-0.000120223
-9.01183e-06
0.000107402
-3.80635e-05
0.000108785
0.000188412
4.69036e-05
0.000236352
0.00024902
0.000131113
0.000265152
0.00021534
0.000579991
0.000105751
0.000308882
0.000656703
7.88319e-05
0.000331722
0.000674707
6.52619e-06
0.000315838
0.000623747
-8.50498e-05
0.000252923
0.000508176
-0.000165565
0.000141203
0.000347836
-0.000212705
-5.06323e-07
0.00017292
-0.000218227
-0.000137582
1.51006e-05
-0.000190241
-0.000234536
-9.97795e-05
-0.000144206
-0.000272841
-0.00015617
-9.25774e-05
-0.000253334
-0.000149585
-4.09393e-05
-0.00018946
-8.49229e-05
9.56362e-06
-9.85026e-05
2.63239e-05
5.82118e-05
4.07255e-06
0.000168866
0.000102446
0.000107057
0.000324727
0.000134353
0.000207081
0.000134784
0.00031208
0.000634103
8.8616e-06
0.000342806
0.000704038
-7.65286e-06
0.000354312
0.000710993
-4.23646e-05
0.000329505
0.000641057
-8.31666e-05
0.000254117
0.000501915
-0.000112778
0.000127937
0.000320064
-0.000119529
-2.49776e-05
0.000131772
-0.00010345
-0.000165079
-2.82268e-05
-7.60566e-05
-0.000256655
-0.000134974
-5.06257e-05
-0.000283595
-0.000176322
-3.35279e-05
-0.000250189
-0.000151792
-2.32495e-05
-0.000172656
-6.94889e-05
-1.48441e-05
-7.00828e-05
5.74107e-05
-4.70269e-06
4.1075e-05
0.000213758
7.03535e-06
0.000149144
0.000382753
1.49909e-05
0.000253718
1.23192e-05
0.000370661
0.000621501
-5.91057e-05
0.000331896
0.000669004
-6.30752e-05
0.000329454
0.000652219
-6.05075e-05
0.000296102
0.000560474
-5.34781e-05
0.000214233
0.000405804
-3.84444e-05
8.56073e-05
0.000219525
-1.47405e-05
-6.21866e-05
3.95955e-05
1.02776e-05
-0.000189451
-0.000101062
2.50188e-05
-0.000263986
-0.000182408
2.18523e-05
-0.00027439
-0.000197998
2.27425e-06
-0.000228581
-0.000152016
-2.52042e-05
-0.000144573
-5.51352e-05
-5.12862e-05
-4.1676e-05
7.89899e-05
-6.99848e-05
6.45819e-05
0.000235884
-8.10508e-05
0.000163876
0.000399706
-8.76361e-05
0.000258909
-8.20112e-05
0.000370218
0.000544384
-9.41944e-05
0.000278356
0.000557205
-7.94165e-05
0.000263118
0.000507516
-4.34228e-05
0.000222681
0.00039423
5.35167e-07
0.000140976
0.000235477
4.51554e-05
2.28353e-05
6.39601e-05
8.18227e-05
-0.00010391
-8.57447e-05
0.000100424
-0.000204256
-0.00018805
9.31252e-05
-0.000253344
-0.000231298
6.00408e-05
-0.000245649
-0.00021575
9.84675e-06
-0.000191796
-0.000149597
-4.39131e-05
-0.000109909
-4.42533e-05
-9.09369e-05
-1.7623e-05
8.74508e-05
-0.000125203
7.19286e-05
0.000232021
-0.000146975
0.0001513
0.000373667
-0.000156839
0.000225094
-0.000137192
0.000312798
0.000412787
-9.28764e-05
0.000194236
0.0003841
-5.41106e-05
0.000171184
0.000299566
7.13281e-06
0.000127891
0.000170532
7.04962e-05
5.38711e-05
2.13901e-05
0.000122676
-4.26679e-05
-0.000117525
0.000151708
-0.000136869
-0.000220095
0.000150043
-0.00020224
-0.000272172
0.000116943
-0.00022317
-0.000272038
5.99541e-05
-0.000199812
-0.000226412
-7.64826e-06
-0.000144138
-0.000145081
-7.21732e-05
-7.247e-05
-3.87986e-05
-0.000124373
3.70226e-07
8.15517e-05
-0.000160354
6.47878e-05
0.000203461
-0.000180829
0.00011719
0.000311127
-0.000183762
0.000163391
-0.000149441
0.00021799
0.000246304
9.71912e-05
0.000174941
7.44787e-05
6.09225e-05
3.62808e-05
-7.34199e-05
-2.25554e-05
-0.000199708
-9.11104e-05
-0.000293215
-0.000149636
-0.000340148
-0.000180448
-0.000339417
-0.0001764
-0.0002987
-0.000142208
-0.000228743
-9.03387e-05
-0.00013958
-3.50748e-05
-3.96398e-05
1.24404e-05
6.25525e-05
4.69536e-05
0.000155749
6.94844e-05
0.000225114
8.75176e-05
0.000110836
2.47763e-05
-7.35241e-05
-4.40319e-05
-4.70429e-05
6.25193e-06
-1.9319e-05
-0.000139331
9.27827e-05
-7.81968e-06
-0.000232009
0.00016863
-1.59533e-05
-0.000307986
0.000219678
-3.86237e-05
-0.000355769
0.000238667
-6.38636e-05
-0.000370963
0.000224597
-8.007e-05
-0.000355567
0.000181778
-8.16002e-05
-0.000315563
0.000118661
-7.07766e-05
-0.000258119
4.59187e-05
-5.61901e-05
-0.00018986
-2.61101e-05
-4.82517e-05
-0.000116843
-8.99188e-05
-5.36418e-05
-4.60109e-05
-0.000139911
-7.07134e-05
1.29199e-05
-0.000170433
-8.85566e-05
4.88822e-05
-0.000173515
-9.1936e-05
-0.000140551
-7.19769e-05
-8.61739e-05
2.09879e-05
-9.32573e-05
-0.000170222
9.21302e-05
-5.94069e-05
-0.000261426
0.000155768
-3.33427e-05
-0.000340608
0.000198964
-1.92807e-05
-0.000392706
0.000213804
-1.4219e-05
-0.000409972
0.000199585
-1.21962e-05
-0.000392855
0.000161429
-8.88932e-06
-0.000348347
0.000108
-3.79634e-06
-0.000286557
4.92526e-05
-5.52866e-07
-0.000217605
-5.85159e-06
-4.87475e-06
-0.000149215
-5.11383e-05
-2.26721e-05
-8.73825e-05
-8.40676e-05
-5.50355e-05
-3.78575e-05
-0.000103723
-9.51557e-05
-7.67747e-06
-0.000107646
-0.000128656
-3.46392e-06
-9.08108e-05
-0.000140299
-4.8942e-05
-0.00012385
-0.000152756
0.000121792
-0.000116285
-0.000238862
0.000174089
-6.94907e-05
-0.000321654
0.000206668
-2.64202e-05
-0.000384402
0.000210796
6.89549e-06
-0.000415491
0.000185176
3.06288e-05
-0.000411197
0.000136142
4.68967e-05
-0.00037558
7.50595e-05
5.67103e-05
-0.000317984
1.45819e-05
5.91272e-05
-0.000249461
-3.46416e-05
5.14384e-05
-0.000179891
-6.60845e-05
2.99383e-05
-0.000116745
-7.83303e-05
-8.0546e-06
-6.57567e-05
-7.44125e-05
-6.05547e-05
-3.21704e-05
-5.87519e-05
-0.000117388
-2.14495e-05
-3.32038e-05
-0.000161062
-3.74933e-05
3.67045e-06
-0.000175089
5.23762e-05
-0.000154221
-0.000168671
0.000217714
-0.000112372
-0.000246533
0.00024516
-5.40134e-05
-0.000315749
0.000242474
2.06683e-06
-0.0003627
0.00020518
4.69716e-05
-0.00037927
0.000138599
7.85018e-05
-0.000364837
5.64089e-05
9.68502e-05
-0.000325293
-2.41238e-05
0.00010243
-0.000270013
-8.71874e-05
9.53073e-05
-0.000208312
-0.000122929
7.50132e-05
-0.00014782
-0.000127997
4.02024e-05
-9.43488e-05
-0.000105565
-1.01653e-05
-5.30108e-05
-6.37006e-05
-7.2871e-05
-2.90204e-05
-1.18576e-05
-0.000136297
-2.7303e-05
4.33269e-05
-0.000181368
-5.04337e-05
9.92982e-05
-0.000190913
0.000153777
-0.000160698
-0.000134032
0.000296353
-8.78522e-05
-0.00019434
0.000297816
-2.21621e-05
-0.000245959
0.000259569
3.96112e-05
-0.000278766
0.0001821
8.6809e-05
-0.000287689
7.80351e-05
0.000115706
-0.000274276
-3.18302e-05
0.00012605
-0.000244749
-0.000124963
0.000119344
-0.000206089
-0.000184755
9.83834e-05
-0.000163884
-0.00020346
6.57937e-05
-0.000121677
-0.000181927
2.2637e-05
-8.23322e-05
-0.000127441
-3.12374e-05
-4.95833e-05
-5.16718e-05
-9.30239e-05
-2.87757e-05
3.22342e-05
-0.000151732
-2.53666e-05
0.000113489
-0.000188932
-4.24421e-05
0.000185707
-0.000188291
0.000244326
-0.000147105
-5.34589e-05
0.000344861
-5.01822e-05
-8.80145e-05
0.000323709
1.85038e-05
-0.000119277
0.000253258
7.90904e-05
-0.000140056
0.00014137
0.000121057
-0.000148332
8.02109e-06
0.000139599
-0.000146887
-0.000119286
0.000134628
-0.000140117
-0.000215036
0.000109919
-0.000130849
-0.000263889
7.21403e-05
-0.000118985
-0.000262538
2.80324e-05
-0.000102668
-0.000216457
-1.88726e-05
-8.08906e-05
-0.0001363
-6.84308e-05
-5.5477e-05
-3.56275e-05
-0.000119331
-3.1692e-05
7.08735e-05
-0.000163151
-1.64856e-05
0.000170092
-0.000184492
-1.51194e-05
0.000252638
-0.000169783
0.000311859
-0.000118414
6.33259e-05
0.000352167
-1.59205e-06
6.09092e-05
0.000315127
6.72883e-05
5.14173e-05
0.00022062
0.000122623
3.90093e-05
8.50181e-05
0.000154723
2.33145e-05
-6.42538e-05
0.000157772
2.06022e-06
-0.000194759
0.000131942
-2.53847e-05
-0.000280687
8.4324e-05
-5.54242e-05
-0.000310916
2.70958e-05
-8.10635e-05
-0.000288018
-2.80974e-05
-9.47023e-05
-0.000222127
-7.53953e-05
-9.13054e-05
-0.000126018
-0.000114895
-7.06847e-05
-1.33126e-05
-0.000147471
-3.80728e-05
0.000101979
-0.000168656
-2.36142e-06
0.00020682
-0.000168085
2.78903e-05
0.000290388
-0.000136646
0.000343688
-7.57955e-05
0.00020282
0.000312379
6.17032e-05
0.000234951
0.00026853
0.000129633
0.0002458
0.000162518
0.000177472
0.000235833
1.91337e-05
0.000196516
0.000203566
-0.000128328
0.00017952
0.000149607
-0.000245514
0.000127507
7.96849e-05
-0.000309516
5.25802e-05
5.11056e-06
-0.000315671
-2.60883e-05
-6.00021e-05
-0.000272882
-9.16892e-05
-0.000102763
-0.00019493
-0.000136591
-0.000114882
-9.5189e-05
-0.000161799
-9.47331e-05
1.43241e-05
-0.000170915
-4.77814e-05
0.000122232
-0.000164133
1.51248e-05
0.000217819
-0.000137242
8.18127e-05
0.000290777
-8.63792e-05
0.000329139
-1.41224e-05
0.000345998
0.000230185
0.000141956
0.000410274
0.000187331
0.000206871
0.000436591
8.56281e-05
0.000245313
0.000421331
-4.59422e-05
0.000248014
0.000363892
-0.000171973
0.000206459
0.000270431
-0.000260103
0.000123983
0.000154907
-0.000293329
1.95418e-05
3.67895e-05
-0.000274347
-8.00051e-05
-6.35616e-05
-0.000217429
-0.000153398
-0.000129343
-0.000138216
-0.000192422
-0.000150424
-4.88711e-05
-0.000199775
-0.000124805
4.17101e-05
-0.000182124
-5.86138e-05
0.000126206
-0.000144443
3.56724e-05
0.000197959
-8.88009e-05
0.000142408
0.000248815
-1.57744e-05
0.000264427
7.26171e-05
0.000471025
0.000121488
0.000227778
0.000557915
8.42152e-05
0.000286081
0.000591375
2.53936e-06
0.000313578
0.000563263
-9.76341e-05
0.000297882
0.00047551
-0.000184467
0.000229657
0.000341745
-0.000232008
0.000116501
0.000184739
-0.000231173
-1.46443e-05
3.12613e-05
-0.00019145
-0.000129931
-9.38347e-05
-0.000130296
-0.000205461
-0.00017183
-6.28244e-05
-0.000234002
-0.00019252
1.94492e-06
-0.000220786
-0.000154865
5.9617e-05
-0.000175785
-6.62812e-05
0.000107936
-0.000108377
5.93268e-05
0.000145047
-2.57923e-05
0.00020456
0.000166457
6.82379e-05
0.000157679
0.000176677
0.000554931
8.08248e-06
0.000295221
0.00064911
-2.12083e-05
0.000342966
0.000678953
-7.09122e-05
0.000359447
0.000632471
-0.000124726
0.000326497
0.000515122
-0.000160658
0.000234743
0.000348091
-0.000162914
9.74307e-05
0.000161718
-0.000131411
-5.09707e-05
-1.19964e-05
-8.03673e-05
-0.000171905
-0.000146159
-2.75227e-05
-0.000241452
-0.000222518
1.52263e-05
-0.000255025
-0.000232727
4.38522e-05
-0.000221158
-0.000178056
5.96101e-05
-0.000153167
-6.78379e-05
6.5627e-05
-6.38365e-05
8.31543e-05
6.46223e-05
3.64895e-05
0.000257118
5.56091e-05
0.000143964
2.96009e-05
0.000269412
0.000580752
-9.0684e-05
0.000322384
0.000664935
-0.000108223
0.000357143
0.000679325
-0.00011922
0.000363423
0.000611698
-0.000120425
0.000317444
0.000471411
-0.000103251
0.000210818
0.000285297
-6.42213e-05
6.2443e-05
8.84845e-05
-1.15107e-05
-8.81662e-05
-8.53058e-05
3.84724e-05
-0.000201704
-0.000210266
7.09279e-05
-0.000257086
-0.000271066
7.95627e-05
-0.000253725
-0.000262945
6.66773e-05
-0.000203601
-0.000190249
3.93755e-05
-0.000122545
-6.41972e-05
5.52762e-06
-2.48771e-05
9.99123e-05
-2.89324e-05
7.85891e-05
0.000284952
-6.20181e-05
0.000186305
-9.27961e-05
0.000316447
0.000542916
-0.000161759
0.000300968
0.000602037
-0.000160965
0.000323074
0.000590896
-0.000132264
0.000320287
0.000502267
-8.45449e-05
0.000266982
0.00034986
-2.27438e-05
0.000157507
0.000163409
4.53052e-05
1.47376e-05
-2.16962e-05
0.000105518
-0.000121374
-0.000174286
0.000142417
-0.000215341
-0.000273036
0.000146649
-0.000251361
-0.00030772
0.000118803
-0.000233138
-0.000277972
6.74504e-05
-0.000175094
-0.000190923
4.39769e-06
-9.37466e-05
-5.87886e-05
-5.94173e-05
-2.60767e-06
0.000103217
-0.00011652
8.94577e-05
0.000278582
-0.000162313
0.000183839
-0.000186207
0.000301298
0.000448158
-0.000197493
0.000237371
0.000472234
-0.000171822
0.000249899
0.000430599
-0.000108297
0.000240349
0.000324909
-2.42727e-05
0.000186394
0.000173421
6.49226e-05
8.66563e-05
5.65078e-06
0.000144082
-3.49168e-05
-0.000147344
0.000197281
-0.000143025
-0.000261212
0.000212796
-0.000209855
-0.000321979
0.000187796
-0.000226029
-0.000325655
0.000129248
-0.000198565
-0.000275935
5.02181e-05
-0.000142396
-0.000181497
-3.50608e-05
-7.26029e-05
-5.4196e-05
-0.000114876
8.60177e-08
9.16177e-05
-0.000181335
7.03016e-05
0.000239988
-0.000227566
0.000141975
-0.000237778
0.000232919
0.00031401
-0.000194212
0.000147463
0.000299432
-0.00014172
0.000155659
0.000228775
-5.39243e-05
0.000144175
0.000113269
4.79166e-05
9.71875e-05
-2.49402e-05
0.000143003
1.74615e-05
-0.000159104
0.00021423
-7.28539e-05
-0.000265896
0.000248404
-0.00014657
-0.00033078
0.000239656
-0.000185146
-0.000348808
0.00019121
-0.000185198
-0.000322321
0.000114111
-0.000155488
-0.000257839
2.29333e-05
-0.000109667
-0.000163989
-6.86741e-05
-5.98665e-05
-5.09458e-05
-0.000150075
-1.30561e-05
6.86588e-05
-0.000213576
2.98256e-05
0.000180106
-0.000250606
7.49836e-05
-0.000245199
0.000134999
0.000166716
5.03331e-05
0.000115197
6.08936e-05
2.02511e-05
5.51944e-05
-9.80502e-05
2.26722e-05
-0.000214644
-3.13711e-05
-0.000306793
-8.91694e-05
-0.000360895
-0.000131216
-0.000373973
-0.000146528
-0.000350743
-0.000136038
-0.000299095
-0.000109432
-0.000226846
-7.88579e-05
-0.000140898
-5.32423e-05
-4.85026e-05
-3.51057e-05
4.04845e-05
-2.05441e-05
0.000113585
-8.84248e-07
3.24393e-05
-1.88714e-05
-0.000192035
-0.00010334
-6.65166e-05
-0.000101206
-4.80064e-05
-0.000133238
1.27205e-05
-5.34565e-06
-0.000203561
0.000129418
1.24398e-05
-0.000263187
0.000229539
6.16498e-06
-0.000301876
0.000298379
-1.34443e-05
-0.000315679
0.000326697
-3.35033e-05
-0.000306391
0.000311261
-4.59648e-05
-0.000279214
0.00025548
-5.08453e-05
-0.000239934
0.000168802
-5.52111e-05
-0.000193282
6.44452e-05
-6.85468e-05
-0.000142881
-4.35849e-05
-9.62919e-05
-9.24971e-05
-0.00014182
-0.000134299
-4.78386e-05
-0.000216739
-0.000167762
-1.60953e-05
-0.000255051
-0.000177661
-0.000246358
-0.000152657
-7.31723e-05
-0.000104883
-0.000141162
-0.000131404
-2.34884e-05
-7.88933e-05
-0.000197035
6.84449e-05
-2.34354e-05
-0.000256079
0.000154351
1.48299e-05
-0.000295839
0.000219982
3.50992e-05
-0.000308671
0.000256472
4.25431e-05
-0.000293945
0.000260299
4.27832e-05
-0.000257351
0.000232696
3.81736e-05
-0.000208224
0.000179134
2.66671e-05
-0.000155801
0.000108284
3.21953e-06
-0.000107207
2.9761e-05
-3.65817e-05
-6.65477e-05
-4.74728e-05
-9.18074e-05
-3.62444e-05
-0.000114833
-0.000152446
-1.90344e-05
-0.000162651
-0.000199954
-1.7652e-05
-0.000180623
-0.000216109
-0.000161336
-0.000192597
-8.74757e-05
-1.24625e-05
-0.000158246
-0.000148053
5.16688e-05
-8.40703e-05
-0.00020804
0.000114636
-1.26243e-05
-0.000254781
0.000163499
4.4489e-05
-0.00027775
0.000189683
8.38964e-05
-0.00027209
0.000190738
0.00010697
-0.000240086
0.000169399
0.000115606
-0.000189878
0.000131621
0.000109995
-0.000132356
8.47725e-05
8.82773e-05
-7.77184e-05
3.60284e-05
4.75571e-05
-3.32641e-05
-9.29273e-06
-1.34552e-05
-2.83037e-06
-4.83828e-05
-9.00784e-05
1.20888e-05
-7.89288e-05
-0.000168211
1.11304e-05
-9.63709e-05
-0.000226384
-5.56359e-06
-9.3862e-05
-0.000245157
-6.63433e-05
-0.000217761
-6.56531e-05
7.569e-05
-0.000152894
-0.000119115
0.000118412
-6.7295e-05
-0.000168319
0.000148774
1.71323e-05
-0.000202598
0.000157932
8.68177e-05
-0.000213861
0.000143257
0.000136191
-0.000199688
0.000109226
0.00016419
-0.000164104
6.50256e-05
0.00017122
-0.000115591
2.07653e-05
0.00015765
-6.38834e-05
-1.53577e-05
0.000123436
-1.73645e-05
-3.85521e-05
6.82641e-05
1.81796e-05
-4.80826e-05
-6.91951e-06
3.9636e-05
-4.69894e-05
-9.57209e-05
4.59205e-05
-3.93309e-05
-0.00018218
3.73075e-05
-2.60724e-05
-0.000243054
1.52754e-05
-4.24457e-06
-0.000258499
2.95471e-05
-0.00022329
-1.42653e-05
0.00014886
-0.000129797
-5.10949e-05
0.000168928
-3.58482e-05
-8.43013e-05
0.000166091
5.55005e-05
-0.000105773
0.000136393
0.00012982
-0.000110164
8.36446e-05
0.00017971
-9.723e-05
1.95301e-05
0.000202811
-7.15366e-05
-4.08939e-05
0.00019957
-3.97296e-05
-8.50045e-05
0.000172346
-7.7719e-06
-0.000105929
0.000124408
2.02081e-05
-0.000102436
5.85411e-05
4.17417e-05
-7.81896e-05
-2.2664e-05
5.52653e-05
-4.08172e-05
-0.00011272
5.95406e-05
7.82795e-07
-0.000196121
5.39322e-05
4.08229e-05
-0.000250219
3.90555e-05
7.85935e-05
-0.000256253
0.000115566
-0.000211028
5.92541e-05
0.000195506
-9.34148e-05
4.77037e-05
0.00019386
5.12176e-06
3.50032e-05
0.000160347
9.75351e-05
2.63283e-05
9.67774e-05
0.000169348
2.3837e-05
1.3892e-05
0.000211843
2.60102e-05
-6.97736e-05
0.000221759
2.93172e-05
-0.000135069
0.000200787
3.11939e-05
-0.000169808
0.000155067
3.15653e-05
-0.000170845
9.2577e-05
3.22834e-05
-0.000141631
1.96038e-05
3.54701e-05
-8.96838e-05
-6.01234e-05
4.18433e-05
-2.53856e-05
-0.000141136
4.99769e-05
3.99406e-05
-0.000210443
5.72368e-05
9.76823e-05
-0.000248611
6.1647e-05
0.000144315
-0.000239915
0.000179477
-0.000183344
0.000147078
0.000204771
-4.36727e-05
0.000167201
0.000184588
5.64374e-05
0.000177718
0.000126793
0.000145659
0.000179893
3.95263e-05
0.0002098
0.000172747
-5.98121e-05
0.000238622
0.000154221
-0.00014744
0.000228134
0.000124009
-0.000203275
0.000182742
8.58358e-05
-0.000218895
0.000114356
4.69915e-05
-0.000196942
3.68432e-05
1.58901e-05
-0.000145783
-4.01415e-05
-5.95217e-07
-7.5734e-05
-0.000112359
6.44826e-07
2.01712e-06
-0.000176114
1.79899e-05
7.62615e-05
-0.000222322
4.63411e-05
0.000138155
-0.000236908
7.99307e-05
0.000183038
-0.00020896
0.000208725
-0.000139376
0.00024149
0.000170635
2.36658e-05
0.000295762
0.000137241
0.000122708
0.000328464
6.60594e-05
0.000205503
0.000336245
-2.93091e-05
0.000257571
0.000315805
-0.00012651
0.000266658
0.000266793
-0.000199871
0.000228951
0.000194746
-0.000232222
0.000153575
0.000111334
-0.000221672
6.01008e-05
3.14643e-05
-0.000177334
-3.14276e-05
-3.04552e-05
-0.000111615
-0.00010884
-6.36611e-05
-3.60441e-05
-0.000168283
-6.33176e-05
3.92167e-05
-0.000208458
-3.14872e-05
0.000105264
-0.000224966
2.42892e-05
0.000155428
-0.000210292
9.4041e-05
0.000186257
-0.00015935
0.000193351
-7.40244e-05
0.000334304
9.6299e-05
0.000108807
0.000418988
5.65422e-05
0.000202886
0.000467875
-1.33122e-05
0.000275797
0.0004727
-9.73247e-05
0.000311205
0.000429649
-0.000171954
0.000294955
0.000342894
-0.000214077
0.000224943
0.000225888
-0.000213022
0.000117347
9.85698e-05
-0.000174619
2.60178e-07
-1.74983e-05
-0.000113545
-0.000101118
-0.000103438
-4.44257e-05
-0.000173671
-0.000146128
2.18943e-05
-0.000215024
-0.000140249
7.80746e-05
-0.000226861
-8.89254e-05
0.00011933
-0.000209833
-2.41043e-06
0.000143307
-0.000163195
0.000107441
0.000148406
-8.77741e-05
0.00013069
1.59013e-05
0.000412715
-4.54265e-06
0.000197584
0.000517053
-4.34158e-05
0.000281701
0.000571672
-9.60667e-05
0.000341714
0.000563974
-0.000149145
0.0003574
0.000491835
-0.000183318
0.00031316
0.000366019
-0.000182558
0.000210799
0.000208364
-0.000144969
7.49592e-05
4.59362e-05
-8.35027e-05
-5.86192e-05
-9.49705e-05
-1.62421e-05
-0.000161858
-0.000193103
4.23355e-05
-0.00022263
-0.000234953
8.41717e-05
-0.000241214
-0.00021621
0.000106505
-0.000222959
-0.000141672
0.000110027
-0.000173612
-2.33838e-05
9.76494e-05
-9.84229e-05
0.000122987
7.19246e-05
-1.65255e-06
2.97792e-05
0.000118897
0.000458633
-0.000112198
0.000263739
0.000566874
-0.000142749
0.000334057
0.000614637
-0.000164537
0.000380155
0.000587257
-0.000171985
0.000376716
0.000485836
-0.000154832
0.000307677
0.000327905
-0.000107651
0.000180454
0.000142187
-3.79217e-05
2.76996e-05
-3.94886e-05
3.62789e-05
-0.00011001
-0.000188685
9.62124e-05
-0.00020471
-0.000284245
0.000130203
-0.000247332
-0.000314393
0.000135056
-0.000241894
-0.000277315
0.000114026
-0.000197766
-0.000180207
7.40244e-05
-0.000124942
-3.69952e-05
2.32755e-05
-3.2348e-05
0.000135597
-3.1672e-05
7.49684e-05
-8.94395e-05
0.000204733
0.000456165
-0.000207682
0.000284607
0.0005517
-0.000221574
0.000340434
0.000581089
-0.000204217
0.000373714
0.000531303
-0.00016013
0.000355376
0.000407443
-9.0832e-05
0.000270678
0.000232018
-2.6967e-06
0.000132913
3.75046e-05
8.8563e-05
-2.01373e-05
-0.000142898
0.000162345
-0.000147368
-0.000281685
0.000202177
-0.000224263
-0.000360388
0.000201452
-0.000246272
-0.000370812
0.000163383
-0.000221505
-0.000314535
9.77668e-05
-0.000162562
-0.000201126
1.72353e-05
-8.1497e-05
-4.57397e-05
-6.57982e-05
1.22765e-05
0.000134822
-0.000141473
0.000115544
-0.000202157
0.000241082
0.00040108
-0.000276554
0.000253855
0.000470586
-0.000265674
0.000297668
0.000473993
-0.000207926
0.000320589
0.000403773
-0.000116715
0.000293788
0.000269251
-4.83508e-06
0.000206032
9.51931e-05
0.000111158
7.49416e-05
-8.62766e-05
0.000209984
-6.13253e-05
-0.000244567
0.000271267
-0.000165973
-0.000356354
0.000282959
-0.000220356
-0.000408062
0.00024482
-0.000224797
-0.000395997
0.000166656
-0.000190432
-0.000324878
6.38738e-05
-0.000130972
-0.000205704
-4.68078e-05
-5.77379e-05
-5.37452e-05
-0.00015051
2.22101e-05
0.000114628
-0.000234902
0.000108895
-0.000287408
0.000216083
0.000303964
-0.000309862
0.000181993
0.000339929
-0.000269899
0.000218158
0.000315535
-0.000177805
0.000234622
0.000230833
-5.25838e-05
0.000206965
9.91286e-05
8.46518e-05
0.000128874
-5.5337e-05
0.000211304
1.94025e-05
-0.000204703
0.000304055
-8.77309e-05
-0.000324683
0.000345072
-0.00016368
-0.00039877
0.000327614
-0.000196597
-0.00041944
0.000257524
-0.000190598
-0.000387292
0.000149842
-0.00015773
-0.000309008
2.33662e-05
-0.00011038
-0.000195617
-0.000103186
-5.69268e-05
-6.11483e-05
-0.00021426
-4.17004e-07
7.93073e-05
-0.000295968
6.25854e-05
-0.000333873
0.000143413
0.000186648
-0.000304809
8.85535e-05
0.000187846
-0.000237851
0.000122414
0.000139028
-0.000123075
0.000138264
4.72836e-05
1.85932e-05
0.000117755
-7.04026e-05
0.000160694
5.91059e-05
-0.000192353
0.000280576
-2.0176e-05
-0.000297334
0.000356302
-9.38355e-05
-0.000369906
0.00037446
-0.000141962
-0.000402151
0.000333408
-0.000158747
-0.000393018
0.000243231
-0.000150328
-0.000346468
0.000121384
-0.00012776
-0.000269662
-1.27026e-05
-0.000100603
-0.000171749
-0.000140974
-7.31809e-05
-6.43577e-05
-0.000247815
-4.40115e-05
3.98796e-05
-0.00031882
-6.40111e-06
-0.00034011
4.83235e-05
7.73729e-05
-5.43853e-06
4.68751e-05
3.10795e-05
-2.31259e-05
5.36466e-05
-0.00011756
4.8211e-05
-0.000216826
1.3886e-05
-0.000300346
-3.51816e-05
-0.000354767
-7.99551e-05
-0.000375839
-0.00010718
-0.000366352
-0.000114704
-0.000332136
-0.000109479
-0.000279033
-0.000101378
-0.00021208
-9.7064e-05
-0.000136553
-9.6585e-05
-5.99352e-05
-9.36903e-05
8.20844e-06
-7.88154e-05
-4.4717e-05
-5.38282e-05
-0.000302588
-0.000164023
-8.17229e-05
-0.000204114
-8.81611e-05
-0.000123058
-6.83903e-05
-1.97908e-05
-0.000168474
8.32751e-05
2.35051e-05
-0.000207557
0.000227419
3.73279e-05
-0.000232243
0.000342423
2.95661e-05
-0.000239347
0.000410848
1.28507e-05
-0.00023068
0.000421838
-3.28245e-06
-0.000210955
0.000373581
-1.6912e-05
-0.000185114
0.000274154
-3.36982e-05
-0.000156731
0.0001397
-6.25259e-05
-0.000127821
-9.22536e-06
-0.000108491
-9.96363e-05
-0.000151128
-0.000166216
-7.43514e-05
-0.000264925
-0.000218131
-5.49979e-05
-0.00033314
-0.000241479
-0.000343887
-0.00022126
-5.723e-05
-0.000221372
-0.000192761
-9.4324e-05
-0.000134396
-0.000111517
-0.00013381
-2.10519e-05
-3.12874e-05
-0.000167766
0.000100285
3.17757e-05
-0.000187766
0.000210921
7.15967e-05
-0.000188067
0.000294517
9.07506e-05
-0.00016822
0.000338884
9.4901e-05
-0.000133287
0.000337323
8.77566e-05
-9.18554e-05
0.000290108
6.8708e-05
-5.27769e-05
0.000204964
3.33309e-05
-2.24802e-05
9.52507e-05
-2.24297e-05
-3.60989e-06
-2.30682e-05
-9.68349e-05
3.50889e-06
-0.000133192
-0.000177501
9.33807e-07
-0.000219021
-0.000243282
-1.00726e-05
-0.000266195
-0.000272048
-0.000266235
-0.000252709
-3.13117e-05
-0.000135408
-0.000206255
-6.9845e-05
-6.60929e-05
-0.00011384
-0.000104043
1.85103e-05
-1.79881e-05
-0.000127016
0.00010371
6.4037e-05
-0.000131781
0.000175706
0.000123877
-0.000114571
0.000223987
0.000160289
-7.72628e-05
0.000242262
0.00017492
-2.73893e-05
0.000228722
0.000168721
2.41401e-05
0.00018624
0.000140616
6.65127e-05
0.000122083
8.80651e-05
9.22787e-05
4.59148e-05
1.01149e-05
9.90376e-05
-3.26915e-05
-8.72141e-05
8.91388e-05
-0.000104271