/*--------------------------------*- C++ -*----------------------------------*\
| =========                 |                                                 |
| \\      /  F ield         | OpenFOAM: The Open Source CFD Toolbox           |
|  \\    /   O peration     | Version:  3.0.0                                 |
|   \\  /    A nd           | Web:      www.OpenFOAM.org                      |
|    \\/     M anipulation  |                                                 |
\*---------------------------------------------------------------------------*/
FoamFile
{
    version     2.0;
    format      ascii;
    class       volVectorField;
    location    "9.75";
    object      U;
}
// * * * * * * * * * * * * * * * * * * * * * * * * * * * * * * * * * * * * * //

dimensions      [0 1 -1 0 0 0 0];

internalField   nonuniform List<vector> 
4096
(
(0.0274844 -0.00479288 0.0057956)
(0.00848997 0.0130886 -0.00225632)
(-0.0202881 0.0307784 -0.0119151)
(-0.0504365 0.044004 -0.0228367)
(-0.0766526 0.0498189 -0.032717)
(-0.0948233 0.0471989 -0.0384415)
(-0.102617 0.0367772 -0.037786)
(-0.0998974 0.0206812 -0.0304848)
(-0.0882333 0.00209133 -0.0183305)
(-0.0700403 -0.0156014 -0.00443177)
(-0.0478033 -0.0297732 0.00780599)
(-0.0237917 -0.0391769 0.0157522)
(-0.000249522 -0.0437512 0.0184523)
(0.0198302 -0.0437702 0.0169894)
(0.0322894 -0.0382041 0.0140109)
(0.0365354 -0.0237443 0.011674)
(-0.0103205 0.0199844 -0.0111539)
(-0.0361869 0.0373438 -0.0159268)
(-0.0666076 0.0504384 -0.0207699)
(-0.0942131 0.0563314 -0.0248589)
(-0.113953 0.0533945 -0.0266981)
(-0.122918 0.0421897 -0.0250656)
(-0.120679 0.0251537 -0.0196779)
(-0.10896 0.00584097 -0.0113187)
(-0.0906713 -0.0120524 -0.00165838)
(-0.068862 -0.0256236 0.00712154)
(-0.0460806 -0.0334129 0.0127857)
(-0.0243666 -0.0355147 0.0137944)
(-0.00570028 -0.0329224 0.0101537)
(0.00727723 -0.0264628 0.00378589)
(0.0113834 -0.0158799 -0.00234702)
(0.00633848 -5.76107e-05 -0.00655881)
(-0.040496 0.0481314 -0.0203189)
(-0.068147 0.0613067 -0.0207193)
(-0.0968936 0.0662928 -0.0202)
(-0.119596 0.0616154 -0.0185944)
(-0.132579 0.0478225 -0.015399)
(-0.134447 0.0276005 -0.0104803)
(-0.126129 0.00502885 -0.00423052)
(-0.110185 -0.0155596 0.00256766)
(-0.0897412 -0.0306273 0.00880483)
(-0.067639 -0.0381606 0.0130295)
(-0.0461224 -0.0379569 0.0136491)
(-0.0270607 -0.0313559 0.009655)
(-0.0124459 -0.0203736 0.00168619)
(-0.00487213 -0.00658061 -0.00755905)
(-0.00690854 0.00930354 -0.0145648)
(-0.0169203 0.0264774 -0.017525)
(-0.0578256 0.0767639 -0.0209909)
(-0.0828699 0.0826559 -0.0177141)
(-0.107599 0.0777654 -0.0132897)
(-0.124824 0.0617292 -0.00869084)
(-0.132397 0.037125 -0.00413814)
(-0.130143 0.00857514 0.000223915)
(-0.119703 -0.0184737 0.00424241)
(-0.10372 -0.0391781 0.00778198)
(-0.0848642 -0.0503538 0.0104746)
(-0.0653025 -0.0509425 0.0114087)
(-0.0467061 -0.0419288 0.00922835)
(-0.0306744 -0.0258172 0.00302435)
(-0.0191924 -0.00571147 -0.00631583)
(-0.0148734 0.0157432 -0.0156537)
(-0.0199811 0.0366311 -0.0211224)
(-0.0310959 0.0546261 -0.0208799)
(-0.0593519 0.101932 -0.0150488)
(-0.0787004 0.099157 -0.00988487)
(-0.0978398 0.0839317 -0.00410329)
(-0.10989 0.0569419 0.000394329)
(-0.113902 0.0225347 0.00309002)
(-0.110532 -0.0129908 0.00412134)
(-0.101597 -0.0431284 0.00405757)
(-0.0892684 -0.0628222 0.00367822)
(-0.0752912 -0.0694624 0.00340688)
(-0.060796 -0.06298 0.00270632)
(-0.0466319 -0.0454031 0.000189122)
(-0.0339407 -0.0201716 -0.00527112)
(-0.0245658 0.00866843 -0.0129458)
(-0.021116 0.0373203 -0.0197671)
(-0.0258734 0.0626559 -0.0219862)
(-0.0350762 0.0812711 -0.0179953)
(-0.0442994 0.119738 -0.00534397)
(-0.0559661 0.108978 4.33047e-05)
(-0.0685114 0.0842516 0.00492641)
(-0.0760889 0.0476971 0.00704183)
(-0.0785105 0.00529392 0.00586632)
(-0.0768936 -0.0352258 0.00199728)
(-0.0727908 -0.0666215 -0.00309225)
(-0.0674142 -0.0840166 -0.00750993)
(-0.0611602 -0.0856558 -0.0099967)
(-0.0538249 -0.0725415 -0.0108065)
(-0.0452437 -0.0475848 -0.0115316)
(-0.0359429 -0.0148449 -0.0137534)
(-0.027507 0.0210417 -0.017304)
(-0.022525 0.0554052 -0.019747)
(-0.0235614 0.0841073 -0.017981)
(-0.0283601 0.103146 -0.0109386)
(-0.0146561 0.126786 0.0065554)
(-0.0171485 0.110577 0.0114582)
(-0.0227079 0.078435 0.0142355)
(-0.02684 0.0347394 0.0128742)
(-0.0297694 -0.0128908 0.00683483)
(-0.0327021 -0.0556102 -0.00283862)
(-0.0364352 -0.0859217 -0.0135891)
(-0.0407412 -0.099596 -0.022178)
(-0.0443191 -0.096026 -0.026387)
(-0.0454446 -0.0773215 -0.0262298)
(-0.0428669 -0.0470735 -0.0236534)
(-0.0364917 -0.00958531 -0.0209008)
(-0.0276467 0.0304056 -0.0187035)
(-0.0189446 0.0679197 -0.0157296)
(-0.0134253 0.0982105 -0.00993686)
(-0.0113303 0.117006 -0.000937894)
(0.0244565 0.120758 0.0213383)
(0.032519 0.102792 0.0258254)
(0.0335961 0.0665887 0.0261309)
(0.0315754 0.01935 0.0208106)
(0.0259737 -0.0297197 0.00924364)
(0.0159418 -0.0711496 -0.00704904)
(0.00199654 -0.0977677 -0.0241318)
(-0.0137487 -0.106453 -0.0371396)
(-0.0280832 -0.0979554 -0.0428106)
(-0.0377761 -0.0754006 -0.0410217)
(-0.0406289 -0.0427677 -0.0342192)
(-0.0360928 -0.00419508 -0.0254622)
(-0.0253671 0.0360077 -0.0165814)
(-0.0112028 0.0732162 -0.00760944)
(0.00270618 0.102626 0.00225312)
(0.0145607 0.119629 0.0128196)
(0.0657429 0.101614 0.0398671)
(0.0851611 0.085529 0.044211)
(0.0917261 0.0496387 0.0418875)
(0.0903666 0.00348662 0.0321654)
(0.0802124 -0.0425199 0.0143904)
(0.0612389 -0.0789406 -0.00922818)
(0.0358655 -0.0994963 -0.0330552)
(0.00837805 -0.102502 -0.0504545)
(-0.016109 -0.0900959 -0.0572245)
(-0.0330852 -0.0661575 -0.0533018)
(-0.0397406 -0.0346415 -0.0417659)
(-0.0353888 0.000905744 -0.0265445)
(-0.0213178 0.0370455 -0.0105754)
(-0.000581083 0.0700929 0.00477881)
(0.0221838 0.0957281 0.0191939)
(0.0467814 0.108677 0.0323186)
(0.101871 0.072976 0.0601575)
(0.131675 0.0608142 0.0641184)
(0.141683 0.0296813 0.0592113)
(0.139664 -0.0103819 0.0448806)
(0.123851 -0.0488184 0.0206243)
(0.0953548 -0.0769504 -0.0102892)
(0.0589445 -0.0898666 -0.0403523)
(0.0211789 -0.0874652 -0.0613001)
(-0.0111786 -0.0730605 -0.0683376)
(-0.032787 -0.05082 -0.061749)
(-0.0407189 -0.0241563 -0.0453493)
(-0.0345737 0.00440328 -0.0238877)
(-0.0159716 0.0326209 -0.00123253)
(0.0115456 0.0581029 0.0202083)
(0.0421595 0.0774114 0.0395243)
(0.0812681 0.0845561 0.0570263)
(0.127614 0.0414182 0.077249)
(0.164228 0.0330562 0.0799061)
(0.174838 0.00987565 0.0727011)
(0.170746 -0.0198657 0.0542482)
(0.148983 -0.0470853 0.0243193)
(0.111894 -0.0647277 -0.0124678)
(0.0666863 -0.0696363 -0.0468242)
(0.0219588 -0.063255 -0.0693663)
(-0.0144206 -0.0495833 -0.0752746)
(-0.0369453 -0.0324032 -0.0655063)
(-0.0431683 -0.013989 -0.0446608)
(-0.0334023 0.00454927 -0.0181694)
(-0.00980092 0.0223718 0.00946954)
(0.0235199 0.0383715 0.0352682)
(0.0595919 0.0500956 0.0585412)
(0.1118 0.0518033 0.081248)
(0.140443 0.0131287 0.086302)
(0.178278 0.00756909 0.0863384)
(0.186078 -0.0061731 0.07701)
(0.178014 -0.0231528 0.0555081)
(0.150491 -0.0371818 0.0219381)
(0.107139 -0.0437369 -0.0177395)
(0.0571391 -0.0417592 -0.0530275)
(0.0103732 -0.0339175 -0.0742953)
(-0.0250706 -0.0241228 -0.0774037)
(-0.0443607 -0.0149591 -0.0642372)
(-0.0461175 -0.00700368 -0.0400931)
(-0.0316428 0.000276484 -0.0107994)
(-0.00364647 0.00736251 0.0189425)
(0.0333577 0.0140482 0.0460809)
(0.0717462 0.0186644 0.0707153)
(0.131355 0.0176598 0.096906)
(0.139645 -0.00840323 0.0847977)
(0.172502 -0.0113133 0.0812507)
(0.174127 -0.0153297 0.0697121)
(0.159911 -0.0192112 0.0464561)
(0.127252 -0.0203687 0.0120983)
(0.0810967 -0.0172957 -0.0264413)
(0.0316019 -0.0111022 -0.0585175)
(-0.0113578 -0.00498661 -0.075426)
(-0.0406833 -0.00181704 -0.0743594)
(-0.0530608 -0.00226877 -0.058167)
(-0.0485419 -0.00498174 -0.0325286)
(-0.029371 -0.00796661 -0.00321627)
(0.0014301 -0.00984171 0.0253571)
(0.0393582 -0.0104897 0.0505037)
(0.0769241 -0.0110039 0.0731109)
(0.135208 -0.0112757 0.0986031)
(0.12556 -0.0218704 0.0728718)
(0.147875 -0.0208395 0.0657355)
(0.140859 -0.0156246 0.0521294)
(0.119164 -0.00815953 0.0286126)
(0.0828566 0.000692161 -0.00337302)
(0.0381443 0.00972566 -0.0365976)
(-0.00518985 0.0163252 -0.0616435)
(-0.0388044 0.017734 -0.0718505)
(-0.057807 0.0129241 -0.066104)
(-0.0609681 0.00336104 -0.0479678)
(-0.0497422 -0.00802132 -0.022999)
(-0.0269266 -0.0183782 0.00358237)
(0.00452861 -0.0260673 0.028067)
(0.0405594 -0.0310582 0.0484403)
(0.0745031 -0.0338317 0.0660319)
(0.122971 -0.0309556 0.0861085)
(0.0997344 -0.0264897 0.0529408)
(0.1078 -0.019653 0.043286)
(0.0911519 -0.00675803 0.0285664)
(0.0624178 0.00821725 0.00666785)
(0.0250616 0.0219713 -0.0199478)
(-0.0138451 0.0316943 -0.0446402)
(-0.0462244 0.0346865 -0.0602993)
(-0.0666055 0.0296267 -0.0629442)
(-0.0730715 0.0175376 -0.0531059)
(-0.0665783 0.00149701 -0.0346368)
(-0.0495524 -0.0148377 -0.0124834)
(-0.0247887 -0.0286292 0.00906246)
(0.00514397 -0.0385248 0.0272547)
(0.0368698 -0.0446359 0.040973)
(0.0648534 -0.046712 0.0517365)
(0.0984009 -0.0397707 0.0635341)
(0.0655592 -0.0208973 0.0290085)
(0.0583653 -0.0073215 0.018883)
(0.0325446 0.0111946 0.00500146)
(-0.00115017 0.0292196 -0.0131615)
(-0.0363253 0.0420027 -0.0324066)
(-0.0658466 0.046659 -0.0473147)
(-0.0843562 0.042255 -0.0534011)
(-0.0900376 0.0300009 -0.0492453)
(-0.0840737 0.012866 -0.0366787)
(-0.0691533 -0.00546647 -0.0195414)
(-0.0481148 -0.0218647 -0.00194391)
(-0.0233259 -0.0345236 0.0129391)
(0.00326517 -0.0429135 0.0234786)
(0.0290148 -0.0472984 0.0296317)
(0.0495171 -0.0468414 0.0331932)
(0.0676136 -0.0366886 0.0368175)
(0.0126908 -0.0310477 -0.00405524)
(-0.00070933 -0.00958302 -0.00221894)
(-0.0231849 0.0151421 -0.00356904)
(-0.0480888 0.037859 -0.00891286)
(-0.0705873 0.0544443 -0.0164836)
(-0.0869689 0.062674 -0.0231801)
(-0.0951669 0.0618446 -0.0263188)
(-0.0949586 0.0525635 -0.0248393)
(-0.0874831 0.0366174 -0.0196461)
(-0.0745265 0.0166499 -0.0131205)
(-0.0579153 -0.0045036 -0.00804919)
(-0.0392775 -0.0243915 -0.00637018)
(-0.0202152 -0.0410319 -0.0080633)
(-0.0029138 -0.0524466 -0.0108849)
(0.00956583 -0.0559534 -0.0114173)
(0.0160142 -0.0483514 -0.00764225)
(-0.0127432 -0.00711032 -0.0182056)
(-0.031624 0.0128536 -0.0137014)
(-0.0555079 0.032773 -0.0109826)
(-0.0784798 0.0487135 -0.0103607)
(-0.0959932 0.0576966 -0.0106678)
(-0.10508 0.0585533 -0.010406)
(-0.104865 0.0517578 -0.00870189)
(-0.0964576 0.0390309 -0.00569254)
(-0.0822222 0.0228591 -0.0024791)
(-0.0648747 0.00590386 -0.000769134)
(-0.0467488 -0.00964961 -0.00219472)
(-0.0295809 -0.0224323 -0.00739613)
(-0.014816 -0.0315922 -0.0151247)
(-0.00415871 -0.0360864 -0.0222317)
(0.00035643 -0.034285 -0.0252002)
(-0.0016189 -0.0245562 -0.0226688)
(-0.0288462 0.0183091 -0.0249913)
(-0.0496157 0.0345798 -0.016959)
(-0.0726517 0.047253 -0.00969761)
(-0.0922447 0.0535506 -0.00403466)
(-0.104706 0.0522895 0.000408907)
(-0.108086 0.0441721 0.00414802)
(-0.102539 0.0313125 0.00727412)
(-0.0899715 0.0164826 0.00938371)
(-0.073161 0.00238319 0.00966031)
(-0.0548798 -0.00894914 0.0070176)
(-0.0373606 -0.0165341 0.000522455)
(-0.0222665 -0.020443 -0.00973236)
(-0.0109927 -0.0211094 -0.0216751)
(-0.00504217 -0.0184064 -0.0313781)
(-0.00582115 -0.0114802 -0.0349713)
(-0.0124058 0.00027138 -0.031253)
(-0.033796 0.044075 -0.0242812)
(-0.0530188 0.0544571 -0.01324)
(-0.0731625 0.0583878 -0.00260293)
(-0.0887638 0.0541241 0.00594861)
(-0.0971003 0.0421909 0.0121298)
(-0.097145 0.0251604 0.0160419)
(-0.0897341 0.00674833 0.0177408)
(-0.077017 -0.00935977 0.0172025)
(-0.0615074 -0.0204165 0.0142173)
(-0.0453958 -0.0251296 0.00827407)
(-0.030355 -0.0237545 -0.00119187)
(-0.0177522 -0.0177845 -0.0138448)
(-0.00895291 -0.00904717 -0.02728)
(-0.00546857 0.00137359 -0.0371834)
(-0.00846687 0.013353 -0.0394858)
(-0.0162141 0.0266466 -0.0331406)
(-0.0273587 0.0670974 -0.0179086)
(-0.0420282 0.0706723 -0.00512187)
(-0.0574618 0.0652888 0.00684982)
(-0.0687595 0.0503617 0.0157204)
(-0.074093 0.028166 0.0208206)
(-0.0731974 0.00313759 0.022268)
(-0.0672691 -0.0195729 0.0205558)
(-0.0581712 -0.035691 0.0164119)
(-0.0475574 -0.042816 0.0104235)
(-0.0365246 -0.0405995 0.00260334)
(-0.0257848 -0.0304289 -0.00747955)
(-0.0161388 -0.0149377 -0.0196317)
(-0.00882431 0.00286246 -0.0316467)
(-0.00549483 0.0206631 -0.0393722)
(-0.00748735 0.0372929 -0.0389299)
(-0.0133058 0.0518236 -0.0295792)
(-0.0104833 0.0840781 -0.00813679)
(-0.0179696 0.0811877 0.00519131)
(-0.0271939 0.0668699 0.0166313)
(-0.034095 0.0421282 0.0237832)
(-0.0376349 0.0111047 0.0258171)
(-0.0381988 -0.0199642 0.0230409)
(-0.0369346 -0.0448156 0.0166434)
(-0.0348672 -0.0591598 0.00838804)
(-0.0322761 -0.0614794 -0.000187728)
(-0.0287528 -0.0525697 -0.00857787)
(-0.0237784 -0.0347934 -0.0172345)
(-0.0173986 -0.0115004 -0.0263779)
(-0.0106095 0.0135987 -0.0344681)
(-0.0052543 0.0373065 -0.0381073)
(-0.0031889 0.0575284 -0.0340901)
(-0.00413703 0.0727559 -0.0221594)
(0.0145718 0.0918398 0.00413241)
(0.0165484 0.0838548 0.0173806)
(0.0145142 0.0620504 0.027199)
(0.0117144 0.0295517 0.0314894)
(0.00839085 -0.00756013 0.0292533)
(0.0038022 -0.0415032 0.0210255)
(-0.00259932 -0.0655033 0.00894458)
(-0.0104038 -0.0760132 -0.00387395)
(-0.0180719 -0.0728767 -0.0147925)
(-0.0235061 -0.0581261 -0.0228402)
(-0.0249195 -0.0348484 -0.0286211)
(-0.0215903 -0.00664018 -0.0329572)
(-0.0142506 0.022692 -0.0353096)
(-0.00496072 0.0496422 -0.033523)
(0.0036711 0.0715193 -0.0254859)
(0.0105141 0.0862627 -0.0114735)
(0.0444178 0.0879157 0.0198477)
(0.057544 0.0769928 0.0328826)
(0.0627962 0.0503869 0.0406142)
(0.0631126 0.0135585 0.0413363)
(0.0579444 -0.0255896 0.0338186)
(0.0466966 -0.0583101 0.0189706)
(0.0301448 -0.0781596 0.000265933)
(0.0106799 -0.0830178 -0.0175138)
(-0.00814966 -0.0743699 -0.0305853)
(-0.0226348 -0.0553648 -0.0376498)
(-0.029912 -0.0294552 -0.0396025)
(-0.0286836 -2.76739e-05 -0.0379792)
(-0.0195214 0.0295667 -0.033406)
(-0.00474958 0.0561519 -0.0252359)
(0.0121266 0.0769156 -0.0126428)
(0.029696 0.0891619 0.00373396)
(0.0750073 0.0718064 0.0398098)
(0.0996717 0.0602873 0.0524182)
(0.110999 0.0326966 0.0576965)
(0.112725 -0.00376198 0.0541081)
(0.103453 -0.039975 0.0402643)
(0.0833884 -0.0671401 0.0178157)
(0.0553464 -0.0799874 -0.00802351)
(0.0239848 -0.0782547 -0.0306729)
(-0.00525173 -0.065005 -0.0453814)
(-0.0273676 -0.0441365 -0.050782)
(-0.0388052 -0.0190341 -0.0482166)
(-0.0380224 0.00753519 -0.0399777)
(-0.0256191 0.0331019 -0.0278508)
(-0.00426532 0.0553544 -0.0126826)
(0.021491 0.0718362 0.00522661)
(0.0523792 0.0791898 0.0253654)
(0.101793 0.0461619 0.061539)
(0.136175 0.0356873 0.0730009)
(0.151017 0.0113951 0.0755709)
(0.152027 -0.0193773 0.0672222)
(0.136895 -0.0475997 0.046554)
(0.107158 -0.0655164 0.0164372)
(0.0680741 -0.0696906 -0.0159235)
(0.0264954 -0.0617575 -0.0423464)
(-0.0106289 -0.0459398 -0.0575309)
(-0.0375251 -0.0263338 -0.060387)
(-0.0504403 -0.00577535 -0.0528628)
(-0.0479953 0.0139589 -0.0380137)
(-0.0310599 0.0315925 -0.0186331)
(-0.00278804 0.0460148 0.00322118)
(0.031171 0.0555527 0.0265667)
(0.0764251 0.0564688 0.0520447)
(0.120196 0.0163206 0.0792159)
(0.159997 0.00760258 0.0884623)
(0.174888 -0.0097202 0.0883874)
(0.173008 -0.0300928 0.0756472)
(0.151357 -0.0462806 0.0489791)
(0.112985 -0.0527075 0.0127702)
(0.0654415 -0.0481762 -0.0239106)
(0.0172976 -0.0358636 -0.051834)
(-0.0236115 -0.0204728 -0.0657358)
(-0.0513729 -0.00563049 -0.0651663)
(-0.0625974 0.00687916 -0.0528215)
(-0.0564947 0.0166099 -0.0324832)
(-0.0344517 0.0236796 -0.00768911)
(-0.000156598 0.0282568 0.0187804)
(0.0397386 0.0296417 0.0460698)
(0.0968213 0.024694 0.0768319)
(0.126821 -0.0119426 0.0872249)
(0.166152 -0.0182884 0.0933055)
(0.177433 -0.0262741 0.0908022)
(0.17067 -0.0333859 0.0748194)
(0.143019 -0.0355898 0.0444048)
(0.0988794 -0.0303646 0.00538079)
(0.0473498 -0.0188257 -0.0320087)
(-0.00214606 -0.00508094 -0.0583602)
(-0.0417412 0.00651017 -0.0690993)
(-0.0661104 0.0134836 -0.0646956)
(-0.0727768 0.015566 -0.0486076)
(-0.0618547 0.0138566 -0.0251487)
(-0.0353469 0.00985284 0.00182478)
(0.00264196 0.00476721 0.0294152)
(0.0449609 -0.00124053 0.0574451)
(0.107011 -0.00930951 0.0906578)
(0.120413 -0.0343566 0.0830548)
(0.153331 -0.0369347 0.085676)
(0.157971 -0.0345998 0.0809305)
(0.144887 -0.0281065 0.0632319)
(0.112694 -0.0171362 0.0322117)
(0.066872 -0.00241724 -0.00538697)
(0.0169068 0.0129878 -0.0393067)
(-0.0281293 0.0247971 -0.0610619)
(-0.0613372 0.0297892 -0.0673119)
(-0.0786963 0.027204 -0.0594932)
(-0.079015 0.0184961 -0.0415932)
(-0.0633607 0.00621134 -0.0180525)
(-0.0342043 -0.00710647 0.00747193)
(0.0042761 -0.0196401 0.0325049)
(0.045198 -0.0305164 0.0576097)
(0.103242 -0.0382396 0.0884559)
(0.102019 -0.0484019 0.0677811)
(0.123965 -0.0452438 0.0675419)
(0.120215 -0.0330203 0.0610509)
(0.10057 -0.0151582 0.0433648)
(0.0660974 0.00545532 0.0150399)
(0.023007 0.0255403 -0.0170904)
(-0.0200311 0.0409602 -0.0440183)
(-0.0555196 0.0480494 -0.0591407)
(-0.0784668 0.0452179 -0.0606133)
(-0.0866644 0.0335305 -0.0506056)
(-0.0802769 0.0159321 -0.0331975)
(-0.0610815 -0.00405975 -0.0124721)
(-0.0316799 -0.0234011 0.00854721)
(0.00408829 -0.040052 0.0281955)
(0.0402629 -0.0524983 0.0475777)
(0.0869875 -0.0572599 0.0717066)
(0.0748159 -0.0527937 0.0451019)
(0.0835995 -0.0424663 0.0433751)
(0.0712279 -0.0223466 0.0363257)
(0.0461517 0.00249702 0.0205867)
(0.0120278 0.0272684 -0.00231742)
(-0.0246232 0.0475276 -0.0262651)
(-0.0567937 0.0593365 -0.0443776)
(-0.0794514 0.0603122 -0.0523618)
(-0.0901559 0.0505047 -0.0497971)
(-0.0887364 0.0323305 -0.0392398)
(-0.0765189 0.00950537 -0.0244216)
(-0.055572 -0.0142201 -0.00873434)
(-0.0282386 -0.0358339 0.00572064)
(0.00231175 -0.0532446 0.0183441)
(0.0313362 -0.064347 0.0306782)
(0.0634571 -0.0649361 0.0462741)
(0.0439848 -0.0461699 0.0198473)
(0.0400121 -0.0293314 0.0185944)
(0.0197745 -0.00415953 0.0130223)
(-0.00916859 0.0234215 0.00113637)
(-0.0409066 0.0474701 -0.0149167)
(-0.0689128 0.0634275 -0.0301929)
(-0.0882111 0.068635 -0.039914)
(-0.0967618 0.0626797 -0.0417622)
(-0.095038 0.0473487 -0.0364238)
(-0.0848898 0.02597 -0.0266753)
(-0.0684681 0.00225939 -0.0158516)
(-0.0476797 -0.020639 -0.00650449)
(-0.0242199 -0.0404205 0.000385382)
(-0.000341534 -0.0553351 0.00546725)
(0.0204764 -0.0631692 0.0108274)
(0.0387997 -0.060096 0.0187954)
(-0.0010046 -0.0614888 -0.0184121)
(-0.00922371 -0.0365191 -0.00761717)
(-0.0248545 -0.00438121 -0.000467095)
(-0.0433513 0.0287984 0.000674259)
(-0.060743 0.0574731 -0.00335218)
(-0.0737921 0.0777542 -0.00953495)
(-0.0806582 0.0872011 -0.0146767)
(-0.081136 0.0848121 -0.0169788)
(-0.0762046 0.071165 -0.0167123)
(-0.0673342 0.0483798 -0.0158542)
(-0.05592 0.0196951 -0.0169017)
(-0.0430618 -0.0111619 -0.0213367)
(-0.0296996 -0.0402732 -0.0283416)
(-0.0171011 -0.0634765 -0.0345774)
(-0.00709404 -0.0764522 -0.035684)
(-0.000726118 -0.0755854 -0.0291841)
(-0.0124349 -0.0379345 -0.0294767)
(-0.0252189 -0.0155629 -0.0166258)
(-0.0420669 0.0112416 -0.00600921)
(-0.0589535 0.0378063 0.000527241)
(-0.0722533 0.0597003 0.00338819)
(-0.0792397 0.0737089 0.00411202)
(-0.0788505 0.0780141 0.00404956)
(-0.0718456 0.0722795 0.00359947)
(-0.0602983 0.0576968 0.00206896)
(-0.0467246 0.0367506 -0.00194476)
(-0.0333079 0.0125754 -0.00966516)
(-0.0215166 -0.0117102 -0.021035)
(-0.0121632 -0.0331792 -0.0338319)
(-0.0059231 -0.0488806 -0.043808)
(-0.00354919 -0.0559192 -0.0467067)
(-0.00496417 -0.0521436 -0.0407784)
(-0.0152048 -0.0149408 -0.0344315)
(-0.029741 0.00399414 -0.0184393)
(-0.0461204 0.0241064 -0.00366069)
(-0.0605835 0.0415951 0.00769409)
(-0.0699957 0.0535359 0.0153515)
(-0.0722826 0.058444 0.0198808)
(-0.0671378 0.0561804 0.0217224)
(-0.0560303 0.0476604 0.0207986)
(-0.0415629 0.0345601 0.016537)
(-0.0265755 0.0189558 0.00812792)
(-0.0133938 0.00279553 -0.0048678)
(-0.00348848 -0.0123784 -0.0215202)
(0.00247157 -0.0251243 -0.0386418)
(0.0042275 -0.0335664 -0.0512211)
(0.00175225 -0.0354957 -0.0547028)
(-0.0039932 -0.0293496 -0.0476633)
(-0.0103104 0.00858506 -0.0330887)
(-0.0235521 0.0224056 -0.0141894)
(-0.0375341 0.0344518 0.00387379)
(-0.0488633 0.0418984 0.0183138)
(-0.0550105 0.0432981 0.0282361)
(-0.0545651 0.0388995 0.0336609)
(-0.0477972 0.0302459 0.0347522)
(-0.0364656 0.019463 0.0315853)
(-0.0230492 0.00863332 0.0241119)
(-0.00995527 -0.000652737 0.0121623)
(0.000970404 -0.00763779 -0.00420197)
(0.00856182 -0.0124191 -0.0236874)
(0.0122322 -0.0152721 -0.0426839)
(0.0118086 -0.015729 -0.0557658)
(0.00754624 -0.0125064 -0.0582444)
(0.00077973 -0.00454693 -0.0490185)
(0.000604266 0.0298507 -0.0269048)
(-0.00832946 0.0378504 -0.00600978)
(-0.017963 0.0412802 0.0136817)
(-0.0254113 0.0384629 0.0290172)
(-0.0288575 0.029515 0.0386892)
(-0.027591 0.0164961 0.0424725)
(-0.022287 0.00256887 0.040678)
(-0.0145406 -0.00921581 0.0339959)
(-0.00605503 -0.0167736 0.0232108)
(0.00187511 -0.0192583 0.0088576)
(0.00845712 -0.0170732 -0.00869218)
(0.0131833 -0.0116998 -0.0281856)
(0.015606 -0.00493435 -0.0461803)
(0.0153564 0.00226784 -0.0574134)
(0.012456 0.0101771 -0.0574402)
(0.00795191 0.0193872 -0.0455892)
(0.0157631 0.0458569 -0.0174123)
(0.0139266 0.0480502 0.00445513)
(0.0103684 0.0430992 0.0241596)
(0.00741749 0.0307039 0.0385474)
(0.00603915 0.0127002 0.0459889)
(0.00620062 -0.00700725 0.0461473)
(0.0070812 -0.0238911 0.0397904)
(0.00778874 -0.0345718 0.0286069)
(0.00799998 -0.0376076 0.0145196)
(0.00804079 -0.0332412 -0.001177)
(0.00853979 -0.0229605 -0.0179445)
(0.00990915 -0.00919975 -0.0348641)
(0.0119649 0.00528185 -0.0491649)
(0.0140094 0.0184843 -0.0563893)
(0.0153758 0.0297877 -0.0528263)
(0.0163431 0.0393141 -0.0383131)
(0.0334133 0.0536223 -0.00487145)
(0.0409266 0.0505389 0.0172347)
(0.044633 0.0382985 0.0358886)
(0.0463145 0.018204 0.0480965)
(0.0458915 -0.00611092 0.0518662)
(0.0427047 -0.0290987 0.0467821)
(0.0362965 -0.0455007 0.0343915)
(0.0271163 -0.0524726 0.0178421)
(0.0167162 -0.0498604 0.00044333)
(0.00728496 -0.039201 -0.0157835)
(0.000941496 -0.0228662 -0.0302717)
(-0.00096586 -0.00374214 -0.0426289)
(0.00167594 0.015132 -0.0511055)
(0.00780041 0.0313525 -0.052577)
(0.0157851 0.0437652 -0.0445049)
(0.0251851 0.0520083 -0.0271972)
(0.0521226 0.0506888 0.0117842)
(0.0702511 0.0434234 0.0336331)
(0.0813739 0.0260961 0.0505576)
(0.0868824 0.00161582 0.0596315)
(0.0855216 -0.0247781 0.0583856)
(0.076436 -0.0465131 0.0465122)
(0.0602693 -0.0585679 0.026811)
(0.0394133 -0.0594909 0.0043174)
(0.0175187 -0.0507974 -0.0161999)
(-0.0014376 -0.0352393 -0.0321686)
(-0.0140603 -0.0157267 -0.0431902)
(-0.0182868 0.00489291 -0.0495384)
(-0.0138297 0.0239196 -0.0506695)
(-0.00214659 0.0392294 -0.045084)
(0.0140749 0.0496655 -0.0316366)
(0.0344314 0.0543606 -0.0108694)
(0.0706057 0.0363968 0.0329083)
(0.0989922 0.0265765 0.053742)
(0.116168 0.00754984 0.0682617)
(0.123576 -0.0166641 0.0732042)
(0.118816 -0.0399059 0.0656434)
(0.101523 -0.0556203 0.0457717)
(0.0741964 -0.0600498 0.0181727)
(0.0414658 -0.0536816 -0.0100307)
(0.00894901 -0.0396657 -0.03283)
(-0.0179404 -0.0216008 -0.0474489)
(-0.0349497 -0.00247877 -0.0538936)
(-0.0396816 0.0153524 -0.0532155)
(-0.0319088 0.0300391 -0.0461286)
(-0.0135137 0.0403303 -0.0327955)
(0.0116578 0.0454818 -0.0133676)
(0.0446918 0.0444091 0.0119071)
(0.0866523 0.012936 0.0552572)
(0.122816 0.00240523 0.0739585)
(0.143157 -0.0141912 0.0854905)
(0.149785 -0.0328569 0.0856438)
(0.139413 -0.0477408 0.0711423)
(0.112829 -0.0535415 0.0432139)
(0.0747633 -0.048557 0.00855891)
(0.0319439 -0.0352809 -0.0238112)
(-0.00848439 -0.0180728 -0.0471673)
(-0.0402073 -0.000818451 -0.0589763)
(-0.0586528 0.0139279 -0.059907)
(-0.0615424 0.0247698 -0.0519003)
(-0.0490005 0.0311172 -0.0368799)
(-0.0235325 0.0330025 -0.0164298)
(0.0100057 0.0305029 0.00847564)
(0.0556893 0.0226828 0.0386321)
(0.0965943 -0.0150493 0.0723685)
(0.136134 -0.0244613 0.0879331)
(0.155896 -0.034663 0.0963251)
(0.159067 -0.0430884 0.0918916)
(0.14207 -0.0456624 0.0712332)
(0.107127 -0.0394651 0.0370155)
(0.0609679 -0.0252288 -0.00205384)
(0.0118624 -0.00708307 -0.0357263)
(-0.0321676 0.0100724 -0.0572683)
(-0.0645663 0.0227218 -0.0648722)
(-0.0810441 0.0293036 -0.0601069)
(-0.0799185 0.029814 -0.0458521)
(-0.0619582 0.0252252 -0.0250074)
(-0.0303174 0.0170051 -2.63305e-05)
(0.00929163 0.0063252 0.0280018)
(0.0641954 -0.00707957 0.0616175)
(0.0968874 -0.0422131 0.0784842)
(0.134448 -0.0484711 0.0905309)
(0.150039 -0.0493627 0.0960093)
(0.147768 -0.0447161 0.0880277)
(0.124701 -0.0333529 0.0634552)
(0.084349 -0.0154052 0.0264421)
(0.0346609 0.00603422 -0.0129865)
(-0.0154335 0.0258312 -0.044407)
(-0.0578615 0.0393083 -0.0618807)
(-0.0865639 0.0439925 -0.0646914)
(-0.098121 0.0398266 -0.0553741)
(-0.0918062 0.0284992 -0.0375441)
(-0.0691523 0.0125953 -0.0145623)
(-0.0338147 -0.00514308 0.010993)
(0.00814923 -0.0225627 0.0385364)
(0.0654465 -0.0385507 0.0721622)
(0.0862971 -0.064042 0.0717142)
(0.116963 -0.0648484 0.0806282)
(0.125782 -0.055128 0.083628)
(0.11721 -0.0372135 0.0736013)
(0.089914 -0.0131016 0.0482367)
(0.0483428 0.0140721 0.0127677)
(0.000610565 0.0393488 -0.0226753)
(-0.0447741 0.0573022 -0.0487042)
(-0.0806282 0.0641751 -0.060815)
(-0.102106 0.0590663 -0.0594671)
(-0.107062 0.0436979 -0.0478984)
(-0.0958015 0.0214136 -0.0299588)
(-0.0704558 -0.00389499 -0.00881402)
(-0.0348315 -0.0286264 0.0135068)
(0.00535823 -0.0498762 0.0371751)
(0.0573033 -0.0650568 0.0666472)
(0.0667182 -0.0775154 0.0542431)
(0.087228 -0.0710142 0.0609847)
(0.088122 -0.05128 0.0622777)
(0.0737147 -0.0225557 0.0519995)
(0.0447786 0.0105677 0.0290724)
(0.0062964 0.0427746 -0.000929523)
(-0.0344393 0.0681028 -0.0290502)
(-0.070384 0.0815146 -0.0479136)
(-0.096091 0.0805851 -0.0547181)
(-0.108423 0.0661157 -0.050835)
(-0.106614 0.0414372 -0.0396893)
(-0.0917921 0.0111142 -0.0247799)
(-0.0663309 -0.0202149 -0.00854313)
(-0.0337558 -0.048518 0.00795409)
(0.00110624 -0.0703774 0.025625)
(0.0421915 -0.0822922 0.0481485)
(0.0425572 -0.0814372 0.0306298)
(0.051888 -0.0670805 0.0365519)
(0.0450954 -0.0396461 0.0374954)
(0.0262653 -0.00455961 0.02896)
(-0.00184531 0.0322239 0.0110345)
(-0.034021 0.0644676 -0.011121)
(-0.0643533 0.0864073 -0.0305441)
(-0.0879457 0.0940198 -0.0422065)
(-0.101715 0.0862327 -0.0448559)
(-0.104545 0.0651102 -0.0403542)
(-0.0969578 0.0348763 -0.0318412)
(-0.0805316 0.000548294 -0.0220828)
(-0.0574068 -0.0330655 -0.0125113)
(-0.0304058 -0.0617791 -0.00304042)
(-0.00322615 -0.0817994 0.00795415)
(0.0250654 -0.0893482 0.0231074)
(0.0198182 -0.0737124 0.00600341)
(0.0190261 -0.0537731 0.0126148)
(0.0053322 -0.0221994 0.0151631)
(-0.0169226 0.0152888 0.0103593)
(-0.0431267 0.0519115 -0.00123644)
(-0.0677106 0.0810746 -0.0154272)
(-0.0860205 0.0976004 -0.027131)
(-0.0958013 0.0987656 -0.0331298)
(-0.0970332 0.0850025 -0.0332045)
(-0.0910105 0.05959 -0.0294623)
(-0.0793631 0.0273441 -0.0247216)
(-0.063529 -0.00680335 -0.0209745)
(-0.0447808 -0.0385268 -0.0185317)
(-0.0247836 -0.06416 -0.0160649)
(-0.0059987 -0.0803078 -0.0112497)
(0.0107783 -0.0837307 -0.0021229)
(-0.0116878 -0.0901994 -0.034505)
(-0.0162863 -0.0625471 -0.0169419)
(-0.0256763 -0.0242618 -0.0022313)
(-0.0373716 0.0180688 0.0057347)
(-0.0487286 0.0577234 0.00652817)
(-0.0572595 0.089109 0.00264968)
(-0.0614751 0.108049 -0.00253181)
(-0.0612396 0.112039 -0.00668841)
(-0.0574303 0.100579 -0.00954355)
(-0.0513089 0.0753237 -0.01272)
(-0.0440031 0.0398364 -0.0185534)
(-0.0362974 -0.000943542 -0.0283329)
(-0.028674 -0.0412531 -0.0407504)
(-0.0216545 -0.0748732 -0.0515797)
(-0.0159454 -0.096042 -0.0554566)
(-0.011694 -0.100566 -0.049052)
(-0.0103309 -0.0665501 -0.0429047)
(-0.0189806 -0.0427209 -0.0237712)
(-0.0293124 -0.0106286 -0.00592542)
(-0.0392918 0.0248272 0.00715986)
(-0.0466836 0.0581978 0.0146514)
(-0.049504 0.0844095 0.0176589)
(-0.0468945 0.0993706 0.0177394)
(-0.0395 0.100592 0.0157258)
(-0.0291845 0.0878134 0.0112962)
(-0.0183144 0.0632136 0.00325906)
(-0.00897503 0.0308928 -0.00944419)
(-0.00247316 -0.00412819 -0.0263633)
(0.000887537 -0.0367394 -0.0445479)
(0.00133758 -0.0622041 -0.0588653)
(-0.000645191 -0.0766638 -0.064155)
(-0.0040057 -0.0777692 -0.0579715)
(-0.00301098 -0.0455743 -0.0466721)
(-0.0130271 -0.0253378 -0.0245859)
(-0.022802 0.000214492 -0.00270075)
(-0.0306066 0.0268673 0.0152178)
(-0.0345317 0.0504488 0.027718)
(-0.0330291 0.0675019 0.0349367)
(-0.0257889 0.0756098 0.0374288)
(-0.0140725 0.0736337 0.0353873)
(-0.000382338 0.0619555 0.0284502)
(0.0123217 0.0425147 0.0159517)
(0.021538 0.0183135 -0.00231638)
(0.0258898 -0.00729195 -0.0249109)
(0.0253532 -0.0308373 -0.0477788)
(0.0208709 -0.0488602 -0.0649454)
(0.0138759 -0.0582109 -0.071011)
(0.00614227 -0.0570553 -0.0639343)
(0.00748416 -0.023726 -0.0452527)
(-0.000929879 -0.00854677 -0.0202565)
(-0.00823363 0.00914092 0.00498028)
(-0.0130319 0.0260434 0.0262956)
(-0.013884 0.0392774 0.0416497)
(-0.00975623 0.0469307 0.0505127)
(-0.000798818 0.0482033 0.0529474)
(0.0114423 0.0432988 0.0490829)
(0.0244572 0.0332994 0.038964)
(0.0355243 0.0199706 0.0226079)
(0.0424742 0.00523872 0.000447342)
(0.044226 -0.00935215 -0.025558)
(0.0409628 -0.022415 -0.0508236)
(0.0339175 -0.0321193 -0.0688855)
(0.0249564 -0.0363205 -0.0742671)
(0.0161862 -0.0335867 -0.0653727)
(0.0187418 -0.00386806 -0.0395943)
(0.0148559 0.00557233 -0.012366)
(0.0119807 0.0149426 0.0148332)
(0.0111493 0.0219845 0.0376211)
(0.0131413 0.0251374 0.0535135)
(0.0183195 0.0240632 0.0615279)
(0.0261078 0.0195289 0.0615981)
(0.0350276 0.0128728 0.0542704)
(0.0432199 0.00556672 0.0404403)
(0.0490144 -0.00103816 0.0210132)
(0.051342 -0.00612206 -0.00305094)
(0.0498915 -0.00978262 -0.0296844)
(0.0450753 -0.012573 -0.0543908)
(0.037987 -0.0143803 -0.0708499)
(0.0302806 -0.0141088 -0.0738991)
(0.0239476 -0.0106246 -0.0624702)
(0.0291192 0.0110431 -0.0304633)
(0.0323236 0.0145307 -0.00187191)
(0.0355432 0.015865 0.0258615)
(0.0394116 0.0138577 0.0483331)
(0.0438628 0.00831942 0.0626858)
(0.0484624 0.000494467 0.0675851)
(0.052324 -0.00747649 0.0631536)
(0.0544661 -0.0136241 0.0508616)
(0.054295 -0.0167194 0.0328928)
(0.0518021 -0.0162782 0.0111802)
(0.0475257 -0.0126424 -0.0129035)
(0.0422926 -0.00717597 -0.0374752)
(0.0368836 -0.00178202 -0.0586612)
(0.0320256 0.00235263 -0.0709859)
(0.028601 0.00544773 -0.0701108)
(0.0280661 0.00842466 -0.055537)
(0.0379129 0.0181226 -0.0175444)