/*--------------------------------*- C++ -*----------------------------------*\
| =========                 |                                                 |
| \\      /  F ield         | OpenFOAM: The Open Source CFD Toolbox           |
|  \\    /   O peration     | Version:  3.0.0                                 |
|   \\  /    A nd           | Web:      www.OpenFOAM.org                      |
|    \\/     M anipulation  |                                                 |
\*---------------------------------------------------------------------------*/
FoamFile
{
    version     2.0;
    format      ascii;
    class       surfaceScalarField;
    location    "5.5";
    object      phi;
}
// * * * * * * * * * * * * * * * * * * * * * * * * * * * * * * * * * * * * * //

dimensions      [0 3 -1 0 0 0 0];

internalField   nonuniform List<scalar> 
11520
(
-0.000633843
-0.000182049
0.000388383
-0.000567619
-5.23669e-05
0.000339776
-0.000439332
5.64762e-05
0.000273428
-0.000264705
0.000153734
0.000181662
-6.28091e-05
0.000238877
7.35925e-05
0.000141908
0.000306297
-3.46647e-05
0.000321222
0.000347691
-0.000123508
0.000446278
0.000352136
-0.000174444
0.000492261
0.000303858
-0.000179047
0.000444376
0.000187053
-0.000145478
0.000304367
1.01648e-05
-8.93541e-05
9.59682e-05
-0.00017567
-1.80696e-05
-0.000140487
-0.000304624
7.06843e-05
-0.000358115
-0.000345669
0.000165569
-0.000523221
-0.000316544
0.000249668
-0.000252135
0.000294732
-0.000739432
-0.000332608
0.000328555
-0.00066867
-0.000219064
0.000289171
-0.000531413
-0.000127337
0.000237509
-0.000343899
-4.30539e-05
0.000160786
-0.000125831
3.60749e-05
6.36048e-05
9.66338e-05
0.000107243
-4.25343e-05
0.000291752
0.000162917
-0.000140701
0.000425186
0.000189909
-0.000210815
0.000467683
0.00016785
-0.000238341
0.000405259
7.64557e-05
-0.000223554
0.000246106
-7.80572e-05
-0.000176492
2.05176e-05
-0.000246474
-0.000104464
-0.000225664
-0.000367474
-1.41311e-05
-0.000447911
-0.000413585
8.4529e-05
-0.000616616
-0.000397348
0.000172792
-0.000338734
0.000226777
-0.000782283
-0.000452877
0.000267283
-0.00071011
-0.000356986
0.000239917
-0.000570443
-0.000282279
0.00020186
-0.000379689
-0.000211673
0.000138068
-0.000157277
-0.000140665
5.03149e-05
7.13293e-05
-6.93756e-05
-5.30487e-05
0.00027425
-3.15363e-06
-0.000158189
0.000415239
4.54458e-05
-0.000245671
0.000461004
5.33302e-05
-0.000296643
0.000394376
-5.74105e-06
-0.000302807
0.0002251
-0.0001326
-0.000267226
-1.07386e-05
-0.000284011
-0.00019697
-0.000263306
-0.000402057
-0.00010238
-0.000487467
-0.000457149
6.67064e-07
-0.000656611
-0.000455509
9.63273e-05
-0.000403645
0.000162409
-0.000772875
-0.000525471
0.000209346
-0.000703466
-0.000446584
0.000197792
-0.000566206
-0.000385658
0.000173993
-0.000377822
-0.000326168
0.000122643
-0.000157635
-0.000263
4.37882e-05
6.94742e-05
-0.000194322
-5.6392e-05
0.000272985
-0.000122867
-0.000166588
0.00041745
-5.88875e-05
-0.000269061
0.000468264
-2.5032e-05
-0.000342655
0.000404916
-5.21366e-05
-0.000371254
0.000235584
-0.00015066
-0.000349957
-1.70808e-06
-0.000286725
-0.000284244
-0.000254853
-0.000405303
-0.00018784
-0.000478357
-0.000472188
-7.95337e-05
-0.000646407
-0.000485394
2.37411e-05
-0.000442186
0.000102625
-0.000728049
-0.000542095
0.00015836
-0.00066451
-0.00047773
0.000164436
-0.000532866
-0.000425846
0.000154907
-0.000349922
-0.000373508
0.00011565
-0.000135322
-0.000316269
4.5681e-05
8.6204e-05
-0.0002513
-5.04574e-05
0.000285298
-0.000179309
-0.000163346
0.000428966
-0.000107557
-0.000277036
0.000483969
-5.6293e-05
-0.000369787
0.000428278
-5.80266e-05
-0.000419774
0.000266933
-0.00013209
-0.00041448
3.61984e-05
-0.000255428
-0.000356266
-0.000212168
-0.000376505
-0.000260594
-0.000432711
-0.000455722
-0.000148795
-0.000599142
-0.000482639
-3.9206e-05
-0.000449803
5.02572e-05
-0.000662632
-0.000503301
0.000118599
-0.000607208
-0.000449559
0.000140745
-0.000483259
-0.000401517
0.000143284
-0.000307421
-0.000352066
0.000114573
-9.98174e-05
-0.00029814
5.29574e-05
0.000114472
-0.000236768
-3.80025e-05
0.000306873
-0.000167343
-0.000150419
0.000446915
-9.45223e-05
-0.0002701
0.000504461
-3.53958e-05
-0.000375862
0.000458043
-2.14951e-05
-0.000442818
0.000309663
-7.82648e-05
-0.000452511
9.145e-05
-0.000192768
-0.000403331
-0.000147718
-0.000317553
-0.000310737
-0.000363375
-0.000408157
-0.000197834
-0.000528301
-0.000446401
-8.47348e-05
-0.000423689
1.10085e-05
-0.000586393
-0.000417558
9.55655e-05
-0.000540735
-0.000369198
0.000128565
-0.000425972
-0.000320023
0.00013845
-0.000258188
-0.000269351
0.000116436
-5.81419e-05
-0.000215965
6.13906e-05
0.000148501
-0.00015725
-2.3735e-05
0.000333644
-9.19348e-05
-0.000132149
0.000468871
-2.28436e-05
-0.000251509
0.00052797
3.58646e-05
-0.000361958
0.000491285
5.52618e-05
-0.000438155
0.000358643
7.00997e-06
-0.000458278
0.000156922
-0.000103769
-0.000417026
-6.98279e-05
-0.000233526
-0.000328598
-0.000279296
-0.000333918
-0.000216945
-0.000443272
-0.000380348
-0.000103939
-0.000365655
-7.13923e-06
-0.000504236
-0.000298561
9.51044e-05
-0.000470006
-0.000249551
0.000130782
-0.00036567
-0.000194744
0.000140343
-0.000206739
-0.000139375
0.000119034
-1.46299e-05
-8.40248e-05
6.69789e-05
0.000184391
-2.66472e-05
-1.27904e-05
0.000362537
3.40209e-05
-0.000113903
0.000493252
9.61966e-05
-0.00022604
0.000553933
0.000148475
-0.000331379
0.000527561
0.000164408
-0.000406505
0.000412497
0.0001158
-0.00042912
0.000230066
2.84944e-06
-0.00039169
1.79957e-05
-0.000133379
-0.000306787
-0.000184631
-0.000241719
-0.000198194
-0.000348911
-0.000292605
-8.88927e-05
-0.00028183
1.90877e-06
-0.00041846
-0.000162829
0.00012155
-0.000397394
-0.000106692
0.000149866
-0.000304774
-4.25961e-05
0.00014997
-0.000155515
1.99659e-05
0.000121537
2.82674e-05
7.90572e-05
6.70795e-05
0.000219828
0.000135995
-9.16463e-06
0.000391428
0.000192002
-0.00010071
0.000518715
0.000245546
-0.000198887
0.000581755
0.000286568
-0.000289135
0.000566696
0.000291655
-0.000351499
0.000470937
0.000234488
-0.000366418
0.000309929
0.000113849
-0.000326553
0.000114534
-3.07318e-05
-0.000243027
-8.09985e-05
-0.000144497
-0.000138666
-0.000247136
-0.000195048
-3.62934e-05
-0.000182154
4.39033e-05
-0.000331681
-2.77924e-05
0.00017507
-0.000325157
4.1961e-05
0.000187152
-0.000245338
0.0001181
0.000168964
-0.000106436
0.000189266
0.000125053
6.88728e-05
0.000252692
6.16008e-05
0.000253057
0.000309245
-1.43511e-05
0.000418963
0.000359866
-9.58559e-05
0.00054371
0.000402887
-0.000175207
0.00060987
0.000428955
-0.000241544
0.000606639
0.000416917
-0.000280159
0.000531004
0.000343768
-0.000277021
0.000393195
0.000209941
-0.000227768
0.00021591
5.64616e-05
-0.000143279
2.78697e-05
-5.86714e-05
-4.39454e-05
-0.000141236
-0.000102776
4.94787e-05
-8.03544e-05
0.000116393
-0.00025062
8.93218e-05
0.000249613
-0.000258155
0.000178345
0.000241146
-0.00019092
0.000268717
0.000198998
-6.23186e-05
0.000349131
0.00013283
0.00010469
0.000416537
5.38806e-05
0.000282123
0.000471538
-2.63466e-05
0.00044322
0.000514966
-9.95053e-05
0.000566126
0.000544849
-0.000158224
0.000635065
0.000551875
-0.000195526
0.000642308
0.000517012
-0.000202949
0.000585069
0.00042107
-0.00017442
0.000469153
0.000269656
-0.00011114
0.000309621
0.000108719
-2.47627e-05
0.000129092
-2.02536e-06
6.97654e-05
-4.20122e-05
-3.20882e-05
0.000154456
7.49739e-06
0.000209349
-0.000190269
0.000171263
0.000332375
-0.000206745
0.000282863
0.000305816
-0.000148613
0.000389453
0.000239998
-2.81785e-05
0.00048005
0.000148984
0.000131928
0.000551246
5.01757e-05
0.000303863
0.000603319
-3.92887e-05
0.00046109
0.000637226
-0.000107928
0.00058207
0.000650903
-0.000148219
0.000652213
0.000634776
-0.000156719
0.000665489
0.000571683
-0.000132111
0.000620059
0.000447209
-7.73125e-05
0.000518892
0.000276172
-4.80184e-07
0.00037122
0.000111182
8.80757e-05
0.000196678
1.20127e-05
0.000177263
2.59621e-05
1.8912e-06
0.000255908
6.24486e-05
0.000303771
-0.000173952
0.000202431
0.000405255
-0.000188731
0.000335219
0.000369004
-0.000131153
0.000458451
0.000287103
-1.28013e-05
0.000560798
0.000175258
0.000144414
0.000637437
5.66168e-05
0.000313463
0.000687289
-4.55588e-05
0.000468073
0.000711017
-0.000114949
0.000586451
0.000706499
-0.000143101
0.000654713
0.000664688
-0.000129305
0.000666559
0.000569902
-7.94486e-05
0.000621422
0.00041517
-5.79384e-06
0.000520649
0.000226254
8.05221e-05
0.000373334
6.3449e-05
0.00016802
0.000199773
-1.87021e-05
0.000253544
3.21612e-05
-8.00834e-06
0.000329572
6.88613e-05
0.000375785
-0.000223021
0.000174589
0.00045156
-0.000224497
0.000320779
0.000414066
-0.00015605
0.000455928
0.000328317
-2.96973e-05
0.000569592
0.000206585
0.00013286
0.0006548
7.38823e-05
0.000305054
0.000707119
-4.17159e-05
0.000460352
0.000724766
-0.000118092
0.000576729
0.000704923
-0.000143804
0.000639161
0.000638825
-0.000119212
0.000640816
0.000514004
-5.56991e-05
0.000581086
0.000332772
2.82099e-05
0.000464294
0.000133775
0.00011561
0.000303694
-1.9952e-05
0.000201043
0.000124232
-8.34867e-05
0.000284893
-4.06249e-05
-5.6628e-05
0.000360532
2.47883e-05
0.000406654
-0.000339315
9.29902e-05
0.0004626
-0.000323975
0.000240899
0.00042735
-0.000238735
0.000376168
0.000348594
-9.5359e-05
0.000493251
0.000230107
8.49537e-05
0.000585395
9.23057e-05
0.000274378
0.000644962
-3.59663e-05
0.000442991
0.000665875
-0.000126832
0.000563721
0.000642417
-0.000161639
0.0006173
0.000564294
-0.000137195
0.000596753
0.000421083
-6.86779e-05
0.000506732
0.000224258
1.78555e-05
0.000359482
2.37394e-05
0.000104428
0.0001764
-0.000117919
0.000188504
-1.45131e-05
-0.000165489
0.000272579
-0.000178008
-0.000131386
0.000348064
-5.45611e-05
0.000393244
-0.000495915
0.000438696
-0.000472736
0.000405821
-0.00037465
0.000337769
-0.000211303
0.000229524
-2.34996e-06
9.45537e-05
0.000221814
-4.19724e-05
0.000423425
-0.000149184
0.000562355
-0.000200057
0.0006076
-0.000183865
0.0005512
-0.00011637
0.000413489
-2.95664e-05
0.000228591
5.6562e-05
2.64208e-05
0.000140408
-0.000168028
0.000224068
-0.000333048
0.000300396
0.000345835
-0.000633403
-0.000158234
0.000545742
-0.00053427
-7.83365e-06
0.000418826
-0.000372412
0.000124778
0.000292671
-0.000169492
0.000237644
0.000156476
4.84762e-05
0.000324599
2.32857e-05
0.000252318
0.000379705
-8.61443e-05
0.000413992
0.00040025
-0.000149616
0.0005104
0.000384251
-0.000149672
0.000525375
0.000322826
-8.33613e-05
0.000450563
0.000200949
3.11926e-05
0.000289641
2.22242e-05
0.000163421
6.54405e-05
-0.000167656
0.000288738
-0.000179699
-0.000304184
0.000394787
-0.000399361
-0.000353776
0.000472105
-0.000558887
-0.000326091
0.000512751
-0.00025169
0.000500967
-0.000711471
-0.000324154
0.000479414
-0.000608828
-0.000189477
0.000368171
-0.000438624
-7.11463e-05
0.000263228
-0.000222088
3.48556e-05
0.000147038
1.41233e-05
0.000125024
2.69686e-05
0.000238063
0.000194139
-8.0908e-05
0.000416154
0.000236925
-0.000155469
0.000518464
0.000246632
-0.000175506
0.000525144
0.000209528
-0.000131722
0.000431333
0.00010844
-3.72344e-05
0.000249636
-5.21768e-05
7.96063e-05
1.07558e-05
-0.00022796
0.00019472
-0.000241906
-0.000360661
0.000295008
-0.000463964
-0.000419078
0.000371889
-0.000626384
-0.000409526
0.000418648
-0.000346512
0.000421746
-0.000733205
-0.000460827
0.000388959
-0.000630758
-0.00034484
0.000292833
-0.000460044
-0.000244165
0.000204164
-0.000241594
-0.000149959
0.000104433
-1.07544e-06
-6.29303e-05
-2.24938e-06
0.000230016
1.37978e-05
-0.000103799
0.000416446
7.51787e-05
-0.000182872
0.000524511
0.000111875
-0.000218979
0.000530304
0.00010547
-0.000198379
0.00042824
3.40233e-05
-0.000126327
0.000235173
-0.00010186
-2.44755e-05
-1.21202e-05
-0.000262292
8.4655e-05
-0.000267382
-0.000393173
0.000185394
-0.000488549
-0.000463138
0.000265894
-0.000649133
-0.000472025
0.000319411
-0.000420994
0.000335962
-0.00071189
-0.000550291
0.000285668
-0.000612626
-0.00045283
0.000206517
-0.000445709
-0.000368685
0.000131596
-0.000231353
-0.000286791
4.5118e-05
5.3558e-06
-0.000206094
-4.9757e-05
0.000233874
-0.000127584
-0.000143528
0.000419743
-5.46985e-05
-0.000222579
0.000528966
3.10874e-06
-0.000269518
0.000535798
2.5042e-05
-0.000269059
0.000433049
-1.55982e-05
-0.000218884
0.000238578
-0.00012504
-0.000132307
-8.2809e-06
-0.000270527
-2.91503e-05
-0.000260151
-0.000401265
7.21216e-05
-0.000476426
-0.000482954
0.000156558
-0.000632289
-0.000508579
0.000216158
-0.000470191
0.000244565
-0.000665479
-0.000583741
0.000181637
-0.00057105
-0.000502393
0.000119571
-0.000410086
-0.000431102
5.63594e-05
-0.000202693
-0.000359233
-1.9299e-05
2.60116e-05
-0.000285346
-0.000103772
0.000246086
-0.000208732
-0.000189384
0.000424617
-0.000131219
-0.000265356
0.000529647
-6.10629e-05
-0.000317895
0.000536461
-1.913e-05
-0.000332428
0.000437276
-3.49076e-05
-0.00030128
0.000248971
-0.000121391
-0.000229823
1.01934e-05
-0.000253872
-0.000134143
-0.00023285
-0.000384834
-3.39814e-05
-0.000441063
-0.000476442
5.29072e-05
-0.000590476
-0.000515162
0.00011679
-0.000488626
0.000153868
-0.000609517
-0.000561103
8.92947e-05
-0.000520782
-0.000491728
4.13449e-05
-0.000366724
-0.000428223
-1.36527e-05
-0.000167698
-0.000363199
-8.04885e-05
5.12582e-05
-0.000294965
-0.000156379
0.000260306
-0.000222078
-0.000233704
0.000428018
-0.000145152
-0.000304199
0.000525356
-7.10397e-05
-0.000357462
0.000530504
-1.93205e-05
-0.00038082
0.000436537
-1.99909e-05
-0.000363768
0.000258761
-9.06533e-05
-0.000305472
3.30682e-05
-0.000213792
-0.000217719
-0.00019721
-0.000345095
-0.000120198
-0.000395172
-0.000443695
-3.26195e-05
-0.000537431
-0.000490711
3.30732e-05
-0.000473167
7.4302e-05
-0.000553664
-0.000489135
2.09875e-05
-0.000471011
-0.00042647
-1.93464e-05
-0.000324665
-0.000366003
-7.01151e-05
-0.000134317
-0.000304001
-0.00013311
7.44556e-05
-0.000239608
-0.00020274
0.00027194
-0.000170974
-0.000272323
0.000428119
-9.79941e-05
-0.000335486
0.000516813
-2.641e-05
-0.000384833
0.00051988
2.57379e-05
-0.000410084
0.000431941
2.99729e-05
-0.000400179
0.000266872
-3.3562e-05
-0.000350301
5.6815e-05
-0.000152361
-0.000268399
-0.000158876
-0.000284702
-0.0001733
-0.000345993
-0.000387366
-8.61578e-05
-0.000481683
-0.000437544
-2.14165e-05
-0.00042449
1.87754e-05
-0.000501571
-0.000378784
-1.2996e-05
-0.000426046
-0.000317849
-5.33639e-05
-0.000287635
-0.00025578
-0.00010829
-0.000106066
-0.000193602
-0.000172934
9.28308e-05
-0.000131267
-0.000240259
0.000279507
-6.68147e-05
-0.000303626
0.000425403
2.84141e-07
-0.000358077
0.000507003
6.4799e-05
-0.000398849
0.000509302
0.000110484
-0.000418424
0.00042878
0.000110827
-0.000406837
0.000277777
4.61285e-05
-0.000357808
8.43083e-05
-7.37699e-05
-0.000276812
-0.000116817
-0.00020855
-0.000181815
-0.000294229
-0.000312901
-9.52465e-05
-0.000425467
-0.000361635
-3.35627e-05
-0.000348124
-6.05186e-07
-0.00045309
-0.00024359
-4.23556e-06
-0.000385876
-0.000179443
-5.57539e-05
-0.000255919
-0.000112409
-0.000123358
-8.29896e-05
-4.78699e-05
-0.000197124
0.000106797
1.34873e-05
-0.000267461
0.00028426
7.36693e-05
-0.000327112
0.00042234
0.000133493
-0.000371999
0.000499821
0.000188055
-0.000399624
0.00050428
0.000222384
-0.000405494
0.000433507
0.000212353
-0.000382253
0.000298112
0.000139712
-0.000324607
0.000121659
1.3685e-05
-0.000237555
-6.5984e-05
-0.000124969
-0.000138964
-0.000236389
-0.000228841
-5.23202e-05
-0.000366864
-0.000271601
4.14595e-06
-0.000252396
2.49926e-05
-0.000406227
-9.85062e-05
4.95529e-05
-0.000348988
-2.62725e-05
-2.32575e-05
-0.000228015
4.79648e-05
-0.000112382
-6.33311e-05
0.000115748
-0.000203249
0.000118462
0.00017601
-0.000282716
0.000288802
0.000230976
-0.000341998
0.000421939
0.000281814
-0.000377313
0.000498764
0.000323956
-0.000387933
0.000508739
0.000343513
-0.000372649
0.000450431
0.000318524
-0.000328021
0.000332467
0.000232766
-0.000252111
0.000173541
9.67047e-05
-0.000151862
-1.90444e-06
-4.67356e-05
-4.6067e-05
-0.000168836
-0.000147173
4.13181e-05
-0.000303157
-0.000179005
9.12031e-05
-0.000148217
9.57183e-05
-0.00036056
3.99786e-05
0.000142874
-0.000314682
0.000125438
4.35575e-05
-0.000202735
0.000208756
-7.374e-05
-4.54121e-05
0.000279807
-0.000188552
0.000129956
0.000337742
-0.000283219
0.000295385
0.000385458
-0.000346258
0.000426293
0.000424742
-0.000373341
0.000505305
0.00045171
-0.000364991
0.00052321
0.000453432
-0.00032335
0.000479031
0.000409732
-0.000249978
0.000379331
0.000306532
-0.000148485
0.000237711
0.000157372
-3.01873e-05
7.22899e-05
9.44949e-06
8.44732e-05
-9.42233e-05
-8.33925e-05
0.000172498
-0.000236074
-9.84314e-05
0.000215734
-4.99257e-05
0.000203799
-0.000321928
0.000151709
0.000263755
-0.000285959
0.000256302
0.000138984
-0.000181265
0.000351724
-7.66454e-06
-2.92667e-05
0.000426925
-0.000150132
0.000141948
0.000481588
-0.000264885
0.000304672
0.000519771
-0.000336326
0.000435354
0.000544526
-0.000358393
0.000517852
0.000553212
-0.000332219
0.000543843
0.000533853
-0.000263131
0.000512429
0.000467535
-0.000158499
0.000428258
0.000342817
-2.94262e-05
0.000299989
0.000178188
0.000106974
0.00014096
2.79545e-05
0.000228599
-2.82634e-05
-5.29677e-05
0.000316061
-0.000178308
-4.69504e-05
0.000354471
2.32163e-05
0.00033114
-0.000305168
0.000213546
0.000391067
-0.000272502
0.000341951
0.000250688
-0.000169521
0.00045414
8.17064e-05
-1.8266e-05
0.000537443
-8.65154e-05
0.000152502
0.000590978
-0.000223541
0.000315074
0.000619622
-0.000307982
0.000446765
0.000628328
-0.000330442
0.000532145
0.000616382
-0.000291651
0.000563233
0.000573046
-0.000199586
0.000538756
0.000480359
-6.77956e-05
0.000460882
0.000330809
8.40875e-05
0.0003361
0.000151205
0.000232287
0.000175226
1.68487e-06
0.000355163
6.62371e-07
-6.47271e-05
0.000439867
-0.000155181
-3.80227e-05
0.000476488
5.09531e-05
0.000450386
-0.000331329
0.000207552
0.000499234
-0.00029111
0.000357617
0.00035818
-0.000180006
0.000489022
0.000182331
-2.09098e-05
0.000586654
-1.72185e-06
0.000156424
0.000646305
-0.000158778
0.000323659
0.000671023
-0.000260352
0.000458329
0.000666845
-0.00029128
0.000545061
0.0006354
-0.000249554
0.000575284
0.00056782
-0.000144209
0.000547109
0.000448333
4.5016e-06
0.000461332
0.000274827
0.00016997
0.000324271
8.38792e-05
0.000319997
0.000150687
-6.12252e-05
0.000437537
-3.28378e-05
-0.000113596
0.000517287
-0.000191353
-7.31805e-05
0.000554205
2.32873e-05
0.000532615
-0.000412486
0.000133164
0.000567391
-0.00035866
0.000293831
0.000437312
-0.000231674
0.000437311
0.000273318
-5.38463e-05
0.000549187
8.97462e-05
0.000143718
0.000621271
-8.0225e-05
0.000329224
0.000651733
-0.000202183
0.000476287
0.000644794
-0.000251844
0.000566015
0.00060355
-0.000219518
0.000587761
0.000520859
-0.00011198
0.000539808
0.000382516
4.50917e-05
0.000427562
0.000192634
0.000212295
0.000262782
-2.6793e-06
0.000355767
6.84501e-05
-0.00014233
0.000463941
-0.00012522
-0.000185293
0.000537947
-0.00028557
-0.00014071
0.000575943
-4.83731e-05
0.000561418
-0.000534823
0.000585316
-0.000475207
0.000469687
-0.000334408
0.000328403
-0.000131253
0.000160177
0.000102254
-9.94271e-06
0.00032689
-0.000146942
0.000505063
-0.000218379
0.00060702
-0.000203895
0.000615181
-0.000104653
0.000529437
4.90826e-05
0.00036968
0.000208746
0.000169111
0.000339502
-4.28558e-05
0.000435266
-0.000240279
0.000503099
-0.000401413
0.000543353
0.000538262
-0.000556344
-0.00010488
0.000646943
-0.000431174
4.56116e-05
0.000447036
-0.0002518
0.000179341
0.00026057
-4.35366e-05
0.000284328
8.25652e-05
0.000164424
0.000352842
-6.83034e-05
0.000343477
0.000382725
-0.000168301
0.000470391
0.00037906
-0.000196105
0.0005296
0.000347605
-0.000139099
0.000513047
0.000283606
-1.89915e-06
0.000417938
0.000171654
0.000189379
0.000249102
9.84129e-06
0.000393067
2.74243e-05
-0.000165088
0.000569249
-0.000207369
-0.000293723
0.000691532
-0.000409612
-0.000339381
0.000748669
-0.00054539
-0.000306052
0.000741776
-0.000221397
0.00067189
-0.000604836
-0.000261223
0.000584003
-0.000477609
-0.000123284
0.00040984
-0.000290269
2.73177e-06
0.000252498
-6.68341e-05
0.000109124
9.88059e-05
0.000162508
0.000189607
-3.91385e-05
0.000364832
0.00024023
-0.000140736
0.000509668
0.000261671
-0.000182916
0.000574445
0.000254483
-0.000147161
0.000548409
0.000209913
-3.19938e-05
0.000433117
0.00011163
0.000138082
0.000242514
-4.0164e-05
0.000320215
5.16453e-06
-0.000208268
0.000475249
-0.000237638
-0.000338047
0.000582134
-0.000443644
-0.000396316
0.000634831
-0.000583616
-0.000383911
0.000636478
-0.000314479
0.000587802
-0.000605746
-0.000394757
0.00047228
-0.000481456
-0.00027481
0.000320069
-0.000295898
-0.000164186
0.000185524
-7.15039e-05
-6.52189e-05
5.43823e-05
0.000163222
1.79776e-05
-6.53461e-05
0.000374894
8.2731e-05
-0.000157972
0.000529684
0.000127917
-0.000203907
0.00059997
0.000149398
-0.00018418
0.000571369
0.00013278
-9.26444e-05
0.000446191
5.79999e-05
5.24815e-05
0.000243698
-7.59626e-05
0.000213815
-1.34411e-06
-0.000233981
0.00035541
-0.000245519
-0.000365061
0.000456583
-0.000449123
-0.000436592
0.000509775
-0.000586231
-0.000444624
0.000517231
-0.00039121
0.00048242
-0.000572748
-0.000488031
0.000331093
-0.000453535
-0.000386769
0.000199263
-0.0002747
-0.000293133
8.17086e-05
-5.73344e-05
-0.000205665
-3.18016e-05
0.000171391
-0.000126186
-0.00013432
0.000379427
-5.50654e-05
-0.000213768
0.000533156
6.80928e-06
-0.000255201
0.000603591
5.27613e-05
-0.000243316
0.000574238
6.39012e-05
-0.000170826
0.000446953
1.56782e-05
-4.92778e-05
0.000243342
-9.6905e-05
9.22465e-05
1.08173e-06
-0.000243154
0.000222284
-0.000236218
-0.00037499
0.000319351
-0.000431226
-0.00045828
0.000373252
-0.000560415
-0.000483724
0.000384447
-0.000445785
0.000359322
-0.000524264
-0.000533143
0.000181163
-0.000410643
-0.000447976
6.71573e-05
-0.000240448
-0.000368995
-3.79736e-05
-3.42832e-05
-0.000293143
-0.000137985
0.000181782
-0.00021995
-0.000226072
0.00037706
-0.000148052
-0.000291676
0.00052003
-7.74244e-05
-0.000324092
0.000583625
-1.56246e-05
-0.000313103
0.000552099
1.62144e-05
-0.000253216
0.000427308
-9.55568e-06
-0.000151255
0.000230936
-0.000102479
-2.78777e-05
2.54786e-07
-0.000237187
9.057e-05
-0.000222837
-0.000368495
0.000182616
-0.000403976
-0.000460033
0.000235799
-0.000521534
-0.000497845
0.000248468
-0.000472691
0.00022909
-0.000476119
-0.000529775
4.19002e-05
-0.00036785
-0.000456236
-5.86649e-05
-0.000207222
-0.000388057
-0.000155219
-1.38825e-05
-0.000321177
-0.000245795
0.000186243
-0.000254433
-0.000322021
0.000363982
-0.000184921
-0.000374573
0.000490491
-0.000111928
-0.000396205
0.000542283
-4.32375e-05
-0.000381641
0.00050652
-5.01344e-07
-0.000328341
0.00038602
-1.22976e-05
-0.000240526
0.000201663
-9.12456e-05
-0.000132348
-1.16937e-05
-0.000216759
-2.47906e-05
-0.000215854
-0.000346299
6.17655e-05
-0.000379572
-0.000441914
0.000112981
-0.000483301
-0.000486049
0.000125007
-0.00046896
0.000107415
-0.000437662
-0.000483169
-6.85185e-05
-0.000334537
-0.000416242
-0.000162465
-0.000183084
-0.000353727
-0.000255899
-3.16245e-06
-0.000292845
-0.000341363
0.000180144
-0.000231477
-0.000409002
0.000339073
-0.00016582
-0.000450353
0.000447613
-9.48614e-05
-0.000461091
0.000486187
-2.65328e-05
-0.000440113
0.000445602
1.78988e-05
-0.000387899
0.000330204
1.07135e-05
-0.000307791
0.000159718
-6.16937e-05
-0.000209368
-3.43608e-05
-0.000181891
-0.000109188
-0.000217956
-0.000309394
-2.66101e-05
-0.000363344
-0.000405324
2.26393e-05
-0.000453172
-0.000450112
3.24752e-05
-0.000435317
1.25216e-05
-0.00041143
-0.000401345
-0.000136234
-0.000312869
-0.000335991
-0.000232176
-0.000170281
-0.000275049
-0.000329556
-3.10048e-06
-0.000217212
-0.000415747
0.000164335
-0.000159961
-0.000479211
0.000305902
-9.89105e-05
-0.000512103
0.000398415
-3.29655e-05
-0.000512486
0.000425879
2.97494e-05
-0.000482596
0.000382176
6.88534e-05
-0.000425676
0.000272969
5.84085e-05
-0.000345325
0.000116598
-1.44523e-05
-0.000248679
-5.89228e-05
-0.000133632
-0.00014955
-0.000223634
-0.000259721
-6.67767e-05
-0.000353026
-0.00035312
-1.80576e-05
-0.000431202
-0.000393518
-1.19799e-05
-0.000376298
-3.79816e-05
-0.000394213
-0.000292924
-0.000151386
-0.000300524
-0.000225775
-0.00025966
-0.000165934
-0.000163319
-0.000369679
-9.85261e-06
-0.000106561
-0.000463856
0.00014416
-5.28446e-05
-0.00052859
0.0002718
2.63547e-06
-0.000556298
0.000352575
6.11217e-05
-0.000546861
0.000373342
0.000114512
-0.000505153
0.000330107
0.000143514
-0.00043692
0.00022895
0.000124363
-0.00034705
8.64555e-05
4.5788e-05
-0.000242352
-7.27819e-05
-7.60054e-05
-0.000135944
-0.000222541
-0.000201429
-4.74969e-05
-0.000340827
-0.00029009
2.93525e-06
-0.000412693
-0.000322144
4.63732e-06
-0.000297714
-3.33423e-05
-0.000380765
-0.000167601
-0.000109563
-0.00029256
-9.63776e-05
-0.000240859
-0.000164748
-3.07054e-05
-0.000372809
-1.7261e-05
2.55782e-05
-0.000482875
0.000126889
7.5156e-05
-0.000554867
0.000245183
0.000123278
-0.000580934
0.000319531
0.000171614
-0.000562153
0.000338921
0.000212648
-0.00050546
0.000300432
0.00022842
-0.000419066
0.000209671
0.000197267
-0.000310164
8.09951e-05
0.000109658
-0.000187304
-6.45486e-05
-1.71717e-05
-6.51515e-05
-0.000204327
-0.000142069
3.43509e-05
-0.000318165
-0.000223486
8.85525e-05
-0.000390366
-0.000243051
8.43119e-05
-0.000207288
2.94847e-05
-0.000366743
-3.73873e-05
-1.32724e-05
-0.000284442
4.04467e-05
-0.000175568
-0.000161748
0.000110308
-0.000337447
-1.96789e-05
0.000165749
-0.000470792
0.000118825
0.000209467
-0.000556034
0.000232664
0.000247496
-0.000584315
0.000305715
0.000282485
-0.000557262
0.000328475
0.000308201
-0.000483304
0.000298383
0.000308325
-0.000373164
0.000220033
0.000262996
-0.000237358
0.000105188
0.000164165
-8.81469e-05
-2.91009e-05
3.08981e-05
5.60319e-05
-0.000163963
-9.27795e-05
0.000170045
-0.000280272
-0.000163676
0.000228997
-0.000359832
-0.000166317
0.00021856
-0.000114991
0.000144345
-0.000351885
8.11314e-05
0.000128687
-0.000274856
0.000170122
-6.77201e-05
-0.0001547
0.000245985
-0.000263498
-1.40998e-05
0.000300615
-0.000425598
0.000123286
0.000336894
-0.000529697
0.000237192
0.00036202
-0.000564757
0.000312943
0.000380377
-0.000532037
0.000342054
0.000387816
-0.000440945
0.000322014
0.00036992
-0.000304686
0.000256304
0.0003082
-0.000137993
0.000153901
0.000195861
4.12808e-05
2.76466e-05
5.48638e-05
0.000209263
-0.000107528
-6.65439e-05
0.000337538
-0.000232344
-0.000123932
0.000401133
-0.000324591
-0.000105963
0.000386364
-3.54823e-05
0.000295474
-0.000343544
0.000165594
0.00029665
-0.000268187
0.000272139
7.33144e-05
-0.000145869
0.000358812
-0.000153439
-1.50771e-06
0.000415581
-0.000345843
0.000139771
0.000445342
-0.000473268
0.000257813
0.000456631
-0.000520635
0.000338807
0.000456389
-0.000487448
0.000374863
0.000443336
-0.000383227
0.000363376
0.000405183
-0.000223361
0.000306705
0.000324585
-2.75099e-05
0.000211331
0.000196074
0.00017925
8.6195e-05
4.59615e-05
0.000366325
-5.5814e-05
-7.30185e-05
0.000503647
-0.00019358
-0.00011627
0.000569971
-0.000300124
-7.77843e-05
0.000554852
1.15055e-05
0.000456773
-0.000357431
0.000191448
0.000462645
-0.000276252
0.00032008
0.00022906
-0.000143833
0.000424425
-1.57013e-05
1.22648e-05
0.00049104
-0.000233278
0.000164457
0.000520611
-0.000386239
0.000291574
0.000521816
-0.000452653
0.000379846
0.000504498
-0.000427661
0.000421399
0.000471181
-0.000318952
0.000413379
0.000412138
-0.000143145
0.000356887
0.000311039
7.45403e-05
0.000257215
0.000165395
0.00030032
0.000121363
6.01852e-06
0.000495792
-3.61227e-05
-0.000110986
0.000632991
-0.000189786
-0.000143455
0.000698136
-0.00030884
-9.10862e-05
0.000686561
9.67295e-06
0.000593775
-0.000408649
0.000147026
0.000594761
-0.000315904
0.000293607
0.000371039
-0.000165188
0.000416847
0.000130181
1.4292e-05
0.000500218
-9.89119e-05
0.000190588
0.000539247
-0.000275157
0.000337893
0.000539678
-0.00036735
0.00043927
0.000512998
-0.000361721
0.000484963
0.000466186
-0.000260216
0.00047139
0.000392514
-7.87822e-05
0.000400713
0.00027607
0.000150737
0.000279497
0.000115975
0.000382932
0.000118629
-5.14661e-05
0.000574119
-6.15817e-05
-0.000168296
0.000701462
-0.000231588
-0.000196753
0.00076125
-0.000360288
-0.000141305
0.000754862
-3.97686e-05
0.000676272
-0.000494909
0.000666673
-0.000396246
0.00046564
-0.000226564
0.000248953
-1.34295e-05
2.85805e-05
0.000204742
-0.000158081
0.000391268
-0.00027341
0.000518968
-0.000292565
0.000571965
-0.000208093
0.000544285
-3.29739e-05
0.000440418
0.000194288
0.000277425
0.000417065
8.19244e-05
0.000589791
-0.000117957
0.000698622
-0.000296767
0.000750216
-0.000432458
0.000750544
0.000691721
-0.000400225
-1.96549e-05
0.000656543
-0.000259638
0.0001129
0.00040355
-8.17086e-05
0.000226448
0.000169103
0.000106512
0.000303702
-3.52112e-05
0.000276617
0.000338189
-0.000186244
0.000405479
0.000334656
-0.000261455
0.000478436
0.000306931
-0.000244747
0.00048936
0.000266292
-0.000131196
0.000439065
0.00020921
6.66542e-05
0.000331968
0.000119816
0.000316845
0.000174663
-8.26098e-06
0.000573172
-1.6753e-05
-0.000149286
0.000786742
-0.00021216
-0.000253616
0.000919898
-0.000372763
-0.000285192
0.000955662
-0.000467873
-0.000242651
0.000900197
-0.000151519
0.000770931
-0.0004218
-0.000138013
0.000613585
-0.00028022
-1.45257e-05
0.000395685
-9.34049e-05
9.72831e-05
0.000194848
0.000113115
0.000181874
1.41143e-05
0.000308631
0.000232008
-0.000128475
0.000463581
0.000249559
-0.00021059
0.000555278
0.000244113
-0.000211795
0.000571972
0.000223085
-0.000120648
0.000513652
0.000180234
5.53024e-05
0.000388628
9.88859e-05
0.000284037
0.000210686
-2.58763e-05
0.000515772
1.77664e-06
-0.000167027
0.0007019
-0.00020523
-0.000277503
0.000813027
-0.000374179
-0.000323662
0.00084225
-0.000477264
-0.000301849
0.000798761
-0.000227339
0.000696936
-0.000407558
-0.000247745
0.00049841
-0.000271823
-0.000141101
0.000310909
-8.81492e-05
-4.13231e-05
0.000140456
0.000120682
3.97233e-05
-1.22988e-05
0.000325185
9.69208e-05
-0.000134761
0.000493515
0.000132195
-0.000208939
0.000597686
0.000151931
-0.000215896
0.000620519
0.000157979
-0.000141908
0.000559596
0.000138632
9.87999e-06
0.000424714
7.41753e-05
0.000212075
0.00023489
-3.9975e-05
0.000417737
1.78231e-05
-0.000176841
0.000582291
-0.000191428
-0.000291601
0.000679932
-0.000358896
-0.000351657
0.000705239
-0.000460334
-0.000350225
0.000667045
-0.000294141
0.000580047
-0.000368727
-0.000332253
0.00033775
-0.000241071