/*--------------------------------*- C++ -*----------------------------------*\
| =========                 |                                                 |
| \\      /  F ield         | OpenFOAM: The Open Source CFD Toolbox           |
|  \\    /   O peration     | Version:  3.0.0                                 |
|   \\  /    A nd           | Web:      www.OpenFOAM.org                      |
|    \\/     M anipulation  |                                                 |
\*---------------------------------------------------------------------------*/
FoamFile
{
    version     2.0;
    format      ascii;
    class       volVectorField;
    location    "5.5";
    object      U;
}
// * * * * * * * * * * * * * * * * * * * * * * * * * * * * * * * * * * * * * //

dimensions      [0 1 -1 0 0 0 0];

internalField   nonuniform List<vector> 
4096
(
(-0.176923 -0.0247686 0.075518)
(-0.154303 0.00987655 0.0726111)
(-0.131895 0.0388191 0.0634901)
(-0.0924699 0.0637208 0.0463548)
(-0.0428826 0.0844581 0.0228462)
(0.0106975 0.0997074 -0.00383486)
(0.061618 0.107829 -0.0292983)
(0.102415 0.106788 -0.0487738)
(0.125898 0.0932243 -0.0593078)
(0.126593 0.0628078 -0.0615356)
(0.102117 0.0161272 -0.0572846)
(0.055037 -0.0344161 -0.0455836)
(-0.00564253 -0.0699809 -0.02487)
(-0.0674717 -0.0804506 0.00221245)
(-0.120837 -0.0705662 0.0291684)
(-0.141792 -0.0518083 0.0476869)
(-0.207841 -0.0668279 0.0622539)
(-0.179863 -0.0356796 0.0609765)
(-0.156858 -0.00974923 0.0546387)
(-0.114733 0.0139006 0.0404418)
(-0.0613351 0.0355082 0.0191329)
(-0.00327253 0.0538288 -0.00715078)
(0.0522619 0.0665854 -0.0348502)
(0.0966197 0.0704117 -0.0592277)
(0.121061 0.0605698 -0.075956)
(0.119252 0.0327312 -0.0832356)
(0.0896522 -0.0105252 -0.0807711)
(0.0372174 -0.0557633 -0.0677067)
(-0.0267876 -0.0870755 -0.0446333)
(-0.0901094 -0.0977365 -0.0159595)
(-0.145012 -0.0918982 0.0122578)
(-0.163468 -0.0763262 0.0325825)
(-0.22037 -0.103231 0.0510605)
(-0.190155 -0.0763181 0.052602)
(-0.167157 -0.0551128 0.0494507)
(-0.12439 -0.0353475 0.0381741)
(-0.0700598 -0.0160403 0.0188493)
(-0.0107101 0.0024305 -0.00713546)
(0.0466487 0.0183596 -0.0370242)
(0.0932137 0.0282834 -0.0662774)
(0.119375 0.026447 -0.0895196)
(0.117506 0.006911 -0.102562)
(0.0857139 -0.0293238 -0.103026)
(0.0302925 -0.0701549 -0.0899794)
(-0.0358872 -0.100432 -0.0653955)
(-0.100197 -0.113117 -0.0347087)
(-0.155602 -0.110744 -0.00416392)
(-0.172238 -0.0965203 0.0192883)
(-0.216879 -0.128686 0.0425353)
(-0.188218 -0.10626 0.0480702)
(-0.165747 -0.0891803 0.0487152)
(-0.1236 -0.0727863 0.0406615)
(-0.0699166 -0.0557532 0.0234445)
(-0.0111397 -0.0377873 -0.00212521)
(0.0459986 -0.0198838 -0.0338473)
(0.0931005 -0.00501132 -0.0676154)
(0.12058 0.000803133 -0.0974196)
(0.119985 -0.00992741 -0.116945)
(0.0885308 -0.0386319 -0.121527)
(0.0327433 -0.0752913 -0.109706)
(-0.0337242 -0.105411 -0.0843906)
(-0.0979526 -0.120904 -0.0519241)
(-0.152953 -0.122355 -0.0188618)
(-0.169418 -0.110075 0.00805156)
(-0.202526 -0.140178 0.0365508)
(-0.178064 -0.121884 0.0467354)
(-0.156507 -0.10775 0.0514466)
(-0.115733 -0.0937139 0.0468037)
(-0.0635111 -0.0784883 0.0319243)
(-0.00623354 -0.0614134 0.00715218)
(0.0494909 -0.0428714 -0.0257575)
(0.0957815 -0.0250803 -0.0630745)
(0.123717 -0.0136091 -0.0986117)
(0.124832 -0.0167552 -0.124502)
(0.0955374 -0.0384761 -0.13391)
(0.041686 -0.0714679 -0.124393)
(-0.0232711 -0.102038 -0.0992945)
(-0.0864144 -0.120724 -0.0656793)
(-0.140419 -0.125921 -0.0305414)
(-0.158306 -0.116164 -0.000615998)
(-0.182048 -0.136904 0.0331906)
(-0.163146 -0.121941 0.047764)
(-0.142877 -0.109436 0.0561248)
(-0.103926 -0.0966617 0.0546213)
(-0.0535434 -0.0826245 0.0420895)
(0.00187739 -0.0665415 0.0185452)
(0.0557072 -0.0483714 -0.0145908)
(0.100468 -0.0295826 -0.0539269)
(0.12811 -0.0149508 -0.0934008)
(0.13082 -0.0127838 -0.12436)
(0.104653 -0.02903 -0.138343)
(0.0543561 -0.0591932 -0.13172)
(-0.00764242 -0.090579 -0.10774)
(-0.0688512 -0.112366 -0.0738905)
(-0.121546 -0.120828 -0.0376194)
(-0.141965 -0.11379 -0.00577948)
(-0.158585 -0.120227 0.032928)
(-0.145723 -0.107416 0.0506827)
(-0.127132 -0.0952255 0.0615239)
(-0.0902978 -0.0826234 0.0622618)
(-0.0419297 -0.0690562 0.051691)
(0.0115382 -0.0537896 0.0296553)
(0.0633735 -0.0365436 -0.00263702)
(0.106375 -0.0182263 -0.042083)
(0.133339 -0.0027579 -0.0829582)
(0.137458 0.00204799 -0.116606)
(0.114864 -0.0108758 -0.133785)
(0.0691406 -0.0393897 -0.129857)
(0.0111406 -0.0718768 -0.107587)
(-0.047517 -0.0963981 -0.0745008)
(-0.0988302 -0.107395 -0.0383568)
(-0.122437 -0.102781 -0.00614085)
(-0.133688 -0.0931374 0.0365325)
(-0.126968 -0.0810206 0.0554489)
(-0.110497 -0.0679374 0.0668798)
(-0.0760313 -0.0545313 0.0683509)
(-0.0298039 -0.0407391 0.0588569)
(0.0216832 -0.025972 0.0382956)
(0.0715725 -0.00985158 0.00783026)
(0.112905 0.00704378 -0.0296778)
(0.13919 0.0215281 -0.0690458)
(0.14471 0.0264882 -0.102241)
(0.125989 0.0145647 -0.120233)
(0.0855291 -0.01371 -0.117941)
(0.0322787 -0.0476782 -0.0975063)
(-0.0234277 -0.074486 -0.0660759)
(-0.0735214 -0.0871461 -0.0313823)
(-0.10069 -0.0841696 -0.000423905)
(-0.108055 -0.0595784 0.0445549)
(-0.107439 -0.046545 0.0622101)
(-0.0935918 -0.0315366 0.0719505)
(-0.0617567 -0.0165639 0.072174)
(-0.0178005 -0.00198916 0.0623835)
(0.0316872 0.0126033 0.042836)
(0.0797289 0.0275683 0.0148553)
(0.119585 0.0424804 -0.0188678)
(0.14544 0.0546457 -0.0538221)
(0.152545 0.0577069 -0.0831424)
(0.138014 0.0446067 -0.0989804)
(0.103367 0.0150716 -0.0966206)
(0.0554778 -0.0208028 -0.0777198)
(0.00302315 -0.0493754 -0.0486226)
(-0.0461293 -0.0626507 -0.016505)
(-0.0770679 -0.0600282 0.0118152)
(-0.0824764 -0.0239302 0.0567595)
(-0.087725 -0.00829001 0.071041)
(-0.0769561 0.00944377 0.0769226)
(-0.0479844 0.0264682 0.0738037)
(-0.00639704 0.0421329 0.0620244)
(0.0410983 0.0567026 0.0425778)
(0.0874277 0.0704477 0.0172302)
(0.126062 0.082964 -0.0114187)
(0.151721 0.0918005 -0.0396204)
(0.160551 0.0912909 -0.0620811)
(0.150335 0.075064 -0.0729039)
(0.121844 0.0428377 -0.0686283)
(0.0797781 0.00473839 -0.0507366)
(0.0308008 -0.0248252 -0.0243415)
(-0.0176295 -0.0373675 0.00455803)
(-0.0522791 -0.0333823 0.0296114)
(-0.0589161 0.00935122 0.0715532)
(-0.0692373 0.0292391 0.0815206)
(-0.0616213 0.0503195 0.0822238)
(-0.0355092 0.069622 0.0740859)
(0.00374579 0.0863795 0.058652)
(0.049358 0.100765 0.038077)
(0.0941839 0.112983 0.0148496)
(0.13184 0.122557 -0.00836701)
(0.15741 0.127113 -0.0286343)
(0.16775 0.121543 -0.0424994)
(0.161392 0.100396 -0.0464724)
(0.138599 0.0642169 -0.0390402)
(0.102079 0.0239023 -0.0216958)
(0.0564733 -0.00542314 0.00205976)
(0.00878623 -0.0154254 0.0278797)
(-0.0287151 -0.00799909 0.050153)
(-0.0417693 0.0357892 0.0860605)
(-0.0551343 0.0612824 0.0923057)
(-0.0497267 0.0862927 0.087936)
(-0.0258145 0.108024 0.0742105)
(0.0115361 0.125708 0.0540578)
(0.0555965 0.139486 0.0311254)
(0.0992193 0.149576 0.00895479)
(0.136072 0.15543 -0.00956648)
(0.161417 0.154634 -0.0222983)
(0.172565 0.142539 -0.027696)
(0.1686 0.114762 -0.0248951)
(0.149535 0.0736377 -0.0143365)
(0.116649 0.0316379 0.00264604)
(0.0733254 0.00427569 0.0243892)
(0.0265267 -0.00123325 0.0481258)
(-0.0118973 0.011456 0.0688135)
(-0.0376941 0.0510048 0.0967378)
(-0.0506717 0.0826002 0.100847)
(-0.0451061 0.11207 0.0930203)
(-0.0215615 0.136659 0.0747443)
(0.0151436 0.155423 0.0500324)
(0.0584757 0.168386 0.0240756)
(0.101393 0.175808 0.00168312)
(0.137576 0.177141 -0.0138413)
(0.162305 0.169929 -0.0210443)
(0.173045 0.149923 -0.0201299)
(0.168991 0.114236 -0.0125257)
(0.150012 0.0679022 -2.16068e-05)
(0.117053 0.0254514 0.0167818)
(0.0737183 0.00185392 0.0376318)
(0.0274624 0.00193355 0.0605344)
(-0.00967747 0.0199627 0.0805258)
(-0.052522 0.0515264 0.100969)
(-0.061276 0.0880175 0.10405)
(-0.0526972 0.121674 0.0949694)
(-0.0267456 0.14961 0.0745683)
(0.0116812 0.170262 0.0469478)
(0.0561115 0.183022 0.01819)
(0.0995439 0.187919 -0.0056901)
(0.135592 0.184422 -0.0206275)
(0.159416 0.170296 -0.0253787)
(0.168212 0.141882 -0.0213648)
(0.16092 0.0984447 -0.0115776)
(0.137606 0.0482068 0.00181003)
(0.100403 0.00720993 0.0189676)
(0.0543982 -0.0115279 0.0401747)
(0.00764583 -0.00638109 0.0631294)
(-0.0270008 0.0145807 0.0823748)
(-0.0863448 0.037022 0.0979857)
(-0.0883737 0.0755534 0.100048)
(-0.0759955 0.11099 0.0912471)
(-0.0458132 0.141063 0.0711162)
(-0.00288598 0.163809 0.0426783)
(0.0461832 0.17761 0.0116083)
(0.0938209 0.181622 -0.0152917)
(0.132506 0.175052 -0.0324634)
(0.156027 0.155764 -0.0375052)
(0.16075 0.120941 -0.032441)
(0.146119 0.0720598 -0.0215683)
(0.114219 0.0201914 -0.00722515)
(0.069801 -0.0179952 0.0111139)
(0.0196899 -0.0320669 0.0334845)
(-0.0284755 -0.0236731 0.0568256)
(-0.0602484 -0.00277936 0.075035)
(-0.130925 0.0126749 0.0885253)
(-0.126622 0.0491045 0.0895363)
(-0.112764 0.0823042 0.0813855)
(-0.078628 0.1118 0.0623027)
(-0.0294261 0.136207 0.0340957)
(0.0280958 0.153245 0.0012814)
(0.0851362 0.160633 -0.0293926)
(0.131326 0.156003 -0.050553)
(0.156682 0.135897 -0.0576925)
(0.155128 0.0973772 -0.0523258)
(0.128246 0.0449122 -0.0398336)
(0.0843516 -0.00658553 -0.0235409)
(0.0327014 -0.0406855 -0.00335845)
(-0.0201079 -0.0507191 0.0201788)
(-0.0692251 -0.0412869 0.0439102)
(-0.097681 -0.0228764 0.0615244)
(-0.181034 -0.016807 0.123)
(-0.150172 0.0226105 0.100478)
(-0.118841 0.0566158 0.0759258)
(-0.0710503 0.0840201 0.0465998)
(-0.0154245 0.103599 0.015299)
(0.0402102 0.114406 -0.013175)
(0.088526 0.116561 -0.0332907)
(0.122878 0.110373 -0.0402974)
(0.138195 0.0940284 -0.0327044)
(0.13122 0.0631184 -0.0139793)
(0.100607 0.0168059 0.00984022)
(0.0489066 -0.0340305 0.0348723)
(-0.0148574 -0.0710578 0.0596573)
(-0.0781453 -0.0830884 0.0820934)
(-0.131246 -0.0727959 0.0987534)
(-0.15036 -0.050755 0.103539)
(-0.204106 -0.062693 0.106015)
(-0.169086 -0.0259709 0.0864919)
(-0.137229 0.00679923 0.0664052)
(-0.0867333 0.0356914 0.0415603)
(-0.0268751 0.0593153 0.0134772)
(0.0339679 0.075925 -0.0142798)
(0.0874296 0.084195 -0.036766)
(0.125105 0.0828638 -0.0486013)
(0.140268 0.069124 -0.0467004)
(0.129366 0.0392093 -0.0328713)
(0.0927669 -0.00519226 -0.0121139)
(0.0359228 -0.0520372 0.0116315)
(-0.0304309 -0.0859475 0.0361183)
(-0.0944828 -0.0993614 0.0587043)
(-0.148528 -0.0946163 0.0764978)
(-0.166143 -0.0772252 0.0841479)
(-0.210512 -0.103228 0.0860279)
(-0.17435 -0.070935 0.0698103)
(-0.142813 -0.0428103 0.0533333)
(-0.092121 -0.0169786 0.0320639)
(-0.0315119 0.00606229 0.00679276)
(0.0308093 0.0251773 -0.0197978)
(0.0864281 0.0389016 -0.0436474)
(0.126231 0.0449907 -0.0595754)
(0.14223 0.0392274 -0.0633911)
(0.129981 0.0167235 -0.0548158)
(0.0904025 -0.0215521 -0.0371706)
(0.0307421 -0.064595 -0.0142563)
(-0.0369293 -0.0981386 0.0107212)
(-0.101014 -0.11444 0.0343921)
(-0.154717 -0.114371 0.0538562)
(-0.170847 -0.0997553 0.0646851)
(-0.203756 -0.132936 0.0649903)
(-0.169458 -0.105549 0.0528447)
(-0.138618 -0.0820857 0.0397259)
(-0.0889696 -0.0596609 0.0215132)
(-0.0294506 -0.0381538 -0.00131768)
(0.0319699 -0.0180405 -0.0266355)
(0.0871528 -0.000426012 -0.0511332)
(0.127127 0.0121753 -0.0702333)
(0.143569 0.0145743 -0.0792446)
(0.131364 0.000445002 -0.0759514)
(0.0913272 -0.0308669 -0.0617029)
(0.0314435 -0.0699524 -0.0399015)
(-0.0356376 -0.103391 -0.0145614)
(-0.0984926 -0.122828 0.0102229)
(-0.15067 -0.12736 0.0313746)
(-0.166202 -0.115928 0.0453027)
(-0.189399 -0.148733 0.0448578)
(-0.158654 -0.125932 0.0370476)
(-0.128682 -0.106313 0.0270266)
(-0.0806614 -0.0868399 0.0115172)
(-0.023127 -0.0671265 -0.00910125)
(0.0361077 -0.0471566 -0.0330402)
(0.0891487 -0.0275742 -0.0575678)
(0.127541 -0.0106705 -0.0787543)
(0.143439 -0.00189247 -0.0918983)
(0.131727 -0.0085867 -0.0933866)
(0.0929717 -0.0333094 -0.0826938)
(0.0350157 -0.068703 -0.0624961)
(-0.029741 -0.102178 -0.0372512)
(-0.0902503 -0.124484 -0.0116884)
(-0.14012 -0.13294 0.0107709)
(-0.155802 -0.124757 0.0271192)
(-0.172261 -0.149719 0.0278133)
(-0.145603 -0.130635 0.0237225)
(-0.116643 -0.113686 0.0161083)
(-0.0705267 -0.0964022 0.00272552)
(-0.0153509 -0.0783407 -0.0159514)
(0.0411607 -0.0591893 -0.0383626)
(0.0912626 -0.0392183 -0.0622343)
(0.127074 -0.0203382 -0.0842623)
(0.141617 -0.00777453 -0.100029)
(0.13036 -0.00923753 -0.105163)
(0.0937889 -0.0288433 -0.0976666)
(0.0391254 -0.0612804 -0.079282)
(-0.0220865 -0.0948099 -0.0545372)
(-0.0794532 -0.11931 -0.0286402)
(-0.126626 -0.130547 -0.00549424)
(-0.142885 -0.125119 0.0121418)
(-0.155257 -0.136978 0.0162333)
(-0.132606 -0.120361 0.0143358)
(-0.104846 -0.104778 0.0078096)
(-0.0607582 -0.0887371 -0.00445294)
(-0.00803545 -0.0718983 -0.0217372)
(0.0456427 -0.0538132 -0.0426)
(0.0926528 -0.0345144 -0.0651351)
(0.125647 -0.0155874 -0.0866316)
(0.138583 -0.00182916 -0.103145)
(0.127785 -0.000791726 -0.110157)
(0.0938348 -0.017446 -0.104745)
(0.0431649 -0.048086 -0.0877662)
(-0.0138858 -0.0817507 -0.0635593)
(-0.0677974 -0.107644 -0.0376796)
(-0.112337 -0.120344 -0.0145638)
(-0.129467 -0.116686 0.00294808)
(-0.139462 -0.11294 0.0123168)
(-0.120663 -0.0974218 0.0103679)
(-0.0943236 -0.0819695 0.00302278)
(-0.0523109 -0.0662438 -0.00965713)
(-0.00200501 -0.050123 -0.0265149)
(0.0489736 -0.0331123 -0.0460672)
(0.0931551 -0.0151136 -0.0666722)
(0.123704 0.00249254 -0.0861785)
(0.1354 0.0153488 -0.101303)
(0.125397 0.0163706 -0.107883)
(0.0944393 0.000399759 -0.102703)
(0.0481034 -0.0298357 -0.0860219)
(-0.00463718 -0.0639181 -0.0619309)
(-0.0552659 -0.0905191 -0.0362221)
(-0.0977032 -0.103423 -0.0138352)
(-0.116188 -0.10031 0.00208716)
(-0.124655 -0.0807721 0.0175839)
(-0.109776 -0.0650633 0.013011)
(-0.0851462 -0.0487162 0.00255458)
(-0.0452405 -0.0325948 -0.0124982)
(0.00277134 -0.0167953 -0.0302877)
(0.0513453 -0.000819422 -0.0490724)
(0.0932196 0.0155055 -0.0673373)
(0.122047 0.030894 -0.0834357)
(0.133301 0.0413586 -0.0949364)
(0.124791 0.0404248 -0.0984539)
(0.0973414 0.0231887 -0.0911513)
(0.0556154 -0.00800577 -0.07317)
(0.00711017 -0.0429116 -0.0484444)
(-0.0407648 -0.0696736 -0.0229022)
(-0.0820519 -0.0816424 -0.00182986)
(-0.102648 -0.0777862 0.011147)
(-0.110175 -0.0440631 0.0323415)
(-0.0995368 -0.026947 0.0228557)
(-0.076946 -0.00900659 0.00705703)
(-0.0391445 0.00789465 -0.0124309)
(0.00678055 0.0235053 -0.0327467)
(0.0533563 0.0383427 -0.051612)
(0.0935616 0.0526416 -0.0674331)
(0.121511 0.0651757 -0.079013)
(0.133245 0.0722586 -0.0848624)
(0.127044 0.0680166 -0.082769)
(0.103704 0.048029 -0.0709224)
(0.0669094 0.0147328 -0.049959)
(0.0225248 -0.0213223 -0.0238955)
(-0.023283 -0.0476477 0.00146938)
(-0.0645733 -0.0575191 0.0208368)
(-0.0882088 -0.0515304 0.030072)
(-0.095974 -0.00672606 0.0551741)
(-0.0898051 0.0130215 0.0395787)
(-0.0694789 0.0330064 0.0169529)
(-0.0336561 0.0507481 -0.00866391)
(0.0105142 0.0659649 -0.0330696)
(0.0555823 0.0792735 -0.053099)
(0.0947615 0.0910135 -0.0668359)
(0.122578 0.100071 -0.0734068)
(0.135509 0.103016 -0.0722877)
(0.132168 0.0944898 -0.0627184)
(0.113274 0.0706195 -0.0445209)
(0.0814936 0.0343485 -0.0194819)
(0.0409211 -0.00294565 0.00815327)
(-0.00357205 -0.0279542 0.0331764)
(-0.0458687 -0.034337 0.0508496)
(-0.0731539 -0.0246383 0.0565791)
(-0.0839056 0.0266089 0.0825179)
(-0.0816258 0.0504643 0.0615459)
(-0.0632367 0.0730187 0.0321336)
(-0.0289011 0.0915791 -0.000334446)
(0.0140825 0.105997 -0.0299805)
(0.0582325 0.117132 -0.0523458)
(0.0969481 0.125554 -0.0648871)
(0.125088 0.130381 -0.0668609)
(0.139448 0.128419 -0.0586375)
(0.13885 0.114691 -0.0411192)
(0.123864 0.0858865 -0.0161946)
(0.0961589 0.0459175 0.0127273)
(0.0582518 0.00764479 0.0413031)
(0.0141192 -0.0148955 0.0656518)
(-0.0296723 -0.0163159 0.0821088)
(-0.0601258 -0.00134827 0.0857544)
(-0.0787004 0.0502425 0.108865)
(-0.0779958 0.0798913 0.0852581)
(-0.0601225 0.106099 0.0512445)
(-0.0260001 0.126017 0.0128856)
(0.0168717 0.139629 -0.0222262)
(0.0609235 0.148136 -0.0479221)
(0.0996852 0.152532 -0.0606501)
(0.128268 0.152319 -0.0595046)
(0.143653 0.144546 -0.0455708)
(0.144727 0.124474 -0.0214648)
(0.131684 0.0895691 0.00868214)
(0.105349 0.0454694 0.0398104)
(0.067473 0.00681888 0.0680478)
(0.0221645 -0.0122093 0.0912963)
(-0.0231374 -0.00792534 0.107183)
(-0.0549093 0.0127751 0.110617)
(-0.0866941 0.058124 0.1284)
(-0.0836665 0.0942815 0.105395)
(-0.0638706 0.125547 0.0707801)
(-0.0276207 0.148407 0.0295858)
(0.0171831 0.162394 -0.00978831)
(0.0626927 0.168755 -0.0394298)
(0.102409 0.169014 -0.0542438)
(0.13154 0.163263 -0.0525272)
(0.147072 0.148947 -0.0356333)
(0.147741 0.121704 -0.00767109)
(0.1333 0.0801873 0.0249454)
(0.104072 0.032392 0.0560835)
(0.0625171 -0.00567399 0.0828468)
(0.0141962 -0.0208431 0.104831)
(-0.0326786 -0.0117924 0.120509)
(-0.0635963 0.0127282 0.124697)
(-0.110862 0.0474154 0.137494)
(-0.102311 0.0881571 0.116752)
(-0.0793216 0.123956 0.0854796)
(-0.0386609 0.150765 0.0456473)
(0.0113567 0.166994 0.00444181)
(0.0620611 0.173067 -0.0293922)
(0.105945 0.17064 -0.0486298)
(0.137266 0.160524 -0.0494759)
(0.152261 0.140776 -0.032495)
(0.149276 0.107561 -0.00319311)
(0.128421 0.0608035 0.0296891)
(0.0915026 0.0106282 0.0593905)
(0.0433034 -0.0260859 0.0843567)
(-0.00902302 -0.0381513 0.10529)
(-0.057568 -0.0265833 0.120812)
(-0.0862817 -0.00154094 0.125664)
(-0.145975 0.0229792 0.135411)
(-0.132247 0.063581 0.116898)
(-0.108011 0.100699 0.090438)
(-0.06255 0.130948 0.0547186)
(-0.00433893 0.151778 0.0146178)
(0.0566359 0.161721 -0.0218322)
(0.11026 0.161135 -0.0459488)
(0.147783 0.150697 -0.0512738)
(0.16291 0.128553 -0.0366007)
(0.152734 0.090959 -0.0081514)
(0.119484 0.0400399 0.0234449)
(0.070859 -0.010745 0.0510809)
(0.0159101 -0.0448101 0.0741776)
(-0.0386193 -0.0544231 0.0940367)
(-0.0879212 -0.042987 0.109686)
(-0.114164 -0.0207536 0.115514)
(-0.164018 -0.00526648 0.157142)
(-0.127329 0.03353 0.114752)
(-0.0895282 0.0665869 0.0744756)
(-0.0385457 0.0907655 0.033745)
(0.0165476 0.104778 -0.00345704)
(0.0675677 0.108889 -0.0312116)
(0.107859 0.105167 -0.0436328)
(0.13244 0.0955962 -0.0366305)
(0.13843 0.0791319 -0.0103144)
(0.124569 0.0512821 0.029466)
(0.090453 0.0100201 0.0731495)
(0.0382905 -0.0360859 0.112172)
(-0.023711 -0.0702238 0.141553)
(-0.0832718 -0.0807329 0.158862)
(-0.130626 -0.0686826 0.16338)
(-0.145918 -0.0437443 0.152861)
(-0.178159 -0.0475256 0.13955)
(-0.139264 -0.0100207 0.102396)
(-0.100904 0.0242156 0.0686277)
(-0.0470414 0.0524927 0.0338255)
(0.0129644 0.0726004 0.000312216)
(0.070141 0.0834147 -0.0271583)
(0.116243 0.0854891 -0.0427039)
(0.144234 0.0797225 -0.0409474)
(0.149773 0.0646219 -0.0203588)
(0.131635 0.036418 0.0140732)
(0.0912511 -0.00466438 0.052863)
(0.0337049 -0.0487488 0.0876941)
(-0.0310605 -0.0814599 0.114283)
(-0.0915605 -0.0944808 0.13092)
(-0.139943 -0.0886896 0.137254)
(-0.155173 -0.069127 0.131261)
(-0.178095 -0.0863918 0.112678)
(-0.139762 -0.0530585 0.0801296)
(-0.102225 -0.0224632 0.0511688)
(-0.0486174 0.00433687 0.0212939)
(0.0121364 0.0258752 -0.0080861)
(0.0712989 0.0411938 -0.0334056)
(0.120186 0.0500517 -0.0498128)
(0.150531 0.0518659 -0.0520397)
(0.156589 0.0436841 -0.0373891)
(0.136566 0.0210022 -0.00898762)
(0.0928495 -0.0160177 0.0252772)
(0.0325074 -0.0579279 0.057756)
(-0.0332681 -0.0912918 0.0838035)
(-0.0933574 -0.1079 0.10104)
(-0.140874 -0.107431 0.108964)
(-0.155131 -0.0917311 0.106428)
(-0.167861 -0.116108 0.0804037)
(-0.13211 -0.0877354 0.0525429)
(-0.0958772 -0.0616514 0.0272751)
(-0.0441068 -0.0377317 0.00117007)
(0.0148471 -0.0166843 -0.0245832)
(0.0726945 0.00110285 -0.047159)
(0.121021 0.0153059 -0.0628407)
(0.151427 0.0244049 -0.0673047)
(0.157549 0.0240009 -0.0575462)
(0.137037 0.00833873 -0.0348283)
(0.0926211 -0.0232611 -0.00484348)
(0.0323964 -0.0622655 0.0256258)
(-0.0319705 -0.0960001 0.051416)
(-0.0898202 -0.115968 0.0693408)
(-0.134816 -0.120462 0.0785169)
(-0.147911 -0.108874 0.0787528)
(-0.153143 -0.133819 0.0469584)
(-0.120659 -0.110101 0.0235024)
(-0.0858509 -0.0882345 0.00110713)
(-0.0366373 -0.0674566 -0.0221215)
(0.0191494 -0.0478906 -0.0448442)
(0.0736049 -0.0293724 -0.0646286)
(0.118783 -0.0119998 -0.0786814)
(0.146877 0.0023485 -0.0838314)
(0.151852 0.00841745 -0.0774315)
(0.131341 -0.000608388 -0.059443)
(0.0881237 -0.0266489 -0.0334443)
(0.0304319 -0.0625097 -0.00513465)
(-0.0304019 -0.0962598 0.0200797)
(-0.0844154 -0.118859 0.0383311)
(-0.125669 -0.127266 0.048238)
(-0.137352 -0.119426 0.0503357)
(-0.13869 -0.13878 0.0165424)
(-0.109221 -0.118749 -0.00349204)
(-0.0759104 -0.100212 -0.0239466)
(-0.0295531 -0.0821552 -0.0451237)
(0.022449 -0.0643361 -0.0653633)
(0.072481 -0.0461635 -0.0824733)
(0.113099 -0.0275072 -0.0943955)
(0.137359 -0.0103337 -0.0990442)
(0.140144 -0.000193526 -0.0944201)
(0.119608 -0.00441036 -0.0798037)
(0.0785906 -0.0259606 -0.0571545)
(0.0249079 -0.0590371 -0.0309629)
(-0.0309947 -0.0924362 -0.00657497)
(-0.0800878 -0.116606 0.0116186)
(-0.116904 -0.127427 0.0216691)
(-0.126876 -0.122321 0.0245103)
(-0.127166 -0.131895 -0.00685299)
(-0.100136 -0.114228 -0.0251925)
(-0.0683146 -0.0977958 -0.04505)
(-0.0248452 -0.0816679 -0.065241)
(0.0231945 -0.0653901 -0.0837348)
(0.0685247 -0.0480747 -0.0984861)
(0.104216 -0.0294722 -0.108038)
(0.124218 -0.01159 -0.111238)
(0.124484 5.49865e-05 -0.106805)
(0.103944 -0.00183309 -0.0938523)
(0.0655467 -0.0207335 -0.0732632)
(0.016455 -0.0518955 -0.0485098)
(-0.0340297 -0.0847459 -0.0247149)
(-0.077915 -0.109422 -0.00670715)
(-0.110268 -0.121092 0.00295629)
(-0.118456 -0.117316 0.00531396)
(-0.119171 -0.114991 -0.0199651)
(-0.0940362 -0.0983229 -0.0388952)
(-0.0636687 -0.0827629 -0.0599812)
(-0.0229581 -0.0677393 -0.0806902)
(0.0213209 -0.05264 -0.0985093)
(0.0622504 -0.0363983 -0.111452)
(0.0934573 -0.0187374 -0.118538)
(0.109739 -0.00171964 -0.119397)
(0.107986 0.00931386 -0.113481)
(0.0878206 0.00745098 -0.100092)
(0.0522472 -0.0107642 -0.0796144)
(0.00770062 -0.0411394 -0.0548731)
(-0.0376911 -0.0735195 -0.0308636)
(-0.0769291 -0.0978634 -0.0128495)
(-0.105542 -0.109006 -0.00402657)
(-0.112403 -0.105176 -0.00350788)
(-0.113736 -0.0901989 -0.020507)
(-0.0902908 -0.0734348 -0.0426881)
(-0.0613415 -0.0577917 -0.0672457)
(-0.0230662 -0.0432118 -0.0903535)
(0.0179775 -0.029016 -0.10887)
(0.0552553 -0.0140224 -0.120743)
(0.0829839 0.00204766 -0.125342)
(0.0967087 0.0170962 -0.12294)
(0.0940246 0.0260268 -0.113734)
(0.0749808 0.0224774 -0.0975223)
(0.0424589 0.00334195 -0.0747525)
(0.00212322 -0.027309 -0.0480962)
(-0.0390108 -0.059442 -0.02268)
(-0.0748225 -0.08285 -0.00427963)
(-0.10115 -0.0923485 0.00329629)
(-0.107724 -0.0872555 0.000586188)
(-0.109279 -0.0597712 -0.00758493)
(-0.0876756 -0.0422223 -0.0356212)
(-0.0600655 -0.0259018 -0.0659699)
(-0.0237239 -0.0114318 -0.0934974)
(0.0148738 0.00186358 -0.114249)
(0.0495477 0.0152725 -0.125935)
(0.0750876 0.0291256 -0.128124)
(0.0876702 0.041384 -0.121614)
(0.0853578 0.0472603 -0.107357)
(0.0683424 0.0409602 -0.0859442)
(0.0391892 0.0198419 -0.0584322)
(0.00271602 -0.0118501 -0.0279038)
(-0.0351782 -0.0438804 7.15637e-05)
(-0.0691565 -0.0657947 0.0192184)
(-0.095054 -0.0726535 0.0252537)
(-0.102834 -0.0652165 0.0181699)
(-0.104494 -0.0263261 0.0179768)
(-0.0851059 -0.00747206 -0.0177576)
(-0.0586522 0.00978757 -0.0557435)
(-0.0235776 0.024123 -0.0894996)
(0.0135505 0.0361898 -0.114017)
(0.046806 0.0474167 -0.126534)
(0.071468 0.058306 -0.126639)
(0.0842171 0.0670457 -0.115513)
(0.0834033 0.0692302 -0.0948818)
(0.0691861 0.0595754 -0.0663869)
(0.0436905 0.0358618 -0.0322227)
(0.0107701 0.00269516 0.00354228)
(-0.0248956 -0.029141 0.0346925)
(-0.0586891 -0.0488286 0.0547288)
(-0.0860679 -0.0519686 0.0592408)
(-0.0966145 -0.0411531 0.0474657)
(-0.0994303 0.0066685 0.0531761)
(-0.0823651 0.0276182 0.00965629)
(-0.0566409 0.0460338 -0.0366004)
(-0.0219445 0.0600566 -0.0777558)
(0.0148472 0.0703726 -0.107382)
(0.0478797 0.0786372 -0.12191)
(0.0727852 0.0856947 -0.12069)
(0.0866219 0.0901641 -0.105133)
(0.0879253 0.0880981 -0.077708)
(0.0767705 0.0746189 -0.0413334)
(0.0548035 0.0478258 0.000168097)
(0.0248204 0.012891 0.0412753)
(-0.00979317 -0.0184791 0.075206)
(-0.0449504 -0.0350591 0.0958883)
(-0.0753332 -0.033329 0.099384)
(-0.0896267 -0.018038 0.0840511)
(-0.0965911 0.034292 0.092616)
(-0.0808496 0.0588347 0.0437132)
(-0.0548344 0.0791733 -0.00943109)
(-0.0192032 0.0931108 -0.0579126)
(0.0186236 0.101432 -0.0935249)
(0.0526445 0.10613 -0.111396)
(0.0786732 0.108588 -0.110238)
(0.0940205 0.10805 -0.0914482)
(0.0973396 0.101075 -0.0581203)
(0.08861 0.0830889 -0.0146016)
(0.068997 0.0524994 0.0332167)
(0.0402617 0.0153852 0.078118)
(0.00478827 -0.0153578 0.113166)
(-0.0332467 -0.0282268 0.133752)
(-0.0673972 -0.0209194 0.137112)
(-0.0851686 -0.000392496 0.120779)
(-0.100919 0.0498613 0.128836)
(-0.0839349 0.0798903 0.0790876)
(-0.055811 0.103919 0.0230513)
(-0.0171705 0.119123 -0.0307122)
(0.0237001 0.126178 -0.0723491)
(0.0603062 0.127429 -0.0950512)
(0.0884004 0.125013 -0.09618)
(0.105368 0.119 -0.0765358)
(0.109886 0.106525 -0.0395158)
(0.101799 0.0833002 0.00903893)
(0.0818365 0.0482734 0.0607401)
(0.0510535 0.00864622 0.106573)
(0.0118422 -0.0215701 0.140399)
(-0.0305283 -0.0310515 0.159825)
(-0.0685321 -0.0189234 0.163687)
(-0.0883867 0.00609816 0.149026)
(-0.116482 0.0476609 0.154619)
(-0.095643 0.0834535 0.108431)
(-0.0640599 0.112549 0.0552245)
(-0.0198769 0.131072 0.000420744)
(0.0274497 0.138831 -0.0459449)
(0.0699989 0.138071 -0.0748558)
(0.102504 0.131731 -0.0811247)
(0.121763 0.121012 -0.0637483)
(0.126171 0.103786 -0.025778)
(0.115565 0.0759433 0.0251592)
(0.0907693 0.0368162 0.0777263)
(0.0534651 -0.00529946 0.121597)
(0.00770338 -0.0354789 0.152308)
(-0.0397417 -0.0430515 0.169829)
(-0.081215 -0.0284616 0.174321)
(-0.101663 -0.00151926 0.162614)
(-0.141203 0.0293375 0.165433)
(-0.116899 0.0678845 0.124668)
(-0.0831353 0.101643 0.0784484)
(-0.0321529 0.125855 0.0275717)
(0.0255304 0.13839 -0.0198138)
(0.0792286 0.139725 -0.0537503)
(0.120639 0.132737 -0.066258)
(0.144501 0.119833 -0.0535283)
(0.148139 0.0996612 -0.0175164)
(0.131043 0.0679196 0.0325074)
(0.0955418 0.0247219 0.0824341)
(0.0475263 -0.0192859 0.121631)
(-0.00519204 -0.0488428 0.147789)
(-0.055796 -0.0556207 0.163079)
(-0.0993326 -0.0417668 0.168522)
(-0.119851 -0.0167716 0.160519)
(-0.124463 0.0100437 0.173227)
(-0.0855085 0.0436846 0.113804)
(-0.0446762 0.0709319 0.0585989)
(0.00368036 0.0878297 0.00821147)
(0.0511188 0.0935424 -0.0318792)
(0.0904206 0.0899567 -0.055414)
(0.116799 0.0810078 -0.0573379)
(0.127653 0.0697399 -0.0352794)
(0.122562 0.0552676 0.00857439)
(0.102497 0.0331487 0.0665687)
(0.0684375 0.000762218 0.127122)
(0.0221662 -0.0358924 0.1783)
(-0.0303353 -0.0630172 0.211586)
(-0.0789964 -0.0696201 0.223558)
(-0.114847 -0.0554494 0.215576)
(-0.124432 -0.0291267 0.18988)
(-0.130491 -0.0200882 0.158271)
(-0.0911191 0.0135612 0.106931)
(-0.0494665 0.0436182 0.0602038)
(0.00237127 0.0654986 0.0164455)
(0.0557676 0.0770567 -0.0205574)
(0.102204 0.0788855 -0.0450687)
(0.134803 0.0740303 -0.0511732)
(0.149046 0.0651602 -0.034765)
(0.143621 0.0512952 0.00342361)
(0.119839 0.0284414 0.0558773)
(0.0801446 -0.00465498 0.110208)
(0.0285011 -0.0410099 0.154667)
(-0.027578 -0.0683605 0.182725)
(-0.0783429 -0.078171 0.193062)
(-0.11614 -0.0699622 0.187628)
(-0.127383 -0.0487529 0.168196)
(-0.125588 -0.0509444 0.127609)
(-0.088299 -0.0210425 0.0829868)
(-0.0479818 0.00660272 0.0431374)
(0.00358829 0.0284785 0.00607418)
(0.0584287 0.0428664 -0.0256877)
(0.107974 0.050067 -0.0477237)
(0.144294 0.0519902 -0.0548576)
(0.16126 0.0498328 -0.0426373)
(0.156343 0.041413 -0.0105668)
(0.130656 0.0222081 0.0351795)
(0.0876569 -0.00884854 0.0833644)
(0.0331307 -0.0447364 0.123254)
(-0.0241588 -0.0737052 0.148864)
(-0.0746987 -0.0874075 0.158779)
(-0.111778 -0.084549 0.154689)
(-0.122737 -0.0678364 0.138838)
(-0.113461 -0.0764436 0.0873327)
(-0.0794506 -0.0514819 0.048453)
(-0.0413479 -0.0279814 0.0136501)
(0.00768997 -0.0083211 -0.0181219)
(0.0604592 0.00659638 -0.0447174)
(0.108921 0.017438 -0.0627096)
(0.14519 0.0255651 -0.0682189)
(0.162615 0.0307454 -0.0577267)
(0.157827 0.0291719 -0.0304781)
(0.131519 0.0153044 0.00892084)
(0.0877238 -0.0121304 0.0512632)
(0.0334262 -0.0463641 0.0872135)
(-0.0220328 -0.0761579 0.110945)
(-0.0697088 -0.0931738 0.120491)
(-0.103719 -0.0952217 0.117031)
(-0.112937 -0.0832256 0.103351)
(-0.0995251 -0.0938844 0.0438392)
(-0.0687718 -0.0736961 0.00963136)
(-0.0331497 -0.0546483 -0.0216247)
(0.012216 -0.0380962 -0.049494)
(0.0607195 -0.0241273 -0.0716959)
(0.104941 -0.0115083 -0.085365)
(0.137647 0.000950452 -0.0878419)
(0.152706 0.0120128 -0.0770672)
(0.146818 0.0165743 -0.0528537)
(0.120537 0.00816105 -0.0186749)
(0.0780679 -0.0150792 0.0183645)
(0.026775 -0.0469257 0.0505338)
(-0.0241831 -0.0767163 0.0722621)
(-0.0667566 -0.0959874 0.0810876)
(-0.0958779 -0.101719 0.0776229)
(-0.10208 -0.0937758 0.0650316)
(-0.0882581 -0.102529 0.00299488)
(-0.0600789 -0.0860993 -0.0279318)
(-0.0269998 -0.070823 -0.0568797)
(0.014163 -0.057244 -0.0819505)
(0.0572298 -0.0447447 -0.100573)
(0.0954106 -0.0316001 -0.110222)
(0.122348 -0.0167461 -0.109277)
(0.132982 -0.00209304 -0.0971269)
(0.12482 0.00652949 -0.0744549)
(0.0986777 0.00218621 -0.0441281)
(0.0588097 -0.0174657 -0.011446)
(0.0123543 -0.0468988 0.0173381)
(-0.0323488 -0.0760277 0.0370844)
(-0.0683559 -0.0962932 0.044948)
(-0.0914819 -0.104077 0.0409881)
(-0.0937795 -0.098811 0.0285981)
(-0.0819379 -0.102916 -0.0302153)
(-0.0555115 -0.0887052 -0.0595274)
(-0.0248628 -0.07596 -0.0875116)
(0.011968 -0.0646159 -0.110975)
(0.0491983 -0.0534657 -0.126964)
(0.0807276 -0.0404647 -0.133243)
(0.101167 -0.0247572 -0.129074)
(0.106664 -0.00874659 -0.115048)
(0.095774 0.00147218 -0.0926825)
(0.0698513 -0.000965582 -0.0645823)
(0.0331278 -0.0184595 -0.0347763)
(-0.00781667 -0.0460523 -0.00829445)
(-0.0457062 -0.0741936 0.0100859)
(-0.0747727 -0.0943395 0.0171663)
(-0.0917162 -0.102576 0.0124415)
(-0.0898586 -0.0983418 -0.000535969)
(-0.0805715 -0.0960317 -0.0517225)
(-0.0551381 -0.0824417 -0.0815618)
(-0.0266912 -0.0708726 -0.110376)
(0.00606437 -0.0608542 -0.133732)
(0.0377517 -0.0507154 -0.14829)
(0.0630213 -0.0382487 -0.152064)
(0.0774832 -0.0228476 -0.145049)
(0.0783986 -0.00726881 -0.12877)
(0.0652379 0.00243331 -0.105425)
(0.0398256 -0.000152653 -0.0775758)
(0.00629188 -0.017129 -0.0485039)