/*--------------------------------*- C++ -*----------------------------------*\
| =========                 |                                                 |
| \\      /  F ield         | OpenFOAM: The Open Source CFD Toolbox           |
|  \\    /   O peration     | Version:  3.0.0                                 |
|   \\  /    A nd           | Web:      www.OpenFOAM.org                      |
|    \\/     M anipulation  |                                                 |
\*---------------------------------------------------------------------------*/
FoamFile
{
    version     2.0;
    format      ascii;
    class       volScalarField;
    location    "9.5";
    object      k;
}
// * * * * * * * * * * * * * * * * * * * * * * * * * * * * * * * * * * * * * //

dimensions      [0 2 -2 0 0 0 0];

internalField   nonuniform List<scalar> 
400
(
1.505e-06
3.27329e-06
1.31028e-05
0.000117808
0.000366496
0.000554878
0.000647538
0.000690746
0.000703333
0.000698607
0.000656134
0.000615643
0.000552565
0.000497829
0.000431112
0.000370178
0.000306782
0.000242582
0.000170586
0.000101895
5.35383e-06
2.03768e-05
7.37538e-05
0.000215064
0.000318898
0.000359656
0.000368964
0.000370498
0.000370588
0.000378931
0.000393339
0.000421357
0.000452074
0.000484438
0.000518329
0.000543259
0.000553648
0.000550909
0.000505506
0.000459129
1.68484e-05
7.8448e-05
0.000167395
0.000251871
0.000310091
0.000338486
0.000364644
0.000391056
0.000432639
0.000466384
0.000499609
0.000521626
0.000545887
0.000574293
0.000611343
0.000655822
0.000703325
0.000729599
0.000774946
0.000904995
4.54743e-05
0.000131302
0.000203547
0.000267975
0.000319345
0.000356717
0.000405752
0.000446112
0.000475335
0.000495335
0.000513747
0.000526849
0.000548903
0.000577466
0.000622792
0.000681747
0.000760646
0.00083829
0.000904787
0.00118936
7.96536e-05
0.0001621
0.000228075
0.000288617
0.000338625
0.000377478
0.000408808
0.000422771
0.000423929
0.000405648
0.000398506
0.000398193
0.00042702
0.000467994
0.000540754
0.000641244
0.000770177
0.000896697
0.00101876
0.0014078
0.000120769
0.000183096
0.000239909
0.000298147
0.00034659
0.00037172
0.00038085
0.000347968
0.000306674
0.000281992
0.000271974
0.000270664
0.000296941
0.000341893
0.000419395
0.00054095
0.000725429
0.000922796
0.00110381
0.00156969
0.000162512
0.000183037
0.000243721
0.000305654
0.000341128
0.000349589
0.000319763
0.000261046
0.000219963
0.000197348
0.000188245
0.000187521
0.000213765
0.000257439
0.000330742
0.000447777
0.00065403
0.000929445
0.00118797
0.00170739
0.000212056
0.000180484
0.000242388
0.000303635
0.000327326
0.000317418
0.000265999
0.00020433
0.000166691
0.000147003
0.000139774
0.00013994
0.000163201
0.000203579
0.000270385
0.000375047
0.000579237
0.000911622
0.00126492
0.00181976
0.000254638
0.000175353
0.000237967
0.000296431
0.000311826
0.000292107
0.000232236
0.000172246
0.000138183
0.000121471
0.000115775
0.000118125
0.000138208
0.000174915
0.000233607
0.000325484
0.000512265
0.000880352
0.00134095
0.00192539
0.000308498
0.0001645
0.000228322
0.000288148
0.00030326
0.000276943
0.000216141
0.000161133
0.000128169
0.000111333
0.000105813
0.00011019
0.000127364
0.00016178
0.000214829
0.000295301
0.000457913
0.000849207
0.00141478
0.00202274
0.000346578
0.000160116
0.000214886
0.000275298
0.00029375
0.00027099
0.00021752
0.000164296
0.000131244
0.000113474
0.000106067
0.000109417
0.000124542
0.000157685
0.000206909
0.000280478
0.000418832
0.000815907
0.00148371
0.00212566
0.000381154
0.000162882
0.000195108
0.000261424
0.000286142
0.000270587
0.0002248
0.000174595
0.000141504
0.000122904
0.000115879
0.000119705
0.000132871
0.000162557
0.000205602
0.000274104
0.000399885
0.000794939
0.00155221
0.00223543
0.000380533
0.000168881
0.000178661
0.000238776
0.000272436
0.000267539
0.000241898
0.00019635
0.000163237
0.000143614
0.000136678
0.000140465
0.000152736
0.000181111
0.000217307
0.000273062
0.000391407
0.000783712
0.00162309
0.00236635
0.000360901
0.000181846
0.000170744
0.00020726
0.000257511
0.000260361
0.000249689
0.000223855
0.000196098
0.000177676
0.000169787
0.000172697
0.000182471
0.000206202
0.000231538
0.000282049
0.000389811
0.000781767
0.00171761
0.00252644
0.000307194
0.000180454
0.000163708
0.000179575
0.000224477
0.000243606
0.000243182
0.000235832
0.000221157
0.000210097
0.000204602
0.000206988
0.000213843
0.00022851
0.000247889
0.000293113
0.000402229
0.000814652
0.00184834
0.00274016
0.000191589
0.000163515
0.000154414
0.000165429
0.000197847
0.000225551
0.000231568
0.000230572
0.000226326
0.000222395
0.000222544
0.000224978
0.000228409
0.000237231
0.000255999
0.000306765
0.000432663
0.000881388
0.00202047
0.00302547
5.70743e-05
0.000115867
0.000132104
0.000140931
0.000159534
0.000183693
0.000198539
0.00020448
0.000207363
0.000208706
0.000210914
0.00021602
0.000223299
0.00023852
0.000269102
0.000346265
0.000516357
0.00103716
0.00231161
0.00343887
3.04395e-05
7.50551e-05
0.000107829
0.000131387
0.000152956
0.000174744
0.000188349
0.000198186
0.000202142
0.00020905
0.000215403
0.000228835
0.000246049
0.000286077
0.000357415
0.000528931
0.000791331
0.00144288
0.00289096
0.0040827
0.000150722
0.000312164
0.000375876
0.000406815
0.000429562
0.000466454
0.000493414
0.000545491
0.000584013
0.000661696
0.000722904
0.000841928
0.000952054
0.00114085
0.00131403
0.00172228
0.00213297
0.00297549
0.00454602
0.00527692
0.00308619
0.00596099
0.00682292
0.00680564
0.006698
0.00658633
0.00650282
0.00649017
0.00649385
0.00651853
0.00654745
0.00661723
0.00666919
0.00676511
0.00687079
0.00696021
0.00705412
0.0071857
0.00768621
0.00671347
)
;

boundaryField
{
    movingWall
    {
        type            kqRWallFunction;
        value           nonuniform List<scalar> 
20
(
0.00308619
0.00596099
0.00682292
0.00680564
0.006698
0.00658633
0.00650282
0.00649017
0.00649385
0.00651853
0.00654745
0.00661723
0.00666919
0.00676511
0.00687079
0.00696021
0.00705412
0.0071857
0.00768621
0.00671347
)
;
    }
    fixedWalls
    {
        type            kqRWallFunction;
        value           nonuniform List<scalar> 
60
(
1.505e-06
5.35383e-06
1.68484e-05
4.54743e-05
7.96536e-05
0.000120769
0.000162512
0.000212056
0.000254638
0.000308498
0.000346578
0.000381154
0.000380533
0.000360901
0.000307194
0.000191589
5.70743e-05
3.04395e-05
0.000150722
0.00308619
0.000101895
0.000459129
0.000904995
0.00118936
0.0014078
0.00156969
0.00170739
0.00181976
0.00192539
0.00202274
0.00212566
0.00223543
0.00236635
0.00252644
0.00274016
0.00302547
0.00343887
0.0040827
0.00527692
0.00671347
1.505e-06
3.27329e-06
1.31028e-05
0.000117808
0.000366496
0.000554878
0.000647538
0.000690746
0.000703333
0.000698607
0.000656134
0.000615643
0.000552565
0.000497829
0.000431112
0.000370178
0.000306782
0.000242582
0.000170586
0.000101895
)
;
    }
    frontAndBack
    {
        type            empty;
    }
}


// ************************************************************************* //
