/*--------------------------------*- C++ -*----------------------------------*\
| =========                 |                                                 |
| \\      /  F ield         | OpenFOAM: The Open Source CFD Toolbox           |
|  \\    /   O peration     | Version:  3.0.0                                 |
|   \\  /    A nd           | Web:      www.OpenFOAM.org                      |
|    \\/     M anipulation  |                                                 |
\*---------------------------------------------------------------------------*/
FoamFile
{
    version     2.0;
    format      ascii;
    class       volScalarField;
    location    "9.5";
    object      nut;
}
// * * * * * * * * * * * * * * * * * * * * * * * * * * * * * * * * * * * * * //

dimensions      [0 2 -1 0 0 0 0];

internalField   nonuniform List<scalar> 
400
(
1.17561e-08
2.55645e-08
1.02236e-07
9.10059e-07
2.76677e-06
4.11933e-06
4.76874e-06
5.06814e-06
5.15495e-06
5.12238e-06
4.82848e-06
4.54634e-06
4.10299e-06
3.71437e-06
3.23571e-06
2.79362e-06
2.32857e-06
1.85217e-06
1.31123e-06
7.88312e-07
4.18051e-08
3.97986e-07
9.73661e-07
2.54163e-06
3.78566e-06
4.94694e-06
5.91999e-06
7.15474e-06
8.41158e-06
9.796e-06
1.09037e-05
1.19591e-05
1.23267e-05
1.23954e-05
1.21734e-05
1.13034e-05
9.8541e-06
7.94356e-06
5.40745e-06
3.4374e-06
1.31414e-07
1.54742e-06
2.86841e-06
4.3096e-06
6.58476e-06
9.28976e-06
1.22557e-05
1.54362e-05
1.85749e-05
2.08163e-05
2.25208e-05
2.29381e-05
2.25818e-05
2.18109e-05
2.03637e-05
1.83493e-05
1.55663e-05
1.19403e-05
8.42585e-06
6.52188e-06
3.53714e-07
2.72649e-06
4.29163e-06
6.61784e-06
1.11148e-05
1.55701e-05
2.15774e-05
2.66454e-05
3.09219e-05
3.37155e-05
3.56515e-05
3.66299e-05
3.60172e-05
3.46505e-05
3.19716e-05
2.81198e-05
2.31879e-05
1.71894e-05
1.0869e-05
8.37717e-06
6.1755e-07
3.72962e-06
5.92822e-06
9.97765e-06
1.6709e-05
2.30455e-05
3.04985e-05
3.55186e-05
4.01358e-05
4.09597e-05
4.15215e-05
4.17335e-05
4.18682e-05
4.08139e-05
3.91497e-05
3.57351e-05
3.02251e-05
2.23301e-05
1.35712e-05
9.74955e-06
9.32664e-07
4.66343e-06
7.57803e-06
1.35536e-05
2.22338e-05
2.95436e-05
3.77745e-05
4.00876e-05
4.14855e-05
4.16951e-05
4.20676e-05
4.22951e-05
4.30435e-05
4.30323e-05
4.24813e-05
4.04934e-05
3.61664e-05
2.75248e-05
1.63566e-05
1.07392e-05
1.25011e-06
5.12446e-06
9.03246e-06
1.70279e-05
2.66965e-05
3.42062e-05
4.02929e-05
3.95664e-05
4.0117e-05
3.97984e-05
3.97732e-05
3.99024e-05
4.12023e-05
4.21764e-05
4.26168e-05
4.17684e-05
3.92694e-05
3.21388e-05
1.93037e-05
1.15637e-05
1.62369e-06
5.42678e-06
1.02606e-05
1.97431e-05
2.95322e-05
3.63927e-05
4.03013e-05
3.83732e-05
3.81981e-05
3.75025e-05
3.73257e-05
3.7505e-05
3.924e-05
4.11491e-05
4.26071e-05
4.23158e-05
4.08755e-05
3.54881e-05
2.24548e-05
1.22252e-05
1.94206e-06
5.55976e-06
1.10591e-05
2.10537e-05
3.06769e-05
3.7187e-05
3.98255e-05
3.73261e-05
3.66234e-05
3.57722e-05
3.54588e-05
3.5917e-05
3.76767e-05
3.98755e-05
4.14586e-05
4.15704e-05
4.08824e-05
3.75633e-05
2.53188e-05
1.28381e-05
2.34123e-06
5.38851e-06
1.13853e-05
2.18201e-05
3.14024e-05
3.73938e-05
3.90592e-05
3.7058e-05
3.60437e-05
3.50036e-05
3.46287e-05
3.5194e-05
3.6818e-05
3.91787e-05
4.06845e-05
4.06131e-05
4.01194e-05
3.88501e-05
2.85135e-05
1.33955e-05
2.62113e-06
5.0076e-06
1.10365e-05
2.08684e-05
3.02947e-05
3.63895e-05
3.87795e-05
3.71763e-05
3.61704e-05
3.51558e-05
3.46842e-05
3.50869e-05
3.65223e-05
3.88965e-05
4.01484e-05
3.98597e-05
3.85328e-05
3.88483e-05
3.09588e-05
1.39774e-05
2.87362e-06
4.49749e-06
9.85759e-06
1.94994e-05
2.88413e-05
3.5311e-05
3.82923e-05
3.7391e-05
3.65299e-05
3.57167e-05
3.54387e-05
3.5813e-05
3.68508e-05
3.87237e-05
3.96006e-05
3.92687e-05
3.74606e-05
3.85624e-05
3.33336e-05
1.45897e-05
2.8691e-06
3.90679e-06
8.513e-06
1.70726e-05
2.60005e-05
3.26863e-05
3.74932e-05
3.75408e-05
3.69782e-05
3.65147e-05
3.65948e-05
3.6925e-05
3.76306e-05
3.8939e-05
3.86283e-05
3.74497e-05
3.66184e-05
3.81941e-05
3.51102e-05
1.53094e-05
2.72591e-06
3.35396e-06
7.09893e-06
1.36456e-05
2.28434e-05
2.92073e-05
3.46382e-05
3.73708e-05
3.79267e-05
3.79626e-05
3.79869e-05
3.80449e-05
3.81408e-05
3.85255e-05
3.72402e-05
3.58008e-05
3.43998e-05
3.67366e-05
3.56014e-05
1.61741e-05
2.33162e-06
2.8137e-06
5.63824e-06
1.01641e-05
1.7447e-05
2.38692e-05
2.87918e-05
3.26357e-05
3.46774e-05
3.57842e-05
3.65374e-05
3.66315e-05
3.65304e-05
3.60025e-05
3.45874e-05
3.31426e-05
3.26038e-05
3.5948e-05
3.65115e-05
1.73035e-05
1.46979e-06
2.19335e-06
4.12761e-06
7.70683e-06
1.30473e-05
1.89507e-05
2.34762e-05
2.69667e-05
2.94485e-05
3.08059e-05
3.20517e-05
3.21994e-05
3.18771e-05
3.11584e-05
3.02514e-05
2.97813e-05
3.05544e-05
3.46376e-05
3.6543e-05
1.87693e-05
4.4345e-07
1.58207e-06
2.92149e-06
4.78976e-06
7.72848e-06
1.16425e-05
1.54587e-05
1.85286e-05
2.11905e-05
2.28086e-05
2.41638e-05
2.46546e-05
2.49255e-05
2.51231e-05
2.54396e-05
2.66849e-05
2.92506e-05
3.38322e-05
3.67155e-05
2.08151e-05
2.37111e-07
1.16783e-06
2.34082e-06
3.84693e-06
5.80024e-06
8.18513e-06
1.05214e-05
1.26346e-05
1.44032e-05
1.58916e-05
1.71831e-05
1.81732e-05
1.90678e-05
2.06654e-05
2.27753e-05
2.65203e-05
3.00265e-05
3.35753e-05
3.67882e-05
2.38362e-05
1.1607e-06
5.84217e-06
7.65262e-06
9.27876e-06
1.10286e-05
1.31894e-05
1.51171e-05
1.74761e-05
1.90756e-05
2.14203e-05
2.28583e-05
2.52118e-05
2.68609e-05
2.91457e-05
3.0807e-05
3.36e-05
3.47355e-05
3.47598e-05
3.78508e-05
2.89931e-05
1.90755e-05
3.1729e-05
3.49865e-05
3.4923e-05
3.45261e-05
3.41114e-05
3.37991e-05
3.37517e-05
3.37655e-05
3.3858e-05
3.39662e-05
3.42264e-05
3.44193e-05
3.47738e-05
3.51616e-05
3.54876e-05
3.5828e-05
3.63014e-05
3.80662e-05
3.45834e-05
)
;

boundaryField
{
    movingWall
    {
        type            nutkWallFunction;
        Cmu             0.09;
        kappa           0.41;
        E               9.8;
        value           nonuniform List<scalar> 
20
(
0
0
0
0
0
0
0
0
0
0
0
0
0
0
0
0
0
5.28345e-08
3.23627e-07
0
)
;
    }
    fixedWalls
    {
        type            nutkWallFunction;
        Cmu             0.09;
        kappa           0.41;
        E               9.8;
        value           uniform 0;
    }
    frontAndBack
    {
        type            empty;
    }
}


// ************************************************************************* //
