/*--------------------------------*- C++ -*----------------------------------*\
| =========                 |                                                 |
| \\      /  F ield         | OpenFOAM: The Open Source CFD Toolbox           |
|  \\    /   O peration     | Version:  3.0.0                                 |
|   \\  /    A nd           | Web:      www.OpenFOAM.org                      |
|    \\/     M anipulation  |                                                 |
\*---------------------------------------------------------------------------*/
FoamFile
{
    version     2.0;
    format      ascii;
    class       volScalarField;
    location    "9.5";
    object      omega;
}
// * * * * * * * * * * * * * * * * * * * * * * * * * * * * * * * * * * * * * //

dimensions      [0 0 -1 0 0 0 0];

internalField   nonuniform List<scalar> 
400
(
128.019
128.041
128.162
129.451
132.464
134.701
135.788
136.292
136.438
136.383
135.888
135.415
134.674
134.028
133.236
132.508
131.747
130.972
130.097
129.257
128.066
51.1997
75.7489
84.6164
84.2385
72.7027
62.325
51.7836
44.0569
38.6822
36.0741
35.2333
36.6745
39.082
42.5787
48.0614
56.1845
69.353
93.4832
133.569
128.209
50.696
58.3583
58.4442
47.0922
36.4364
29.7529
25.3337
23.2915
22.4048
22.1843
22.7405
24.1737
26.3306
30.0212
35.7409
45.1826
61.1039
91.9724
138.763
128.562
48.1579
47.4289
40.4928
28.7315
22.9104
18.8045
16.7425
15.3721
14.6916
14.4102
14.383
15.2401
16.6655
19.4795
24.2444
32.8036
48.768
83.2448
141.976
128.983
43.4628
38.4728
28.9263
20.266
16.3797
13.4042
11.9028
10.5624
9.90359
9.59758
9.54133
10.1991
11.4665
13.8125
17.9444
25.4813
40.1564
75.0677
144.396
129.488
39.262
31.6585
21.9977
15.5884
12.5821
10.0822
8.68019
7.39231
6.76321
6.46518
6.39942
6.89863
7.94503
9.87247
13.359
20.0581
33.526
67.484
146.164
129.998
35.7184
26.9828
17.9502
12.778
10.22
7.93596
6.59766
5.48304
4.95868
4.73296
4.69949
5.18817
6.10386
7.76082
10.7205
16.655
28.9197
61.541
147.651
130.601
33.2579
23.6233
15.3793
11.0837
8.72201
6.60024
5.3248
4.36385
3.91981
3.74471
3.73123
4.15906
4.94735
6.346
8.86304
14.1708
25.6881
56.3317
148.853
131.117
31.5397
21.5178
14.0798
10.1648
7.85509
5.83134
4.61463
3.77307
3.39568
3.26505
3.28883
3.66828
4.38653
5.63472
7.82969
12.5302
23.4365
52.9628
149.974
131.767
30.5279
20.0541
13.2056
9.65721
7.40611
5.53367
4.34813
3.55594
3.18062
3.05563
3.13092
3.45928
4.12928
5.28036
7.27109
11.4138
21.8586
49.618
151.001
132.225
31.9746
19.4704
13.1921
9.69641
7.44693
5.60915
4.41937
3.62849
3.22773
3.05808
3.11847
3.41002
4.05396
5.1536
7.03663
10.8695
21.0024
47.9255
152.078
132.639
36.2161
19.7927
13.4068
9.92126
7.66297
5.87064
4.66945
3.87365
3.44108
3.26986
3.3425
3.60566
4.19787
5.19189
6.98021
10.6748
20.6144
46.5658
153.219
132.631
43.2276
20.9868
13.9859
10.4781
8.18503
6.45178
5.23029
4.41441
3.93304
3.7349
3.80407
4.05882
4.65116
5.6256
7.29142
10.6888
20.5192
46.2285
154.569
132.396
54.2184
24.0521
15.1887
11.2729
8.91426
7.20848
5.9901
5.17044
4.6803
4.46962
4.53928
4.78414
5.35235
6.21743
7.87828
11.3318
21.2803
48.2457
156.203
131.751
64.1342
29.0353
17.6676
12.8662
10.2059
8.44624
7.22621
6.37755
5.87122
5.59981
5.65054
5.85383
6.34708
7.16702
8.84399
12.3369
22.662
50.6235
158.359
130.352
74.5504
37.41
21.4652
15.1638
11.902
9.86397
8.55028
7.68547
7.21923
6.94329
6.98702
7.1653
7.61372
8.4624
10.3006
14.1604
25.446
55.2901
161.192
128.705
73.2377
45.218
29.4234
20.6423
15.7778
12.8432
11.0359
9.78565
9.15031
8.72852
8.76185
8.95867
9.49406
10.5781
12.9761
17.6528
30.656
62.9601
165.211
128.377
64.269
46.0648
34.1538
26.3706
21.349
17.9015
15.686
14.0345
13.1548
12.5358
12.5919
12.9039
13.8433
15.6931
19.9444
26.3544
42.9745
78.5838
171.281
129.854
53.4328
49.1173
43.8437
38.9499
35.3658
32.6395
31.2135
30.6157
30.8911
31.6254
33.3941
35.4439
39.1431
42.6537
51.2583
61.406
85.6014
120.104
182.006
161.788
187.872
195.016
194.875
193.998
193.083
192.396
192.292
192.322
192.526
192.764
193.337
193.763
194.546
195.406
196.13
196.888
197.946
201.917
194.124
)
;

boundaryField
{
    movingWall
    {
        Cmu             0.09;
        kappa           0.41;
        E               9.8;
        beta1           0.075;
        type            omegaWallFunction;
        value           nonuniform List<scalar> 
20
(
161.788
187.872
195.016
194.875
193.998
193.083
192.396
192.292
192.322
192.526
192.764
193.337
193.763
194.546
195.406
196.13
196.888
197.946
201.917
194.124
)
;
    }
    fixedWalls
    {
        Cmu             0.09;
        kappa           0.41;
        E               9.8;
        beta1           0.075;
        type            omegaWallFunction;
        value           nonuniform List<scalar> 
60
(
128.019
128.066
128.209
128.562
128.983
129.488
129.998
130.601
131.117
131.767
132.225
132.639
132.631
132.396
131.751
130.352
128.705
128.377
129.854
161.788
129.257
133.569
138.763
141.976
144.396
146.164
147.651
148.853
149.974
151.001
152.078
153.219
154.569
156.203
158.359
161.192
165.211
171.281
182.006
194.124
128.019
128.041
128.162
129.451
132.464
134.701
135.788
136.292
136.438
136.383
135.888
135.415
134.674
134.028
133.236
132.508
131.747
130.972
130.097
129.257
)
;
    }
    frontAndBack
    {
        type            empty;
    }
}


// ************************************************************************* //
