/*--------------------------------*- C++ -*----------------------------------*\
| =========                 |                                                 |
| \\      /  F ield         | OpenFOAM: The Open Source CFD Toolbox           |
|  \\    /   O peration     | Version:  3.0.0                                 |
|   \\  /    A nd           | Web:      www.OpenFOAM.org                      |
|    \\/     M anipulation  |                                                 |
\*---------------------------------------------------------------------------*/
FoamFile
{
    version     2.0;
    format      ascii;
    class       volScalarField;
    location    "9.5";
    object      p;
}
// * * * * * * * * * * * * * * * * * * * * * * * * * * * * * * * * * * * * * //

dimensions      [0 2 -2 0 0 0 0];

internalField   nonuniform List<scalar> 
400
(
4.8573e-08
-0.000104291
-0.000230739
-0.000210201
-0.000728578
-0.00224166
-0.0043536
-0.00645327
-0.00817807
-0.00935033
-0.00987106
-0.00962694
-0.00857507
-0.00670137
-0.00400024
-0.00059919
0.00318188
0.00660035
0.00873995
0.00922991
1.06918e-05
-7.508e-05
-0.000184496
-0.000673769
-0.00180961
-0.00359621
-0.00562069
-0.00755328
-0.00916348
-0.0102625
-0.0107407
-0.0105406
-0.00962536
-0.0079378
-0.0054791
-0.00231054
0.00130038
0.00479672
0.00732893
0.00857111
0.000308267
-2.50797e-05
-0.000672306
-0.00185728
-0.00360911
-0.00563678
-0.00764653
-0.00948145
-0.0109551
-0.0118987
-0.0122743
-0.0120522
-0.011216
-0.00975548
-0.00766932
-0.00498727
-0.00182549
0.00153706
0.00450998
0.00630114
0.000323143
-0.000338393
-0.00165328
-0.00356051
-0.00576177
-0.00793277
-0.00988893
-0.0114958
-0.0126731
-0.0134095
-0.0136837
-0.013474
-0.0127618
-0.0115433
-0.00982583
-0.00763276
-0.00500257
-0.00203147
0.000880863
0.00277716
-0.000386467
-0.00132742
-0.00316158
-0.00551863
-0.0078957
-0.0100197
-0.0117938
-0.0131724
-0.0141548
-0.0147518
-0.0149586
-0.0147637
-0.0141578
-0.0131429
-0.0117354
-0.00996054
-0.00783668
-0.00537348
-0.00281292
-0.00105054
-0.00184809
-0.00293137
-0.00501762
-0.00746243
-0.00978659
-0.0117545
-0.0133355
-0.0145361
-0.0153856
-0.0158916
-0.0160588
-0.0158836
-0.0153662
-0.0145139
-0.0133483
-0.011899
-0.0101923
-0.00821602
-0.0062265
-0.00460116
-0.00371724
-0.00483412
-0.00690281
-0.00921806
-0.0113689
-0.0131457
-0.0145572
-0.0156226
-0.0163739
-0.0168183
-0.0169642
-0.0168128
-0.016369
-0.0156442
-0.0146627
-0.0134557
-0.0120746
-0.0104951
-0.00899221
-0.00759901
-0.00556295
-0.00659611
-0.00851749
-0.0106583
-0.012611
-0.0142107
-0.0154851
-0.016448
-0.0171271
-0.0175294
-0.0176646
-0.0175359
-0.0171507
-0.0165222
-0.0156772
-0.0146428
-0.013503
-0.012219
-0.0110897
-0.00990993
-0.00700765
-0.00795829
-0.00971879
-0.011704
-0.0134891
-0.0149511
-0.0161247
-0.0170159
-0.0176458
-0.0180209
-0.0181506
-0.0180397
-0.0176964
-0.0171341
-0.0163824
-0.0154572
-0.0144887
-0.0133752
-0.0125309
-0.0115199
-0.00791717
-0.00877541
-0.0104151
-0.0122985
-0.013973
-0.0153534
-0.0164708
-0.0173235
-0.0179277
-0.018289
-0.0184166
-0.0183161
-0.0179966
-0.0174697
-0.0167691
-0.0158853
-0.0150533
-0.0139609
-0.013389
-0.0124101
-0.00821531
-0.00901973
-0.0105834
-0.0124234
-0.0140552
-0.0154151
-0.0165204
-0.0173681
-0.0179699
-0.0183308
-0.018459
-0.0183601
-0.0180447
-0.0175207
-0.0168293
-0.0159221
-0.0151928
-0.0139773
-0.0136939
-0.012587
-0.00789735
-0.00870094
-0.010226
-0.0120726
-0.0137285
-0.0151246
-0.0162636
-0.0171426
-0.0177682
-0.0181439
-0.0182762
-0.0181697
-0.0178367
-0.0172842
-0.0165489
-0.0156201
-0.0148133
-0.0135275
-0.0134558
-0.0120591
-0.00705621
-0.0079107
-0.00943141
-0.0112748
-0.013007
-0.0144817
-0.0156951
-0.0166414
-0.017319
-0.0177264
-0.0178679
-0.0177457
-0.0173745
-0.0167587
-0.0159429
-0.014935
-0.0139679
-0.012669
-0.012598
-0.0109173
-0.00596225
-0.00682432
-0.00829476
-0.0100618
-0.0118718
-0.0134606
-0.014795
-0.0158521
-0.0166165
-0.0170777
-0.017238
-0.0170958
-0.016668
-0.0159573
-0.0150179
-0.013863
-0.0127032
-0.0113583
-0.0111676
-0.00928018
-0.00489999
-0.00567509
-0.00696184
-0.00854378
-0.0103346
-0.01205
-0.013553
-0.01477
-0.015662
-0.0162055
-0.0164007
-0.0162409
-0.0157439
-0.0149106
-0.0138037
-0.0124409
-0.0110539
-0.00957541
-0.00921554
-0.00715691
-0.00426146
-0.00467377
-0.00550264
-0.00675348
-0.00842317
-0.0102505
-0.0119628
-0.0133922
-0.0144612
-0.0151258
-0.0153819
-0.0152179
-0.0146544
-0.013685
-0.0123771
-0.010756
-0.00907823
-0.0073325
-0.00671011
-0.00425487
-0.00416492
-0.00400411
-0.00404815
-0.00479153
-0.0062562
-0.00814845
-0.0100747
-0.0117537
-0.0130519
-0.0138914
-0.014258
-0.0141302
-0.0135184
-0.0124171
-0.0108931
-0.00896835
-0.00689127
-0.00466131
-0.00338279
0.000582527
-0.00373739
-0.00329354
-0.00255103
-0.00277173
-0.00404149
-0.00598096
-0.00808242
-0.00997127
-0.0114899
-0.0125248
-0.0130321
-0.0129767
-0.0123761
-0.0112149
-0.00951708
-0.00728185
-0.004659
-0.00155184
0.00140113
0.00955711
-0.00439938
-0.00286875
-0.00134626
-0.00120549
-0.00238106
-0.00434097
-0.00655832
-0.00862223
-0.0103156
-0.0115092
-0.01214
-0.0121834
-0.0116208
-0.0104203
-0.00856755
-0.00597625
-0.00256644
0.00215564
0.00846141
0.0232764
-0.00224212
0.0007922
0.000871372
0.000119264
-0.00130096
-0.00330589
-0.00558032
-0.00777744
-0.00958537
-0.0108743
-0.0115563
-0.0116257
-0.0110438
-0.00983482
-0.00784942
-0.00495057
-0.000277813
0.00695127
0.018046
0.0359636
)
;

boundaryField
{
    movingWall
    {
        type            zeroGradient;
    }
    fixedWalls
    {
        type            zeroGradient;
    }
    frontAndBack
    {
        type            empty;
    }
}


// ************************************************************************* //
