/*--------------------------------*- C++ -*----------------------------------*\
| =========                 |                                                 |
| \\      /  F ield         | OpenFOAM: The Open Source CFD Toolbox           |
|  \\    /   O peration     | Version:  3.0.0                                 |
|   \\  /    A nd           | Web:      www.OpenFOAM.org                      |
|    \\/     M anipulation  |                                                 |
\*---------------------------------------------------------------------------*/
FoamFile
{
    version     2.0;
    format      ascii;
    class       surfaceScalarField;
    location    "9.5";
    object      phi;
}
// * * * * * * * * * * * * * * * * * * * * * * * * * * * * * * * * * * * * * //

dimensions      [0 3 -1 0 0 0 0];

internalField   nonuniform List<scalar> 
760
(
2.87308e-07
-2.87313e-07
1.94147e-07
9.31612e-08
-3.86565e-07
5.80712e-07
-1.70206e-06
1.31549e-06
-3.44189e-06
1.73983e-06
-5.02144e-06
1.57955e-06
-6.34197e-06
1.32053e-06
-7.36874e-06
1.02678e-06
-8.09993e-06
7.31189e-07
-8.59302e-06
4.93085e-07
-8.84058e-06
2.47565e-07
-8.87869e-06
3.81012e-08
-8.67114e-06
-2.07544e-07
-8.24955e-06
-4.21594e-07
-7.513e-06
-7.36553e-07
-6.45016e-06
-1.06283e-06
-4.96338e-06
-1.48679e-06
-3.11839e-06
-1.84499e-06
-1.13874e-06
-1.97964e-06
-1.13874e-06
-1.75462e-07
-1.11851e-07
-1.02394e-06
9.41638e-07
-2.60586e-06
2.16263e-06
-4.37377e-06
3.0834e-06
-5.67059e-06
3.03666e-06
-6.76736e-06
2.67631e-06
-7.64629e-06
2.19946e-06
-8.31791e-06
1.6984e-06
-8.81861e-06
1.23188e-06
-9.11469e-06
7.89171e-07
-9.22162e-06
3.54493e-07
-9.11923e-06
-6.42882e-08
-8.88059e-06
-4.46188e-07
-8.43147e-06
-8.70711e-07
-7.78386e-06
-1.38416e-06
-6.85365e-06
-1.99304e-06
-5.60093e-06
-2.73951e-06
-3.91537e-06
-3.53055e-06
-1.90048e-06
-3.99453e-06
-3.03922e-06
-9.44375e-07
8.32524e-07
-2.41683e-06
2.41409e-06
-3.98785e-06
3.73366e-06
-5.15776e-06
4.2533e-06
-6.04521e-06
3.92411e-06
-6.75832e-06
3.38943e-06
-7.26653e-06
2.70766e-06
-7.5913e-06
2.02317e-06
-7.76528e-06
1.40586e-06
-7.80346e-06
8.27351e-07
-7.76319e-06
3.14228e-07
-7.64358e-06
-1.83901e-07
-7.41109e-06
-6.78672e-07
-7.05119e-06
-1.23062e-06
-6.56184e-06
-1.8735e-06
-5.89205e-06
-2.66284e-06
-4.99422e-06
-3.63735e-06
-3.75944e-06
-4.76533e-06
-2.10696e-06
-5.64701e-06
-5.14618e-06
-1.31772e-06
2.15025e-06
-2.86284e-06
3.9592e-06
-4.1249e-06
4.99573e-06
-4.94653e-06
5.07492e-06
-5.51241e-06
4.49e-06
-5.86582e-06
3.74284e-06
-6.05678e-06
2.89862e-06
-6.17169e-06
2.13809e-06
-6.22768e-06
1.46185e-06
-6.24395e-06
8.43622e-07
-6.19315e-06
2.63429e-07
-6.07213e-06
-3.04924e-07
-5.86249e-06
-8.88306e-07
-5.56366e-06
-1.52945e-06
-5.1687e-06
-2.26846e-06
-4.66958e-06
-3.16196e-06
-4.03577e-06
-4.27116e-06
-3.15751e-06
-5.64358e-06
-1.82966e-06
-6.97486e-06
-6.97584e-06
-1.38943e-06
3.53968e-06
-2.70619e-06
5.27596e-06
-3.62772e-06
5.91725e-06
-4.20524e-06
5.65245e-06
-4.53808e-06
4.82284e-06
-4.7192e-06
3.92396e-06
-4.83322e-06
3.01264e-06
-4.91497e-06
2.21984e-06
-4.95e-06
1.49687e-06
-4.94304e-06
8.36665e-07
-4.88198e-06
2.02368e-07
-4.76113e-06
-4.2577e-07
-4.57078e-06
-1.07865e-06
-4.31061e-06
-1.78963e-06
-3.98049e-06
-2.59859e-06
-3.58285e-06
-3.5596e-06
-3.1089e-06
-4.7451e-06
-2.48036e-06
-6.27213e-06
-1.50446e-06
-7.95076e-06
-8.4803e-06
-1.18953e-06
4.72921e-06
-2.21383e-06
6.30026e-06
-2.90346e-06
6.60688e-06
-3.31135e-06
6.06034e-06
-3.53864e-06
5.05012e-06
-3.67073e-06
4.05604e-06
-3.76308e-06
3.10499e-06
-3.82547e-06
2.28223e-06
-3.85306e-06
1.52447e-06
-3.84097e-06
8.24571e-07
-3.78441e-06
1.45813e-07
-3.67756e-06
-5.32619e-07
-3.51456e-06
-1.24165e-06
-3.29394e-06
-2.01025e-06
-3.01952e-06
-2.87301e-06
-2.69984e-06
-3.87928e-06
-2.35327e-06
-5.09168e-06
-1.92571e-06
-6.69969e-06
-1.17507e-06
-8.7014e-06
-9.65537e-06
-9.20933e-07
5.65014e-06
-1.6451e-06
7.02443e-06
-2.1466e-06
7.10839e-06
-2.44077e-06
6.35452e-06
-2.6165e-06
5.22585e-06
-2.72758e-06
4.16711e-06
-2.81013e-06
3.18754e-06
-2.8642e-06
2.33629e-06
-2.89012e-06
1.55039e-06
-2.8834e-06
8.17846e-07
-2.84097e-06
1.03388e-07
-2.75817e-06
-6.15423e-07
-2.63055e-06
-1.36927e-06
-2.45575e-06
-2.18505e-06
-2.23769e-06
-3.09106e-06
-1.98254e-06
-4.13443e-06
-1.70929e-06
-5.36492e-06
-1.39592e-06
-7.01306e-06
-9.4475e-07
-9.15257e-06
-1.06001e-05
-5.76608e-07
6.22675e-06
-1.07795e-06
7.52576e-06
-1.4381e-06
7.46854e-06
-1.64579e-06
6.5622e-06
-1.78159e-06
5.36165e-06
-1.87488e-06
4.26041e-06
-1.94831e-06
3.26097e-06
-1.99704e-06
2.38502e-06
-2.02335e-06
1.5767e-06
-2.02462e-06
8.1912e-07
-1.99983e-06
7.85947e-08
-1.94535e-06
-6.699e-07
-1.85834e-06
-1.45628e-06
-1.73564e-06
-2.30775e-06
-1.58029e-06
-3.24642e-06
-1.39846e-06
-4.31626e-06
-1.20808e-06
-5.5553e-06
-9.96494e-07
-7.22465e-06
-6.96404e-07
-9.45266e-06
-1.12965e-05
-3.03636e-07
6.53039e-06
-5.79997e-07
7.80212e-06
-7.82123e-07
7.67067e-06
-9.16323e-07
6.69641e-06
-1.01665e-06
5.46199e-06
-1.09178e-06
4.33554e-06
-1.15361e-06
3.3228e-06
-1.19616e-06
2.42757e-06
-1.22261e-06
1.60315e-06
-1.23209e-06
8.28605e-07
-1.22524e-06
7.17387e-08
-1.20005e-06
-6.95089e-07
-1.15531e-06
-1.50102e-06
-1.08728e-06
-2.37578e-06
-9.96388e-07
-3.33731e-06
-8.8426e-07
-4.42839e-06
-7.80735e-07
-5.65882e-06
-6.72488e-07
-7.3329e-06
-5.43915e-07
-9.58123e-06
-1.18404e-05
2.02323e-09
6.52836e-06
-1.04371e-07
7.90852e-06
-1.80895e-07
7.74719e-06
-2.45613e-07
6.76112e-06
-3.04237e-07
5.52061e-06
-3.56321e-07
4.38762e-06
-4.01796e-07
3.36827e-06
-4.35846e-07
2.46162e-06
-4.61218e-07
1.62853e-06
-4.78408e-07
8.45795e-07
-4.88993e-07
8.23238e-08
-4.92434e-07
-6.91648e-07
-4.89319e-07
-1.50414e-06
-4.76287e-07
-2.38881e-06
-4.56581e-07
-3.35702e-06
-4.20897e-07
-4.46407e-06
-4.20913e-07
-5.6588e-06
-4.093e-07
-7.34451e-06
-3.82157e-07
-9.60837e-06
-1.22226e-05
2.5975e-07
6.26861e-06
3.6826e-07
7.80001e-06
4.38404e-07
7.67704e-06
4.20686e-07
6.77884e-06
3.94548e-07
5.54675e-06
3.6512e-07
4.41705e-06
3.35818e-07
3.39758e-06
3.10702e-07
2.48673e-06
2.86733e-07
1.6525e-06
2.62317e-07
8.70212e-07
2.34718e-07
1.09922e-07
2.03115e-07
-6.60044e-07
1.66335e-07
-1.46736e-06
1.23055e-07
-2.34553e-06
8.28442e-08
-3.31681e-06
-1.12551e-08
-4.36997e-06
-3.71864e-08
-5.63287e-06
-1.81324e-07
-7.20037e-06
-2.83133e-07
-9.50657e-06
-1.25057e-05
5.35579e-07
5.73304e-06
8.49493e-07
7.4861e-06
1.04236e-06
7.48417e-06
1.07553e-06
6.74568e-06
1.08218e-06
5.54009e-06
1.0812e-06
4.41803e-06
1.0754e-06
3.40338e-06
1.0654e-06
2.49673e-06
1.04681e-06
1.67109e-06
1.01733e-06
8.99688e-07
9.72862e-07
1.5439e-07
9.12327e-07
-5.99509e-07
8.31993e-07
-1.38702e-06
7.3341e-07
-2.24694e-06
6.02686e-07
-3.18609e-06
4.68791e-07
-4.23608e-06
2.71712e-07
-5.43579e-06
1.35731e-09
-6.93002e-06
-1.35371e-07
-9.36984e-06
-1.26411e-05
7.93723e-07
4.93931e-06
1.28157e-06
6.99825e-06
1.62155e-06
7.14419e-06
1.76133e-06
6.6059e-06
1.81363e-06
5.48779e-06
1.84652e-06
4.38514e-06
1.86486e-06
3.38504e-06
1.86904e-06
2.49256e-06
1.85485e-06
1.68528e-06
1.81954e-06
9.34994e-07
1.75741e-06
2.1652e-07
1.66664e-06
-5.08737e-07
1.54117e-06
-1.26155e-06
1.3794e-06
-2.08518e-06
1.17312e-06
-2.9798e-06
9.43395e-07
-4.00635e-06
6.15407e-07
-5.10781e-06
2.85812e-07
-6.60042e-06
2.41557e-08
-9.10818e-06
-1.26169e-05
1.05655e-06
3.88276e-06
1.73732e-06
6.31748e-06
2.17232e-06
6.7092e-06
2.42584e-06
6.35237e-06
2.54522e-06
5.36841e-06
2.62997e-06
4.3004e-06
2.68857e-06
3.32643e-06
2.72106e-06
2.46007e-06
2.72255e-06
1.6838e-06
2.68968e-06
9.67858e-07
2.61464e-06
2.91563e-07
2.49429e-06
-3.88393e-07
2.32136e-06
-1.08862e-06
2.09409e-06
-1.85791e-06
1.8009e-06
-2.68661e-06
1.45146e-06
-3.65691e-06
9.9686e-07
-4.6532e-06
5.54328e-07
-6.15789e-06
1.63621e-07
-8.71747e-06
-1.24533e-05
1.22606e-06
2.6567e-06
2.04831e-06
5.49523e-06
2.64931e-06
6.1082e-06
3.09856e-06
5.90312e-06
3.35861e-06
5.10836e-06
3.52278e-06
4.13623e-06
3.62959e-06
3.21962e-06
3.69163e-06
2.39802e-06
3.70674e-06
1.66868e-06
3.67343e-06
1.00117e-06
3.58176e-06
3.83239e-07
3.42686e-06
-2.33494e-07
3.20153e-06
-8.63291e-07
2.90168e-06
-1.55806e-06
2.50683e-06
-2.29177e-06
2.02447e-06
-3.17456e-06
1.42543e-06
-4.05415e-06
8.38038e-07
-5.57051e-06
3.14152e-07
-8.19359e-06
-1.21392e-05
1.27427e-06
1.38244e-06
2.19839e-06
4.57111e-06
2.93762e-06
5.36897e-06
3.58765e-06
5.25308e-06
4.05565e-06
4.64036e-06
4.37321e-06
3.81867e-06
4.58341e-06
3.00942e-06
4.71337e-06
2.26807e-06
4.7683e-06
1.61375e-06
4.75278e-06
1.01669e-06
4.65755e-06
4.78469e-07
4.48248e-06
-5.84268e-08
4.20761e-06
-5.88415e-07
3.83258e-06
-1.18303e-06
3.32276e-06
-1.78194e-06
2.68965e-06
-2.54145e-06
1.91965e-06
-3.28416e-06
1.15839e-06
-4.80924e-06
4.9902e-07
-7.53422e-06
-1.16401e-05
7.48124e-07
6.34312e-07
1.95431e-06
3.36492e-06
3.03608e-06
4.2872e-06
3.97216e-06
4.317e-06
4.71265e-06
3.89987e-06
5.2494e-06
3.28192e-06
5.62122e-06
2.6376e-06
5.86046e-06
2.02884e-06
5.9811e-06
1.4931e-06
6.00309e-06
9.94711e-07
5.91289e-06
5.68663e-07
5.70991e-06
1.44554e-07
5.37643e-06
-2.54935e-07
4.91846e-06
-7.25065e-07
4.28149e-06
-1.14497e-06
3.49726e-06
-1.75721e-06
2.55389e-06
-2.34079e-06
1.6005e-06
-3.85585e-06
7.14066e-07
-6.64778e-06
-1.09261e-05
1.01358e-07
5.32954e-07
1.18049e-06
2.28578e-06
2.46195e-06
3.00574e-06
3.74163e-06
3.03732e-06
4.83167e-06
2.80983e-06
5.68854e-06
2.42505e-06
6.31503e-06
2.0111e-06
6.75585e-06
1.58802e-06
7.01338e-06
1.23556e-06
7.12614e-06
8.81957e-07
7.0775e-06
6.17299e-07
6.91363e-06
3.08425e-07
6.58986e-06
6.8838e-08
6.10726e-06
-2.42465e-07
5.43462e-06
-4.72336e-07
4.60523e-06
-9.27822e-07
3.59882e-06
-1.33438e-06
2.51339e-06
-2.77043e-06
1.20074e-06
-5.33513e-06
-9.72534e-06
-1.10101e-06
1.63397e-06
-1.10704e-07
1.29548e-06
1.54918e-06
1.34586e-06
3.17264e-06
1.41387e-06
4.558e-06
1.42447e-06
5.69848e-06
1.28457e-06
6.58903e-06
1.12056e-06
7.2649e-06
9.12151e-07
7.73536e-06
7.65095e-07
8.03056e-06
5.86759e-07
8.1724e-06
4.75462e-07
8.17174e-06
3.09087e-07
8.01678e-06
2.23791e-07
7.71354e-06
6.0782e-08
7.27791e-06
-3.67064e-08
6.65345e-06
-3.03367e-07
5.89431e-06
-5.75237e-07
4.78026e-06
-1.65638e-06
2.68761e-06
-3.24248e-06
-7.03774e-06
1.63397e-06
2.92944e-06
4.2753e-06
5.68917e-06
7.11364e-06
8.39821e-06
9.51877e-06
1.04309e-05
1.1196e-05
1.17828e-05
1.22582e-05
1.25673e-05
1.27911e-05
1.28519e-05
1.28152e-05
1.25118e-05
1.19366e-05
1.02802e-05
7.03774e-06
)
;

boundaryField
{
    movingWall
    {
        type            calculated;
        value           uniform 0;
    }
    fixedWalls
    {
        type            calculated;
        value           uniform 0;
    }
    frontAndBack
    {
        type            empty;
        value           nonuniform 0();
    }
}


// ************************************************************************* //
