/*--------------------------------*- C++ -*----------------------------------*\
| =========                 |                                                 |
| \\      /  F ield         | OpenFOAM: The Open Source CFD Toolbox           |
|  \\    /   O peration     | Version:  3.0.0                                 |
|   \\  /    A nd           | Web:      www.OpenFOAM.org                      |
|    \\/     M anipulation  |                                                 |
\*---------------------------------------------------------------------------*/
FoamFile
{
    version     2.0;
    format      ascii;
    class       volVectorField;
    location    "9.5";
    object      U;
}
// * * * * * * * * * * * * * * * * * * * * * * * * * * * * * * * * * * * * * //

dimensions      [0 1 -1 0 0 0 0];

internalField   nonuniform List<vector> 
400
(
(0.00295726 -0.00397677 0)
(0.00792875 -0.00159695 0)
(-0.000914232 0.00156883 0)
(-0.0123583 0.0082794 0)
(-0.0521689 0.0180659 0)
(-0.0899467 0.0163451 0)
(-0.117576 0.0137799 0)
(-0.14143 0.0111933 0)
(-0.156845 0.00874002 0)
(-0.169467 0.00618901 0)
(-0.175681 0.00385523 0)
(-0.178443 0.00192848 0)
(-0.177276 -0.00175028 0)
(-0.169682 -0.00382523 0)
(-0.157759 -0.00789799 0)
(-0.137965 -0.010656 0)
(-0.112079 -0.0149522 0)
(-0.078133 -0.0167563 0)
(-0.0424775 -0.0169879 0)
(-0.00793224 -0.00338968 0)
(0.000204272 -0.00869557 0)
(-0.00764904 0.0054272 0)
(-0.0308546 0.0240839 0)
(-0.070254 0.0466453 0)
(-0.104443 0.0483579 0)
(-0.128009 0.0426157 0)
(-0.147869 0.0357046 0)
(-0.161379 0.027855 0)
(-0.173905 0.0191059 0)
(-0.18063 0.012325 0)
(-0.185138 0.00522434 0)
(-0.184623 -0.000858864 0)
(-0.181394 -0.00794024 0)
(-0.173745 -0.0152359 0)
(-0.162326 -0.0246534 0)
(-0.145142 -0.0354731 0)
(-0.122564 -0.048427 0)
(-0.0933539 -0.0601978 0)
(-0.0591214 -0.0623034 0)
(-0.0178357 -0.0377844 0)
(-0.00779968 0.00532454 0)
(-0.0304007 0.0347241 0)
(-0.0634531 0.0615543 0)
(-0.0951437 0.0738238 0)
(-0.115503 0.0690848 0)
(-0.130646 0.0603773 0)
(-0.142267 0.0481021 0)
(-0.15069 0.0361203 0)
(-0.154899 0.026218 0)
(-0.15626 0.0159975 0)
(-0.156365 0.0067608 0)
(-0.154481 -0.00262714 0)
(-0.151458 -0.0119976 0)
(-0.145013 -0.022467 0)
(-0.13649 -0.0346506 0)
(-0.124113 -0.049739 0)
(-0.107867 -0.0682496 0)
(-0.0859065 -0.0889839 0)
(-0.0578707 -0.103407 0)
(-0.0219053 -0.0877309 0)
(-0.0111074 0.0305204 0)
(-0.0417575 0.0652214 0)
(-0.0740354 0.0887251 0)
(-0.0949303 0.0925187 0)
(-0.107277 0.0835327 0)
(-0.116025 0.0708383 0)
(-0.120517 0.0559727 0)
(-0.122876 0.0418704 0)
(-0.12415 0.0286199 0)
(-0.125249 0.0166394 0)
(-0.124804 0.00569077 0)
(-0.123173 -0.00502108 0)
(-0.119774 -0.0159916 0)
(-0.114627 -0.0281184 0)
(-0.107594 -0.04223 0)
(-0.0986042 -0.0595068 0)
(-0.0868479 -0.0811492 0)
(-0.0705377 -0.107136 0)
(-0.0491103 -0.130026 0)
(-0.0189534 -0.126621 0)
(-0.0121409 0.056233 0)
(-0.0443055 0.0917568 0)
(-0.0675636 0.108153 0)
(-0.0824537 0.106554 0)
(-0.0892307 0.0929668 0)
(-0.093798 0.0769685 0)
(-0.0956397 0.0595897 0)
(-0.0976702 0.0439974 0)
(-0.0987601 0.0296807 0)
(-0.0992876 0.0167562 0)
(-0.0985717 0.00454933 0)
(-0.0968215 -0.00747106 0)
(-0.0936027 -0.0199153 0)
(-0.0890362 -0.033498 0)
(-0.0830804 -0.0490782 0)
(-0.0759094 -0.0678396 0)
(-0.0672869 -0.0913993 0)
(-0.0546576 -0.121971 0)
(-0.0393466 -0.153064 0)
(-0.0163591 -0.158743 0)
(-0.0102289 0.0811958 0)
(-0.0384318 0.115182 0)
(-0.0545662 0.124349 0)
(-0.0657867 0.116666 0)
(-0.0694088 0.0988231 0)
(-0.0725996 0.080156 0)
(-0.0740935 0.0614934 0)
(-0.0760504 0.0452329 0)
(-0.0768595 0.0303047 0)
(-0.0771979 0.0165934 0)
(-0.0764799 0.00338328 0)
(-0.0748961 -0.00975611 0)
(-0.0721192 -0.0234224 0)
(-0.0682186 -0.0382198 0)
(-0.0632035 -0.054878 0)
(-0.0572726 -0.0744275 0)
(-0.0508859 -0.0982976 0)
(-0.041011 -0.12986 0)
(-0.0332487 -0.168833 0)
(-0.00898497 -0.18391 0)
(-0.00856475 0.102812 0)
(-0.029733 0.131681 0)
(-0.040214 0.135893 0)
(-0.0490248 0.123582 0)
(-0.0507973 0.102676 0)
(-0.0537018 0.0823634 0)
(-0.0551238 0.0630447 0)
(-0.0568957 0.0462628 0)
(-0.0575744 0.0307713 0)
(-0.0579211 0.0163658 0)
(-0.0573989 0.00235707 0)
(-0.0561782 -0.0117088 0)
(-0.0540112 -0.0264175 0)
(-0.0509334 -0.0423214 0)
(-0.0469496 -0.0600524 0)
(-0.0420188 -0.0805882 0)
(-0.0375648 -0.105102 0)
(-0.0287414 -0.137967 0)
(-0.0266985 -0.179506 0)
(-0.00669808 -0.204329 0)
(-0.00472765 0.118186 0)
(-0.0194553 0.145406 0)
(-0.0271172 0.145884 0)
(-0.0333023 0.129207 0)
(-0.03412 0.10601 0)
(-0.0367619 0.0843689 0)
(-0.0380352 0.0645454 0)
(-0.0395747 0.0472452 0)
(-0.0402094 0.0312641 0)
(-0.0406003 0.0163069 0)
(-0.0403407 0.00169996 0)
(-0.039559 -0.0130527 0)
(-0.0380911 -0.0285221 0)
(-0.0359395 -0.0452376 0)
(-0.0331855 -0.0636925 0)
(-0.0292511 -0.0848155 0)
(-0.0270901 -0.109338 0)
(-0.0193142 -0.142705 0)
(-0.0219973 -0.186408 0)
(-0.00210005 -0.219935 0)
(-0.00218648 0.128266 0)
(-0.0107955 0.152787 0)
(-0.0148271 0.150932 0)
(-0.0187285 0.132297 0)
(-0.0189864 0.108033 0)
(-0.021265 0.0858955 0)
(-0.0223158 0.0658432 0)
(-0.0235833 0.0481372 0)
(-0.0241768 0.0317859 0)
(-0.0246051 0.0164212 0)
(-0.0246147 0.0013942 0)
(-0.0242888 -0.0138327 0)
(-0.0235487 -0.0298362 0)
(-0.0223401 -0.0471817 0)
(-0.0209725 -0.0662598 0)
(-0.0178983 -0.0879776 0)
(-0.0182723 -0.112591 0)
(-0.0109506 -0.146291 0)
(-0.0179401 -0.190666 0)
(-0.000534078 -0.232273 0)
(0.00202474 0.131705 0)
(-0.00199427 0.158485 0)
(-0.00321064 0.155338 0)
(-0.00522838 0.135239 0)
(-0.00511087 0.11035 0)
(-0.0067756 0.0875071 0)
(-0.00748375 0.067044 0)
(-0.00842059 0.0489427 0)
(-0.00894087 0.0323181 0)
(-0.00939888 0.0167002 0)
(-0.00966522 0.00144786 0)
(-0.0097837 -0.0140189 0)
(-0.00978003 -0.0302737 0)
(-0.00948152 -0.047938 0)
(-0.00967505 -0.0673216 0)
(-0.00745002 -0.0892064 0)
(-0.0107016 -0.113792 0)
(-0.00387965 -0.146982 0)
(-0.0149677 -0.192141 0)
(0.00272714 -0.241185 0)
(0.00503759 0.129477 0)
(0.00510717 0.158195 0)
(0.00786974 0.154714 0)
(0.00781415 0.135134 0)
(0.00849057 0.110385 0)
(0.00749374 0.0878549 0)
(0.00709229 0.0675737 0)
(0.00646748 0.0494442 0)
(0.00602476 0.0327815 0)
(0.00553725 0.0171126 0)
(0.00502302 0.00183526 0)
(0.00448044 -0.0136584 0)
(0.00373075 -0.0299272 0)
(0.00318959 -0.0476381 0)
(0.0014705 -0.0671052 0)
(0.00258947 -0.0887463 0)
(-0.00341612 -0.113638 0)
(0.00292616 -0.145562 0)
(-0.0125731 -0.192027 0)
(0.00439631 -0.247513 0)
(0.00743193 0.122415 0)
(0.0132659 0.155756 0)
(0.0184991 0.153803 0)
(0.0205176 0.136522 0)
(0.0217679 0.111708 0)
(0.0215846 0.0888284 0)
(0.021649 0.0682658 0)
(0.0214585 0.0499593 0)
(0.0212078 0.0332785 0)
(0.0207507 0.0176817 0)
(0.0200061 0.00257064 0)
(0.0190624 -0.0127202 0)
(0.0175215 -0.0287334 0)
(0.0161292 -0.0461905 0)
(0.0130922 -0.0653865 0)
(0.0125476 -0.086573 0)
(0.00416365 -0.111011 0)
(0.00953724 -0.141754 0)
(-0.0107079 -0.189239 0)
(0.0079326 -0.250964 0)
(0.0103131 0.110787 0)
(0.0198847 0.146897 0)
(0.0288168 0.146949 0)
(0.0330986 0.133802 0)
(0.0358898 0.109581 0)
(0.0366267 0.0875391 0)
(0.0371845 0.067623 0)
(0.0374046 0.0497626 0)
(0.0373426 0.033498 0)
(0.0369137 0.0183071 0)
(0.0359007 0.00365257 0)
(0.0345788 -0.0111629 0)
(0.0321511 -0.0266159 0)
(0.029972 -0.0435219 0)
(0.0253058 -0.0619682 0)
(0.0232178 -0.0829071 0)
(0.0124801 -0.105847 0)
(0.016076 -0.135974 0)
(-0.00846812 -0.184902 0)
(0.0110353 -0.252413 0)
(0.0130291 0.0910375 0)
(0.0271516 0.137373 0)
(0.0395628 0.141083 0)
(0.0449739 0.131932 0)
(0.049618 0.110128 0)
(0.0517166 0.0876834 0)
(0.053194 0.0676311 0)
(0.0541649 0.0498733 0)
(0.0545558 0.0339296 0)
(0.0543816 0.0191871 0)
(0.0531915 0.00514218 0)
(0.0516045 -0.00896911 0)
(0.048207 -0.0235443 0)
(0.0452459 -0.0395277 0)
(0.0386791 -0.0568647 0)
(0.0350707 -0.0768953 0)
(0.0215101 -0.0980298 0)
(0.0228462 -0.128297 0)
(-0.00590381 -0.178737 0)
(0.0157813 -0.25204 0)
(0.0150829 0.0689429 0)
(0.0316822 0.119265 0)
(0.0477133 0.128729 0)
(0.0567892 0.122699 0)
(0.0640471 0.105077 0)
(0.0685202 0.0843231 0)
(0.0713942 0.0653137 0)
(0.0732729 0.0484759 0)
(0.0740961 0.033491 0)
(0.0741853 0.0197125 0)
(0.0726733 0.00674476 0)
(0.0708284 -0.00625119 0)
(0.066263 -0.0194804 0)
(0.0625265 -0.034093 0)
(0.0537636 -0.0497529 0)
(0.0485732 -0.0683736 0)
(0.0315982 -0.0873848 0)
(0.0303479 -0.117882 0)
(-0.00310322 -0.170398 0)
(0.0203475 -0.250756 0)
(0.015602 0.0392926 0)
(0.0355652 0.103921 0)
(0.052588 0.118193 0)
(0.0648552 0.115362 0)
(0.0753908 0.101174 0)
(0.0835111 0.082418 0)
(0.0891893 0.0641805 0)
(0.093034 0.0479071 0)
(0.0948734 0.0337097 0)
(0.0958136 0.0208747 0)
(0.0941439 0.00912277 0)
(0.0924509 -0.00254146 0)
(0.0867613 -0.014108 0)
(0.0824111 -0.0269918 0)
(0.0712358 -0.0404043 0)
(0.0641679 -0.0569261 0)
(0.0431737 -0.0734489 0)
(0.0391452 -0.10458 0)
(-0.000254446 -0.160271 0)
(0.0264608 -0.246896 0)
(0.00231823 0.0114934 0)
(0.0297064 0.0741893 0)
(0.0523281 0.0954294 0)
(0.0696764 0.096952 0)
(0.0853943 0.0875352 0)
(0.0983553 0.0732904 0)
(0.107853 0.0584589 0)
(0.114885 0.0441982 0)
(0.118255 0.0315338 0)
(0.120752 0.0200807 0)
(0.119021 0.0100467 0)
(0.117684 0.000182841 0)
(0.110617 -0.00901999 0)
(0.105441 -0.0193082 0)
(0.0916312 -0.0293145 0)
(0.0823454 -0.0427426 0)
(0.0574548 -0.0561453 0)
(0.0506148 -0.0879663 0)
(0.00380229 -0.146633 0)
(0.0340587 -0.236364 0)
(-0.0095789 0.0178705 0)
(0.0141335 0.0641147 0)
(0.0381221 0.0801985 0)
(0.0616702 0.0810897 0)
(0.0839348 0.0740519 0)
(0.104121 0.0630227 0)
(0.118974 0.0515181 0)
(0.131075 0.0410069 0)
(0.137136 0.0315786 0)
(0.142537 0.0223614 0)
(0.141836 0.0146562 0)
(0.141639 0.00663765 0)
(0.134604 0.000109204 0)
(0.129432 -0.00783282 0)
(0.114809 -0.0143606 0)
(0.104497 -0.0253172 0)
(0.0784465 -0.035718 0)
(0.0700995 -0.0678566 0)
(0.0160835 -0.125432 0)
(0.0490048 -0.207607 0)
(-0.0220872 -0.00270873 0)
(-0.0168585 0.0158836 0)
(0.0140942 0.0326933 0)
(0.0471924 0.038075 0)
(0.0758545 0.0385534 0)
(0.102179 0.0348407 0)
(0.121892 0.0298126 0)
(0.139067 0.0233645 0)
(0.149723 0.0185145 0)
(0.158724 0.0132732 0)
(0.16212 0.00968573 0)
(0.164525 0.00496968 0)
(0.161913 0.00214264 0)
(0.158572 -0.00271225 0)
(0.148929 -0.00562616 0)
(0.141283 -0.0126729 0)
(0.120787 -0.0197525 0)
(0.112897 -0.0460358 0)
(0.0578398 -0.0895909 0)
(0.0824661 -0.153765 0)
(0.0386993 0.0795013 0)
(0.0389845 0.0481403 0)
(0.0696619 0.0294356 0)
(0.0997904 0.0229814 0)
(0.126874 0.0212335 0)
(0.154567 0.0190314 0)
(0.17777 0.0174166 0)
(0.19952 0.0150856 0)
(0.216013 0.0137496 0)
(0.230618 0.0115976 0)
(0.240591 0.0106845 0)
(0.249151 0.00862238 0)
(0.253862 0.00801004 0)
(0.257221 0.00569877 0)
(0.256546 0.00464131 0)
(0.253128 0.00215998 0)
(0.243168 0.0014142 0)
(0.227062 -0.00833898 0)
(0.172419 -0.0172271 0)
(0.157753 -0.0939512 0)
)
;

boundaryField
{
    movingWall
    {
        type            fixedValue;
        value           uniform (1 0 0);
    }
    fixedWalls
    {
        type            fixedValue;
        value           uniform (0 0 0);
    }
    frontAndBack
    {
        type            empty;
    }
}


// ************************************************************************* //
