/*--------------------------------*- C++ -*----------------------------------*\
| =========                 |                                                 |
| \\      /  F ield         | OpenFOAM: The Open Source CFD Toolbox           |
|  \\    /   O peration     | Version:  3.0.0                                 |
|   \\  /    A nd           | Web:      www.OpenFOAM.org                      |
|    \\/     M anipulation  |                                                 |
\*---------------------------------------------------------------------------*/
FoamFile
{
    version     2.0;
    format      ascii;
    class       volScalarField;
    location    "1.5";
    object      k;
}
// * * * * * * * * * * * * * * * * * * * * * * * * * * * * * * * * * * * * * //

dimensions      [0 2 -2 0 0 0 0];

internalField   nonuniform List<scalar> 
400
(
1.27262e-07
1.47956e-06
3.6048e-06
5.36373e-06
7.38939e-06
1.0248e-05
1.43334e-05
1.99779e-05
2.74382e-05
3.67085e-05
4.72176e-05
5.74184e-05
6.34017e-05
6.50676e-05
6.01428e-05
4.79297e-05
2.87057e-05
1.4735e-05
6.23367e-06
2.1089e-06
1.58966e-06
3.16222e-05
6.65012e-05
7.63638e-05
7.84548e-05
8.06469e-05
8.54467e-05
9.34709e-05
0.000105018
0.000119635
0.000136084
0.000143466
0.000144309
0.000125256
7.32642e-05
4.38889e-05
3.79971e-05
3.64642e-05
2.67399e-05
1.77406e-05
6.40802e-06
0.000115956
0.000254368
0.00031099
0.000331648
0.00034304
0.000356436
0.000374147
0.000393621
0.000401074
0.000398677
0.000356635
0.000262868
0.00013582
9.11545e-05
9.39124e-05
0.000128278
0.000138634
0.000123306
0.000101258
1.48025e-05
0.000221171
0.000463746
0.000582102
0.000643167
0.000679071
0.000702477
0.00071109
0.000709297
0.000679854
0.000604442
0.000463367
0.00024981
0.000148834
0.000142444
0.000231395
0.000322253
0.00034878
0.000351456
0.000362444
2.57813e-05
0.000326003
0.000646583
0.000807051
0.000896896
0.000950363
0.000974434
0.000977753
0.000956482
0.0008893
0.000751229
0.000511536
0.00025507
0.000189036
0.000239236
0.000442959
0.000561992
0.000609073
0.000629408
0.00075748
3.79096e-05
0.000420421
0.000798552
0.000987163
0.0010949
0.00115713
0.001182
0.00118222
0.0011479
0.00105689
0.000875972
0.000561421
0.000284316
0.000237291
0.00034133
0.000616134
0.000762005
0.000800243
0.000805338
0.00101634
4.98855e-05
0.00049929
0.00091936
0.00112734
0.00124586
0.00131299
0.00133919
0.00133807
0.00129809
0.00119815
0.00100049
0.00064884
0.00032751
0.000267979
0.000365589
0.000641424
0.00086044
0.000985831
0.00097791
0.0011537
6.08274e-05
0.000561143
0.00101125
0.00123316
0.00135873
0.00142955
0.00145805
0.00145753
0.00141788
0.00132099
0.00113185
0.000789613
0.000386884
0.000275108
0.000326165
0.000548629
0.000859635
0.00117057
0.00118988
0.00130025
7.02779e-05
0.000606556
0.00107794
0.00131029
0.00144116
0.00151558
0.00154761
0.00154949
0.00151428
0.00142759
0.00126212
0.000970578
0.000528303
0.000298526
0.00027548
0.000410498
0.000736472
0.00130944
0.00138622
0.00140329
7.81653e-05
0.000637388
0.00112368
0.00136412
0.00149952
0.00157784
0.00161439
0.00162015
0.00159158
0.00151788
0.00138001
0.00114569
0.00077833
0.000394225
0.000288663
0.000354967
0.000703308
0.00146063
0.0015996
0.00152392
8.45685e-05
0.000656451
0.00115268
0.00139944
0.00153911
0.00162156
0.00166332
0.00167396
0.00165271
0.0015917
0.00147836
0.00129272
0.00101028
0.000634383
0.000382008
0.000418789
0.000773712
0.00164243
0.00180943
0.00165576
8.97542e-05
0.000665846
0.00116835
0.00142016
0.00156408
0.0016509
0.00169831
0.00171444
0.00170032
0.00165023
0.00155589
0.00140526
0.00118489
0.000892907
0.000598597
0.00059285
0.000979669
0.00181704
0.00198771
0.0018023
9.40842e-05
0.000668198
0.00117297
0.00142909
0.00157744
0.00166919
0.00172266
0.00174483
0.00173747
0.00169648
0.00161602
0.00148874
0.00130785
0.0010753
0.000831106
0.000813696
0.00118254
0.00189712
0.00215705
0.00199441
9.80762e-05
0.000665917
0.00117064
0.0014289
0.00158184
0.00167943
0.00173967
0.00176885
0.00176838
0.00173596
0.0016663
0.00155474
0.00139839
0.00120239
0.00100343
0.000993805
0.00130086
0.00192372
0.00231732
0.00221825
0.000102422
0.000662243
0.0011637
0.0014235
0.0015808
0.00168519
0.00175371
0.00179192
0.00180038
0.00177782
0.00171976
0.00162145
0.00148242
0.00130916
0.00113662
0.0011184
0.00135364
0.00192559
0.00246063
0.00251484
0.00010808
0.000654541
0.00114932
0.00141075
0.00157736
0.00169325
0.001774
0.00182539
0.00184774
0.00183956
0.00179924
0.00171963
0.00160068
0.00144775
0.0012876
0.00124174
0.00140416
0.00192583
0.0025916
0.00289988
0.000116951
0.000654884
0.00113593
0.00140692
0.0015893
0.00172431
0.00182713
0.00190249
0.00195038
0.00196968
0.00195905
0.001917
0.00183432
0.00171887
0.00157904
0.00149868
0.00158702
0.00202852
0.00280622
0.00343495
0.000139317
0.0006753
0.00118402
0.00148724
0.0017111
0.00189103
0.00203876
0.00216149
0.00225711
0.0023302
0.0023739
0.0023939
0.00238071
0.00234461
0.00226244
0.00218276
0.002204
0.00250878
0.00330054
0.00425018
0.000192521
0.000894192
0.00167497
0.0021852
0.00255594
0.00285161
0.00309134
0.00330337
0.00347183
0.00362917
0.00374079
0.00385473
0.00391519
0.00399424
0.00399711
0.00399902
0.00401228
0.00422837
0.00505799
0.00570974
0.00254155
0.00507536
0.00666785
0.00742796
0.00791865
0.00823807
0.00844364
0.00857084
0.00863981
0.00866708
0.00866123
0.00864382
0.00860084
0.00857316
0.0085153
0.00850533
0.00852061
0.00857528
0.00888163
0.00747584
)
;

boundaryField
{
    movingWall
    {
        type            kqRWallFunction;
        value           nonuniform List<scalar> 
20
(
0.00254155
0.00507536
0.00666785
0.00742796
0.00791865
0.00823807
0.00844364
0.00857084
0.00863981
0.00866708
0.00866123
0.00864382
0.00860084
0.00857316
0.0085153
0.00850533
0.00852061
0.00857528
0.00888163
0.00747584
)
;
    }
    fixedWalls
    {
        type            kqRWallFunction;
        value           nonuniform List<scalar> 
60
(
1.27262e-07
1.58966e-06
6.40802e-06
1.48025e-05
2.57813e-05
3.79096e-05
4.98855e-05
6.08274e-05
7.02779e-05
7.81653e-05
8.45685e-05
8.97542e-05
9.40842e-05
9.80762e-05
0.000102422
0.00010808
0.000116951
0.000139317
0.000192521
0.00254155
2.1089e-06
1.77406e-05
0.000101258
0.000362444
0.00075748
0.00101634
0.0011537
0.00130025
0.00140329
0.00152392
0.00165576
0.0018023
0.00199441
0.00221825
0.00251484
0.00289988
0.00343495
0.00425018
0.00570974
0.00747584
1.27262e-07
1.47956e-06
3.6048e-06
5.36373e-06
7.38939e-06
1.0248e-05
1.43334e-05
1.99779e-05
2.74382e-05
3.67085e-05
4.72176e-05
5.74184e-05
6.34017e-05
6.50676e-05
6.01428e-05
4.79297e-05
2.87057e-05
1.4735e-05
6.23367e-06
2.1089e-06
)
;
    }
    frontAndBack
    {
        type            empty;
    }
}


// ************************************************************************* //
