/*--------------------------------*- C++ -*----------------------------------*\
| =========                 |                                                 |
| \\      /  F ield         | OpenFOAM: The Open Source CFD Toolbox           |
|  \\    /   O peration     | Version:  3.0.0                                 |
|   \\  /    A nd           | Web:      www.OpenFOAM.org                      |
|    \\/     M anipulation  |                                                 |
\*---------------------------------------------------------------------------*/
FoamFile
{
    version     2.0;
    format      ascii;
    class       volScalarField;
    location    "1.5";
    object      nut;
}
// * * * * * * * * * * * * * * * * * * * * * * * * * * * * * * * * * * * * * //

dimensions      [0 2 -1 0 0 0 0];

internalField   nonuniform List<scalar> 
400
(
9.94223e-10
1.15574e-08
2.81526e-08
4.18822e-08
5.76881e-08
7.99829e-08
1.11824e-07
1.55776e-07
2.13795e-07
2.85775e-07
3.67222e-07
4.46125e-07
4.92335e-07
5.05191e-07
4.67167e-07
3.72728e-07
2.23645e-07
1.14955e-07
4.86717e-08
1.64725e-08
1.24173e-08
9.32324e-07
2.14008e-06
2.255e-06
2.1795e-06
2.15185e-06
2.21208e-06
2.36685e-06
2.63214e-06
3.00655e-06
3.52752e-06
3.97854e-06
4.47755e-06
4.33546e-06
2.64494e-06
1.43118e-06
1.0387e-06
8.24754e-07
4.28459e-07
1.38369e-07
5.00314e-08
4.76969e-06
1.58131e-05
1.90008e-05
1.89852e-05
1.87493e-05
1.89856e-05
1.97346e-05
2.0895e-05
2.19952e-05
2.30843e-05
2.12138e-05
1.55802e-05
6.99555e-06
3.59354e-06
2.75023e-06
2.97489e-06
2.5683e-06
1.61783e-06
7.83701e-07
1.15478e-07
9.7717e-06
3.70553e-05
5.05227e-05
5.47298e-05
5.59684e-05
5.68016e-05
5.71046e-05
5.72113e-05
5.51718e-05
4.85908e-05
3.41482e-05
1.48607e-05
6.54258e-06
4.48513e-06
5.8669e-06
7.04324e-06
6.00261e-06
4.17657e-06
2.73944e-06
2.00913e-07
1.47487e-05
5.77312e-05
8.53009e-05
9.71952e-05
0.000102091
0.000103148
0.000102056
9.81544e-05
8.79701e-05
6.79083e-05
3.80241e-05
1.39073e-05
7.17711e-06
7.09337e-06
1.16923e-05
1.32865e-05
1.11356e-05
7.47893e-06
5.53045e-06
2.95085e-07
1.91654e-05
7.54789e-05
0.00011785
0.000139639
0.00014914
0.000150974
0.00014761
0.000137549
0.000117054
8.34116e-05
4.12203e-05
1.45612e-05
8.81137e-06
1.10316e-05
1.94491e-05
2.3702e-05
1.89158e-05
1.07987e-05
7.25934e-06
3.87857e-07
2.27376e-05
8.9652e-05
0.000145599
0.000178068
0.000192968
0.000196252
0.00019054
0.000174291
0.000144684
0.000100681
4.9022e-05
1.71299e-05
1.05578e-05
1.36514e-05
2.48424e-05
3.33408e-05
2.91929e-05
1.52816e-05
8.14965e-06
4.72434e-07
2.54352e-05
0.00010025
0.000167692
0.00021043
0.000231534
0.000236964
0.000229824
0.00020899
0.000173096
0.000122647
6.43386e-05
2.18962e-05
1.19835e-05
1.36686e-05
2.37282e-05
3.69927e-05
3.92654e-05
2.07291e-05
9.07982e-06
5.45338e-07
2.72632e-05
0.000107585
0.000184186
0.00023613
0.000263796
0.000272241
0.000265123
0.000242049
0.00020311
0.000150166
8.95443e-05
3.52803e-05
1.48973e-05
1.26671e-05
1.89882e-05
3.34546e-05
4.67373e-05
2.59989e-05
9.72113e-06
6.06084e-07
2.83722e-05
0.000112125
0.000195618
0.000255348
0.000289445
0.000301672
0.000296075
0.000273056
0.000233849
0.000181258
0.000121024
6.26612e-05
2.3923e-05
1.49739e-05
1.75182e-05
3.29146e-05
5.32749e-05
3.08254e-05
1.04619e-05
6.55331e-07
2.89338e-05
0.000114635
0.000202773
0.000268622
0.000308517
0.000324948
0.00032206
0.000300944
0.000263558
0.000213215
0.000155207
9.69052e-05
4.75467e-05
2.34004e-05
2.29817e-05
3.7786e-05
6.02888e-05
3.50477e-05
1.12558e-05
6.95169e-07
2.90641e-05
0.000115376
0.000206216
0.000276435
0.00032101
0.000341552
0.000342045
0.000324126
0.000290096
0.000243337
0.000188633
0.000132154
8.09381e-05
4.41034e-05
3.72152e-05
5.13561e-05
6.71749e-05
3.84067e-05
1.2123e-05
7.28403e-07
2.89345e-05
0.000114866
0.000206792
0.000278929
0.000326381
0.000350224
0.000354126
0.000340192
0.000310718
0.000268778
0.000218488
0.000164941
0.000114072
7.29831e-05
5.89664e-05
6.73323e-05
7.1266e-05
4.12002e-05
1.32338e-05
7.59018e-07
2.86256e-05
0.000113527
0.000204743
0.000276996
0.000325048
0.000350332
0.00035634
0.000345601
0.000320982
0.000285232
0.000241218
0.000192468
0.000143912
0.000102133
8.30106e-05
8.11007e-05
7.38113e-05
4.42719e-05
1.44941e-05
7.92318e-07
2.84013e-05
0.000111647
0.00019971
0.000268441
0.000313777
0.000338109
0.000345086
0.000337748
0.000318107
0.000288363
0.000250751
0.000209081
0.00016627
0.000127129
0.000103503
9.01701e-05
7.45312e-05
4.62178e-05
1.61119e-05
8.3564e-07
2.80385e-05
0.000108151
0.000188801
0.000248391
0.000285648
0.000304768
0.000310286
0.000305271
0.000291444
0.000270505
0.000243046
0.000210632
0.000175483
0.000141297
0.000116138
9.51783e-05
7.34239e-05
4.5876e-05
1.81294e-05
9.03471e-07
2.81524e-05
0.000101597
0.000166672
0.000208036
0.000230605
0.000240933
0.000243115
0.000239649
0.000231608
0.000219894
0.000204663
0.000185682
0.000163728
0.000140177
0.00011695
9.42232e-05
6.94914e-05
4.54884e-05
2.0796e-05
1.07398e-06
2.79734e-05
8.57879e-05
0.000121895
0.000139308
0.000147656
0.000150951
0.00015161
0.000150596
0.000148114
0.000144471
0.00013927
0.000132927
0.000124534
0.000114588
0.000101261
8.50028e-05
6.34856e-05
4.42296e-05
2.4592e-05
1.47675e-06
2.60977e-05
5.33969e-05
6.50439e-05
7.0415e-05
7.36457e-05
7.56846e-05
7.71472e-05
7.81366e-05
7.88296e-05
7.91742e-05
7.91491e-05
7.88289e-05
7.78837e-05
7.63267e-05
7.32846e-05
6.63861e-05
5.40595e-05
4.37474e-05
3.07399e-05
1.62548e-05
2.81591e-05
3.44148e-05
3.71626e-05
3.88672e-05
3.99499e-05
4.0636e-05
4.10564e-05
4.12831e-05
4.13723e-05
4.13531e-05
4.12959e-05
4.11546e-05
4.10635e-05
4.08725e-05
4.08399e-05
4.08905e-05
4.10711e-05
4.20722e-05
3.73306e-05
)
;

boundaryField
{
    movingWall
    {
        type            nutkWallFunction;
        Cmu             0.09;
        kappa           0.41;
        E               9.8;
        value           nonuniform List<scalar> 
20
(
0
0
0
1.85221e-07
4.45928e-07
6.10659e-07
7.14734e-07
7.78401e-07
8.12699e-07
8.26214e-07
8.23318e-07
8.14687e-07
7.93339e-07
7.79557e-07
7.50672e-07
7.45683e-07
7.53324e-07
7.80615e-07
9.31706e-07
2.11087e-07
)
;
    }
    fixedWalls
    {
        type            nutkWallFunction;
        Cmu             0.09;
        kappa           0.41;
        E               9.8;
        value           nonuniform List<scalar> 
60
(
0
0
0
0
0
0
0
0
0
0
0
0
0
0
0
0
0
0
0
0
0
0
0
0
0
0
0
0
0
0
0
0
0
0
0
0
0
0
0
2.11087e-07
0
0
0
0
0
0
0
0
0
0
0
0
0
0
0
0
0
0
0
0
)
;
    }
    frontAndBack
    {
        type            empty;
    }
}


// ************************************************************************* //
