/*--------------------------------*- C++ -*----------------------------------*\
| =========                 |                                                 |
| \\      /  F ield         | OpenFOAM: The Open Source CFD Toolbox           |
|  \\    /   O peration     | Version:  3.0.0                                 |
|   \\  /    A nd           | Web:      www.OpenFOAM.org                      |
|    \\/     M anipulation  |                                                 |
\*---------------------------------------------------------------------------*/
FoamFile
{
    version     2.0;
    format      ascii;
    class       volScalarField;
    location    "1.5";
    object      omega;
}
// * * * * * * * * * * * * * * * * * * * * * * * * * * * * * * * * * * * * * //

dimensions      [0 0 -1 0 0 0 0];

internalField   nonuniform List<scalar> 
400
(
128.002
128.019
128.045
128.067
128.092
128.128
128.178
128.247
128.339
128.452
128.581
128.705
128.778
128.798
128.739
128.591
128.354
128.18
128.076
128.026
128.02
33.9176
31.0742
33.8642
35.9967
37.478
38.6274
39.4916
39.8985
39.7915
38.5779
36.06
32.2294
28.891
27.6998
30.6663
36.5816
44.2122
62.4095
128.212
128.08
24.3111
16.086
16.3672
17.4687
18.2962
18.774
18.9589
18.838
18.2346
17.2704
16.8115
16.8719
19.4152
25.3662
34.1472
43.1203
53.9788
76.2171
129.204
128.184
22.6339
12.515
11.5216
11.7517
12.1331
12.3672
12.4524
12.3978
12.3225
12.4394
13.5693
16.8101
22.7485
31.7592
39.4408
45.7535
58.1048
84.1493
132.306
128.32
22.1039
11.1999
9.46123
9.22778
9.30902
9.44699
9.58053
9.74467
10.1091
11.0624
13.4529
18.3406
26.3388
33.7267
37.8845
42.2979
54.696
84.1575
136.965
128.47
21.9364
10.5798
8.37645
7.84089
7.75868
7.82914
8.00907
8.34539
9.0291
10.5018
13.62
19.5256
26.9302
30.9412
31.6793
32.1494
42.3055
74.5775
140.004
128.618
21.9588
10.2548
7.74276
6.99651
6.80416
6.82381
7.0225
7.44783
8.28115
9.93723
13.2357
19.1192
25.3821
26.7804
25.8197
25.8074
33.7695
63.9926
141.564
128.753
22.0617
10.0873
7.35372
6.45695
6.17425
6.15305
6.34194
6.78446
7.63159
9.22851
12.2728
17.669
22.9572
23.8623
23.1214
23.238
29.8117
57.4014
143.203
128.87
22.2481
10.0194
7.11394
6.10325
5.74527
5.6847
5.84443
6.2561
7.02866
8.40486
10.8391
14.9744
20.039
21.7477
21.6185
22.0141
28.0171
53.3185
144.355
128.968
22.4652
10.0217
6.97338
5.87244
5.45125
5.35146
5.47211
5.82876
6.49088
7.61354
9.46663
12.4212
16.4789
19.2777
20.2628
21.3677
27.4168
51.8924
145.664
129.047
22.6881
10.0552
6.90153
5.72966
5.25599
5.11871
5.19767
5.49175
6.03928
6.93364
8.329
10.4255
13.3423
16.3248
18.2227
20.4762
27.2427
51.6276
147.103
129.111
22.9096
10.1265
6.88675
5.65803
5.14283
4.97234
5.01233
5.24585
5.68858
6.39396
7.44968
8.96601
11.032
13.5726
15.9303
19.076
27.0494
51.7544
148.668
129.165
23.0934
10.2117
6.91074
5.65533
5.11423
4.91872
4.92714
5.10733
5.45987
6.01248
6.81381
7.92922
9.42652
11.3876
13.7993
17.5628
26.6203
52.3552
150.705
129.215
23.263
10.3115
6.97902
5.71068
5.16671
4.96577
4.96395
5.11684
5.40827
5.84192
6.44539
7.26557
8.35505
9.82477
11.972
16.04
26.0626
52.3428
153.045
129.268
23.3173
10.423
7.12782
5.88879
5.37066
5.18682
5.19269
5.33054
5.58876
5.96388
6.46638
7.09021
7.87373
8.94069
10.8055
15.012
25.8361
53.2399
156.085
129.338
23.3444
10.6269
7.47216
6.3503
5.92775
5.82081
5.88294
6.05277
6.31188
6.65139
7.07532
7.59942
8.25006
9.1127
10.6919
14.753
26.2289
56.4914
159.955
129.447
23.2621
11.1807
8.44128
7.63954
7.47732
7.58357
7.82545
8.13845
8.50439
8.90903
9.36663
9.8788
10.4983
11.2647
12.8147
16.8431
29.191
61.691
165.173
129.721
24.1408
13.8017
12.2009
12.2829
12.807
13.5061
14.2569
14.9879
15.7325
16.4317
17.189
17.9099
18.8271
19.7441
21.5558
25.9285
39.5174
74.6229
172.828
130.368
34.2633
31.3684
33.5958
36.2983
38.7206
40.845
42.8191
44.4328
46.0382
47.2476
48.7022
49.6669
51.2847
52.3684
54.5684
60.4386
78.2169
115.618
185.744
156.356
180.239
193.749
199.877
203.736
206.21
207.787
208.757
209.282
209.49
209.446
209.314
208.989
208.778
208.338
208.26
208.376
208.791
211.104
200.26
)
;

boundaryField
{
    movingWall
    {
        Cmu             0.09;
        kappa           0.41;
        E               9.8;
        beta1           0.075;
        type            omegaWallFunction;
        value           nonuniform List<scalar> 
20
(
156.356
180.239
193.749
199.877
203.736
206.21
207.787
208.757
209.282
209.49
209.446
209.314
208.989
208.778
208.338
208.26
208.376
208.791
211.104
200.26
)
;
    }
    fixedWalls
    {
        Cmu             0.09;
        kappa           0.41;
        E               9.8;
        beta1           0.075;
        type            omegaWallFunction;
        value           nonuniform List<scalar> 
60
(
128.002
128.02
128.08
128.184
128.32
128.47
128.618
128.753
128.87
128.968
129.047
129.111
129.165
129.215
129.268
129.338
129.447
129.721
130.368
156.356
128.026
128.212
129.204
132.306
136.965
140.004
141.564
143.203
144.355
145.664
147.103
148.668
150.705
153.045
156.085
159.955
165.173
172.828
185.744
200.26
128.002
128.019
128.045
128.067
128.092
128.128
128.178
128.247
128.339
128.452
128.581
128.705
128.778
128.798
128.739
128.591
128.354
128.18
128.076
128.026
)
;
    }
    frontAndBack
    {
        type            empty;
    }
}


// ************************************************************************* //
