/*--------------------------------*- C++ -*----------------------------------*\
| =========                 |                                                 |
| \\      /  F ield         | OpenFOAM: The Open Source CFD Toolbox           |
|  \\    /   O peration     | Version:  3.0.0                                 |
|   \\  /    A nd           | Web:      www.OpenFOAM.org                      |
|    \\/     M anipulation  |                                                 |
\*---------------------------------------------------------------------------*/
FoamFile
{
    version     2.0;
    format      ascii;
    class       volScalarField;
    location    "1.5";
    object      p;
}
// * * * * * * * * * * * * * * * * * * * * * * * * * * * * * * * * * * * * * //

dimensions      [0 2 -2 0 0 0 0];

internalField   nonuniform List<scalar> 
400
(
6.85848e-07
4.71807e-06
1.86369e-05
4.78236e-05
8.96954e-05
0.000140646
0.000198554
0.000263788
0.000339504
0.000432367
0.000553685
0.000720569
0.000953403
0.00130156
0.00186644
0.00266285
0.00356525
0.00437981
0.00487212
0.00499268
-5.29421e-06
-3.48252e-06
9.1949e-06
3.85121e-05
7.98709e-05
0.00012852
0.000181728
0.000239077
0.000302585
0.000377714
0.000473836
0.000603833
0.00079086
0.00109983
0.00163071
0.00241273
0.00335818
0.00422019
0.00478731
0.00499582
-1.54042e-05
-1.99033e-05
-1.41337e-05
1.03016e-05
4.76529e-05
9.03587e-05
0.000134373
0.000177755
0.000220338
0.000264373
0.00031549
0.000378018
0.000463416
0.000639877
0.00104958
0.00174158
0.0026721
0.00368348
0.00450201
0.00496834
-3.25657e-05
-4.60081e-05
-5.39763e-05
-4.06964e-05
-1.11922e-05
2.18091e-05
5.1542e-05
7.38318e-05
8.53725e-05
8.43688e-05
7.16419e-05
3.71638e-05
-4.5877e-05
-0.000140899
-7.49938e-05
0.000371748
0.00126
0.00245383
0.00372777
0.00460614
-6.26918e-05
-8.58167e-05
-0.000114319
-0.000120788
-0.000105485
-8.70943e-05
-7.75684e-05
-8.44055e-05
-0.000114944
-0.00017508
-0.000268906
-0.000428959
-0.000744978
-0.00123624
-0.00168098
-0.00164174
-0.000921187
0.000364176
0.00198383
0.00308385
-0.000111626
-0.000143847
-0.000195584
-0.000228344
-0.000234792
-0.000237455
-0.000253996
-0.000296217
-0.00037605
-0.000504013
-0.000690527
-0.000989666
-0.00154783
-0.00244495
-0.00346388
-0.00385718
-0.00327917
-0.00202228
-0.000405535
0.000800796
-0.000182491
-0.000222073
-0.000294253
-0.00035332
-0.000385022
-0.000412562
-0.000457714
-0.000536527
-0.000665029
-0.000859154
-0.00113658
-0.00155612
-0.00227869
-0.00343297
-0.00476438
-0.00534651
-0.00490206
-0.00382031
-0.00257764
-0.0013279
-0.000274742
-0.000319258
-0.000405759
-0.000485711
-0.000540637
-0.000592041
-0.000663374
-0.000773239
-0.00093988
-0.00118292
-0.00152526
-0.00201295
-0.00277638
-0.00394336
-0.00533823
-0.0060055
-0.00567843
-0.00480634
-0.00389789
-0.0028501
-0.000385109
-0.000431537
-0.00052529
-0.000618077
-0.000690159
-0.000760312
-0.000851283
-0.000981843
-0.00116987
-0.00143461
-0.00179799
-0.00229267
-0.0029982
-0.00397943
-0.00525414
-0.00590916
-0.00566482
-0.00500338
-0.00444779
-0.00358023
-0.000507963
-0.0005539
-0.000648063
-0.00074537
-0.000826776
-0.000908391
-0.00101063
-0.00115036
-0.00134283
-0.00160348
-0.00194908
-0.0024008
-0.0029887
-0.00374106
-0.00462587
-0.00511557
-0.00508107
-0.00462793
-0.00442239
-0.0037496
-0.000637526
-0.000681235
-0.00077028
-0.000864661
-0.000947459
-0.00103293
-0.00113848
-0.00127775
-0.00146202
-0.00170113
-0.00200368
-0.00237674
-0.00282649
-0.0033386
-0.0038595
-0.00418812
-0.00428835
-0.00402913
-0.00413284
-0.00351726
-0.000768932
-0.000808795
-0.000888505
-0.000973934
-0.00105144
-0.00113409
-0.00123681
-0.00136952
-0.00153929
-0.0017505
-0.00200455
-0.0022989
-0.00262508
-0.00295993
-0.00326748
-0.0034756
-0.00361136
-0.00341184
-0.00371923
-0.00303517
-0.000899672
-0.000934167
-0.0010009
-0.00107174
-0.00113825
-0.0012133
-0.00130915
-0.00143263
-0.00158702
-0.00177245
-0.00198553
-0.0022187
-0.00245883
-0.00268456
-0.00287422
-0.00301236
-0.0031524
-0.00286959
-0.0033603
-0.00243879
-0.00102899
-0.00105492
-0.00110388
-0.00115623
-0.00120733
-0.00127103
-0.00135791
-0.00147209
-0.00161371
-0.00177968
-0.00196376
-0.00215628
-0.00234383
-0.00250914
-0.00263863
-0.00272959
-0.00284555
-0.00240348
-0.00306479
-0.00171901
-0.00116072
-0.00117333
-0.00119836
-0.00122563
-0.00125597
-0.0013046
-0.00138104
-0.00148702
-0.00162025
-0.00177514
-0.00194334
-0.00211344
-0.00227188
-0.00240256
-0.00249488
-0.00253942
-0.00260183
-0.00197749
-0.00271749
-0.000951523
-0.00130112
-0.00128163
-0.0012794
-0.00127085
-0.00127258
-0.00130078
-0.00136467
-0.00146358
-0.00159377
-0.00174746
-0.0019144
-0.00208046
-0.0022303
-0.00234402
-0.00240716
-0.00239105
-0.00235621
-0.00152731
-0.00225399
2.0073e-05
-0.00146171
-0.00138235
-0.00133563
-0.00126491
-0.00122669
-0.00123086
-0.00128117
-0.00137549
-0.00150891
-0.00167131
-0.00185174
-0.00203276
-0.00219671
-0.00231361
-0.00235808
-0.00226409
-0.00205011
-0.000956563
-0.00138757
0.00220619
-0.00162092
-0.00139851
-0.00130425
-0.00115803
-0.00108626
-0.00107682
-0.00112359
-0.00122069
-0.00136365
-0.00154006
-0.00174134
-0.00194549
-0.00213702
-0.00227022
-0.00231111
-0.00211544
-0.00163627
-0.000141459
0.000647991
0.00807837
-0.00266978
-0.00217878
-0.00178215
-0.0013643
-0.00112795
-0.00102805
-0.00102688
-0.00109752
-0.00123004
-0.00140292
-0.00161267
-0.00182557
-0.00203653
-0.00217514
-0.00221331
-0.00193778
-0.00107748
0.00127105
0.00507958
0.0187275
-0.000419649
0.00162811
0.00101094
0.000426396
8.55522e-05
-0.000120599
-0.000306335
-0.000512257
-0.0007449
-0.000998745
-0.00126448
-0.00153048
-0.00175867
-0.00189896
-0.00181073
-0.00134149
0.000212342
0.00424196
0.012425
0.0288181
)
;

boundaryField
{
    movingWall
    {
        type            zeroGradient;
    }
    fixedWalls
    {
        type            zeroGradient;
    }
    frontAndBack
    {
        type            empty;
    }
}


// ************************************************************************* //
