/*--------------------------------*- C++ -*----------------------------------*\
| =========                 |                                                 |
| \\      /  F ield         | OpenFOAM: The Open Source CFD Toolbox           |
|  \\    /   O peration     | Version:  3.0.0                                 |
|   \\  /    A nd           | Web:      www.OpenFOAM.org                      |
|    \\/     M anipulation  |                                                 |
\*---------------------------------------------------------------------------*/
FoamFile
{
    version     2.0;
    format      ascii;
    class       surfaceScalarField;
    location    "1.5";
    object      phi;
}
// * * * * * * * * * * * * * * * * * * * * * * * * * * * * * * * * * * * * * //

dimensions      [0 3 -1 0 0 0 0];

internalField   nonuniform List<scalar> 
760
(
-8.13477e-09
8.06824e-09
-4.76782e-08
3.95419e-08
-1.38622e-07
9.09416e-08
-2.69268e-07
1.30645e-07
-4.25892e-07
1.56622e-07
-6.03079e-07
1.77187e-07
-8.00814e-07
1.97735e-07
-1.02081e-06
2.19999e-07
-1.26452e-06
2.43704e-07
-1.53036e-06
2.65847e-07
-1.81162e-06
2.81256e-07
-2.09281e-06
2.81196e-07
-2.34172e-06
2.48908e-07
-2.50928e-06
1.67558e-07
-2.54767e-06
3.8393e-08
-2.33193e-06
-2.15743e-07
-1.82094e-06
-5.10979e-07
-1.10411e-06
-7.16838e-07
-4.04438e-07
-6.99668e-07
-4.04438e-07
-1.81256e-08
2.61943e-08
-9.01683e-08
1.11584e-07
-2.39681e-07
2.40453e-07
-4.49786e-07
3.40748e-07
-7.00613e-07
4.07449e-07
-9.79294e-07
4.55868e-07
-1.27904e-06
4.97477e-07
-1.59497e-06
5.35933e-07
-1.92141e-06
5.70147e-07
-2.24923e-06
5.93667e-07
-2.56492e-06
5.96952e-07
-2.8531e-06
5.6937e-07
-3.10018e-06
4.95994e-07
-3.27498e-06
3.42356e-07
-3.28556e-06
4.89719e-08
-3.02423e-06
-4.77069e-07
-2.40875e-06
-1.12646e-06
-1.54173e-06
-1.58385e-06
-6.04703e-07
-1.63669e-06
-1.00914e-06
-5.01841e-08
7.63812e-08
-1.68087e-07
2.29488e-07
-3.4602e-07
4.18386e-07
-5.68125e-07
5.62852e-07
-8.25585e-07
6.64908e-07
-1.10991e-06
7.40198e-07
-1.41415e-06
8.01713e-07
-1.73287e-06
8.54657e-07
-2.06026e-06
8.97537e-07
-2.3885e-06
9.21901e-07
-2.70893e-06
9.17391e-07
-3.01936e-06
8.79802e-07
-3.32715e-06
8.03778e-07
-3.61938e-06
6.34589e-07
-3.7925e-06
2.22099e-07
-3.66728e-06
-6.02287e-07
-3.12838e-06
-1.66536e-06
-2.22647e-06
-2.48576e-06
-1.04527e-06
-2.81789e-06
-2.05441e-06
-9.09311e-08
1.67314e-07
-2.47434e-07
3.85991e-07
-4.3372e-07
6.04672e-07
-6.42013e-07
7.71145e-07
-8.73069e-07
8.95964e-07
-1.1251e-06
9.92233e-07
-1.3949e-06
1.07152e-06
-1.68001e-06
1.13976e-06
-1.97797e-06
1.1955e-06
-2.28766e-06
1.23159e-06
-2.61223e-06
1.24196e-06
-2.96628e-06
1.23385e-06
-3.38161e-06
1.21912e-06
-3.8479e-06
1.10088e-06
-4.1899e-06
5.64106e-07
-4.16833e-06
-6.23854e-07
-3.74036e-06
-2.09333e-06
-2.9e-06
-3.32612e-06
-1.58525e-06
-4.13264e-06
-3.63966e-06
-1.24243e-07
2.91559e-07
-3.0207e-07
5.6382e-07
-4.85557e-07
7.88159e-07
-6.7272e-07
9.58309e-07
-8.68807e-07
1.09205e-06
-1.07673e-06
1.20015e-06
-1.29744e-06
1.29223e-06
-1.53158e-06
1.3739e-06
-1.78117e-06
1.44509e-06
-2.05322e-06
1.50365e-06
-2.36346e-06
1.5522e-06
-2.73961e-06
1.61001e-06
-3.20956e-06
1.68907e-06
-3.71447e-06
1.60579e-06
-4.03855e-06
8.88186e-07
-3.96892e-06
-6.93481e-07
-3.55795e-06
-2.5043e-06
-2.87815e-06
-4.00592e-06
-1.72873e-06
-5.28205e-06
-5.36839e-06
-1.44611e-07
4.36171e-07
-3.27972e-07
7.47182e-07
-5.01015e-07
9.61203e-07
-6.64636e-07
1.12193e-06
-8.25107e-07
1.25252e-06
-9.8739e-07
1.36244e-06
-1.1546e-06
1.45945e-06
-1.32927e-06
1.54856e-06
-1.5162e-06
1.63203e-06
-1.72619e-06
1.71364e-06
-1.97945e-06
1.80546e-06
-2.30313e-06
1.93369e-06
-2.69738e-06
2.08333e-06
-3.0662e-06
1.97461e-06
-3.21217e-06
1.03416e-06
-3.05611e-06
-8.49547e-07
-2.70818e-06
-2.85223e-06
-2.2276e-06
-4.4865e-06
-1.42309e-06
-6.08656e-06
-6.79147e-06
-1.52532e-07
5.88704e-07
-3.29896e-07
9.24547e-07
-4.87125e-07
1.11843e-06
-6.2626e-07
1.26107e-06
-7.52954e-07
1.37922e-06
-8.72204e-07
1.48169e-06
-9.87319e-07
1.57456e-06
-1.10086e-06
1.66211e-06
-1.21679e-06
1.74796e-06
-1.34242e-06
1.83927e-06
-1.48979e-06
1.95283e-06
-1.67397e-06
2.11787e-06
-1.87218e-06
2.28154e-06
-2.03229e-06
2.13472e-06
-2.07492e-06
1.07679e-06
-1.98509e-06
-9.39375e-07
-1.82414e-06
-3.01317e-06
-1.57174e-06
-4.73889e-06
-1.04244e-06
-6.61586e-06
-7.83391e-06
-1.50591e-07
7.39296e-07
-3.14655e-07
1.08861e-06
-4.52869e-07
1.25665e-06
-5.67621e-07
1.37582e-06
-6.63488e-07
1.47508e-06
-7.44474e-07
1.56268e-06
-8.13079e-07
1.64317e-06
-8.70663e-07
1.71969e-06
-9.18273e-07
1.79557e-06
-9.56468e-07
1.87747e-06
-9.832e-07
1.97956e-06
-9.90961e-07
2.12563e-06
-9.73177e-07
2.26375e-06
-9.54562e-07
2.11611e-06
-9.61906e-07
1.08414e-06
-9.8959e-07
-9.11691e-07
-9.81195e-07
-3.02156e-06
-9.33532e-07
-4.78656e-06
-7.56899e-07
-6.79249e-06
-8.59081e-06
-1.42384e-07
8.81681e-07
-2.88895e-07
1.23512e-06
-4.06686e-07
1.37444e-06
-4.98109e-07
1.46724e-06
-5.66701e-07
1.54368e-06
-6.1536e-07
1.61134e-06
-6.45631e-07
1.67344e-06
-6.57561e-07
1.73162e-06
-6.49504e-07
1.78751e-06
-6.16624e-07
1.84459e-06
-5.46957e-07
1.90989e-06
-4.14516e-07
1.99319e-06
-2.2072e-07
2.06996e-06
-5.03224e-08
1.94571e-06
-9.19677e-09
1.04301e-06
-1.18126e-07
-8.02761e-07
-2.73847e-07
-2.86584e-06
-4.05777e-07
-4.65463e-06
-4.66848e-07
-6.73142e-06
-9.05766e-06
-1.30536e-07
1.01222e-06
-2.57888e-07
1.36248e-06
-3.55506e-07
1.47206e-06
-4.2536e-07
1.5371e-06
-4.70372e-07
1.58869e-06
-4.92785e-07
1.63375e-06
-4.93597e-07
1.67425e-06
-4.72234e-07
1.71026e-06
-4.25929e-07
1.74121e-06
-3.48088e-07
1.76675e-06
-2.24732e-07
1.78654e-06
-2.87103e-08
1.79717e-06
2.64584e-07
1.77666e-06
5.94975e-07
1.61532e-06
7.15886e-07
9.22101e-07
5.07003e-07
-5.93879e-07
1.83607e-07
-2.54245e-06
-1.20741e-07
-4.35028e-06
-2.92465e-07
-6.5597e-06
-9.35012e-06
-1.17627e-07
1.12984e-06
-2.26516e-07
1.47136e-06
-3.0478e-07
1.55032e-06
-3.54875e-07
1.58719e-06
-3.79522e-07
1.61333e-06
-3.80897e-07
1.63512e-06
-3.60039e-07
1.65339e-06
-3.16628e-07
1.66685e-06
-2.48441e-07
1.67302e-06
-1.50245e-07
1.66855e-06
-1.19976e-08
1.64829e-06
1.8293e-07
1.60224e-06
4.53903e-07
1.50569e-06
7.77262e-07
1.29196e-06
9.56792e-07
7.4257e-07
7.92632e-07
-4.29719e-07
3.89239e-07
-2.13906e-06
1.69769e-08
-3.97802e-06
-2.16153e-07
-6.32657e-06
-9.56628e-06
-1.047e-07
1.23455e-06
-1.97635e-07
1.5643e-06
-2.58086e-07
1.61077e-06
-2.89784e-07
1.61889e-06
-2.96281e-07
1.61983e-06
-2.80202e-07
1.61905e-06
-2.43073e-07
1.61626e-06
-1.85464e-07
1.60924e-06
-1.06647e-07
1.5942e-06
-4.13959e-09
1.56604e-06
1.26712e-07
1.51744e-06
2.92426e-07
1.43653e-06
4.97241e-07
1.30087e-06
7.26744e-07
1.06245e-06
8.76612e-07
5.927e-07
7.72097e-07
-3.25205e-07
4.08045e-07
-1.77501e-06
6.55564e-08
-3.63553e-06
-1.58396e-07
-6.10262e-06
-9.72467e-06
-9.69908e-08
1.33154e-06
-1.74831e-07
1.64214e-06
-2.17592e-07
1.65353e-06
-2.31246e-07
1.63254e-06
-2.20374e-07
1.60896e-06
-1.88177e-07
1.58685e-06
-1.37141e-07
1.56523e-06
-6.89381e-08
1.54104e-06
1.55034e-08
1.50976e-06
1.15997e-07
1.46555e-06
2.32819e-07
1.40061e-06
3.65728e-07
1.30362e-06
5.10866e-07
1.15573e-06
6.52547e-07
9.20771e-07
7.34103e-07
5.11143e-07
6.52764e-07
-2.43867e-07
3.68445e-07
-1.49069e-06
6.01645e-08
-3.32725e-06
-1.60431e-07
-5.88202e-06
-9.88511e-06
-9.02424e-08
1.42178e-06
-1.58212e-07
1.71011e-06
-1.83971e-07
1.67929e-06
-1.78716e-07
1.62729e-06
-1.49101e-07
1.57934e-06
-9.97545e-08
1.5375e-06
-3.40893e-08
1.49956e-06
4.52024e-08
1.46174e-06
1.358e-07
1.41916e-06
2.35483e-07
1.36586e-06
3.41652e-07
1.29445e-06
4.50529e-07
1.19474e-06
5.55328e-07
1.05093e-06
6.4256e-07
8.33538e-07
6.77818e-07
4.75884e-07
5.97247e-07
-1.63296e-07
3.70931e-07
-1.26437e-06
8.67968e-08
-3.04312e-06
-8.61858e-08
-5.70904e-06
-9.97129e-06
-1.00528e-07
1.52231e-06
-1.53972e-07
1.76355e-06
-1.58115e-07
1.68343e-06
-1.29834e-07
1.59901e-06
-7.7619e-08
1.52713e-06
-7.23215e-09
1.46711e-06
7.71036e-08
1.41523e-06
1.71901e-07
1.36695e-06
2.73724e-07
1.31734e-06
3.78982e-07
1.26061e-06
4.83388e-07
1.19004e-06
5.81495e-07
1.09663e-06
6.65253e-07
9.67175e-07
7.22612e-07
7.76178e-07
7.29351e-07
4.69145e-07
6.46136e-07
-8.00826e-08
4.44565e-07
-1.0628e-06
1.73941e-07
-2.7725e-06
1.919e-08
-5.55429e-06
-9.9521e-06
-1.16763e-07
1.63907e-06
-1.5911e-07
1.8059e-06
-1.3792e-07
1.66224e-06
-7.83158e-08
1.5394e-06
4.35011e-09
1.44446e-06
1.03322e-07
1.36814e-06
2.1427e-07
1.30428e-06
3.33177e-07
1.24804e-06
4.55819e-07
1.1947e-06
5.77814e-07
1.13861e-06
6.93641e-07
1.07421e-06
7.96909e-07
9.93361e-07
8.78469e-07
8.85614e-07
9.26606e-07
7.28041e-07
9.20725e-07
4.75024e-07
8.357e-07
4.94148e-09
6.36883e-07
-8.63988e-07
3.54264e-07
-2.48988e-06
1.37528e-07
-5.33756e-06
-9.81457e-06
-1.99672e-07
1.83874e-06
-1.90483e-07
1.79671e-06
-1.13958e-07
1.58572e-06
-2.91489e-09
1.42836e-06
1.25975e-07
1.31557e-06
2.68656e-07
1.22546e-06
4.20778e-07
1.15215e-06
5.78493e-07
1.09032e-06
7.37128e-07
1.03606e-06
8.92505e-07
9.83233e-07
1.03823e-06
9.28489e-07
1.16807e-06
8.63515e-07
1.2711e-06
7.82585e-07
1.33612e-06
6.63024e-07
1.33756e-06
4.73576e-07
1.25524e-06
8.72673e-08
1.0343e-06
-6.43049e-07
6.70342e-07
-2.12592e-06
3.02884e-07
-4.9701e-06
-9.51169e-06
-2.88079e-07
2.12682e-06
-1.56466e-07
1.6651e-06
1.81705e-08
1.41108e-06
2.08796e-07
1.23773e-06
4.15097e-07
1.10927e-06
6.31685e-07
1.00887e-06
8.53385e-07
9.30455e-07
1.07723e-06
8.66478e-07
1.29792e-06
8.15371e-07
1.51351e-06
7.67636e-07
1.71623e-06
7.25773e-07
1.90353e-06
6.76213e-07
2.06003e-06
6.26089e-07
2.17975e-06
5.433e-07
2.22036e-06
4.3296e-07
2.17178e-06
1.3585e-07
1.92099e-06
-3.92255e-07
1.44204e-06
-1.64698e-06
7.07523e-07
-4.23559e-06
-8.80417e-06
-1.91632e-07
2.31845e-06
8.34042e-08
1.39006e-06
5.07697e-07
9.86789e-07
9.47652e-07
7.9778e-07
1.35969e-06
6.97236e-07
1.74767e-06
6.2089e-07
2.11514e-06
5.62979e-07
2.46881e-06
5.1281e-07
2.80385e-06
4.80335e-07
3.1285e-06
4.42977e-07
3.42906e-06
4.25218e-07
3.71867e-06
3.86602e-07
3.96934e-06
3.75422e-07
4.20311e-06
3.09524e-07
4.36172e-06
2.74349e-07
4.40989e-06
8.76798e-08
4.23237e-06
-2.14734e-07
3.6608e-06
-1.07541e-06
2.15791e-06
-2.7327e-06
-6.64626e-06
2.31845e-06
3.70851e-06
4.6953e-06
5.49308e-06
6.19032e-06
6.81121e-06
7.37419e-06
7.88699e-06
8.36733e-06
8.81031e-06
9.23552e-06
9.62213e-06
9.99755e-06
1.03071e-05
1.05814e-05
1.06691e-05
1.04544e-05
9.37896e-06
6.64626e-06
)
;

boundaryField
{
    movingWall
    {
        type            calculated;
        value           uniform 0;
    }
    fixedWalls
    {
        type            calculated;
        value           uniform 0;
    }
    frontAndBack
    {
        type            empty;
        value           nonuniform 0();
    }
}


// ************************************************************************* //
