/*--------------------------------*- C++ -*----------------------------------*\
| =========                 |                                                 |
| \\      /  F ield         | OpenFOAM: The Open Source CFD Toolbox           |
|  \\    /   O peration     | Version:  3.0.0                                 |
|   \\  /    A nd           | Web:      www.OpenFOAM.org                      |
|    \\/     M anipulation  |                                                 |
\*---------------------------------------------------------------------------*/
FoamFile
{
    version     2.0;
    format      ascii;
    class       volVectorField;
    location    "1.5";
    object      U;
}
// * * * * * * * * * * * * * * * * * * * * * * * * * * * * * * * * * * * * * //

dimensions      [0 1 -1 0 0 0 0];

internalField   nonuniform List<vector> 
400
(
(-9.64448e-06 7.05233e-05 0)
(-0.000341658 0.000255659 0)
(-0.00162821 0.000539195 0)
(-0.00392614 0.000735495 0)
(-0.00684352 0.000871272 0)
(-0.0102087 0.0010085 0)
(-0.0139722 0.00118493 0)
(-0.0181644 0.0014162 0)
(-0.0228285 0.00171058 0)
(-0.027975 0.00206148 0)
(-0.0335287 0.00243063 0)
(-0.0392689 0.00272123 0)
(-0.0449733 0.00271034 0)
(-0.0493666 0.0022094 0)
(-0.0510545 0.00152716 0)
(-0.049617 -0.00110414 0)
(-0.0415535 -0.00355486 0)
(-0.0290289 -0.00544452 0)
(-0.0145157 -0.00535178 0)
(-0.00294133 -0.00328088 0)
(-1.35378e-05 0.000238208 0)
(-0.000761788 0.00130521 0)
(-0.00293486 0.00313048 0)
(-0.00663634 0.00457739 0)
(-0.0113341 0.00549666 0)
(-0.0166926 0.00617326 0)
(-0.0225204 0.00679843 0)
(-0.0287224 0.00742921 0)
(-0.0352085 0.00804783 0)
(-0.0418373 0.00855062 0)
(-0.0483775 0.008776 0)
(-0.0545688 0.00847276 0)
(-0.0602089 0.00731584 0)
(-0.0647095 0.00480848 0)
(-0.0665428 0.000267434 0)
(-0.0637414 -0.00680613 0)
(-0.054481 -0.0155211 0)
(-0.039357 -0.0218023 0)
(-0.0216757 -0.0216505 0)
(-0.00369963 -0.012611 0)
(-0.000170769 0.000841632 0)
(-0.00194261 0.0032068 0)
(-0.00490633 0.00656023 0)
(-0.00889731 0.00914447 0)
(-0.013757 0.0109007 0)
(-0.0192367 0.0121598 0)
(-0.0251597 0.0131998 0)
(-0.0314257 0.0141146 0)
(-0.0379338 0.0148781 0)
(-0.0445576 0.0153266 0)
(-0.0510896 0.0152292 0)
(-0.0574483 0.0144143 0)
(-0.0638827 0.0126817 0)
(-0.070381 0.00927071 0)
(-0.0752071 0.00208816 0)
(-0.0756353 -0.0108227 0)
(-0.0685796 -0.0274556 0)
(-0.0537021 -0.0389835 0)
(-0.0343011 -0.0416994 0)
(-0.00719213 -0.0261601 0)
(-0.00045998 0.00228692 0)
(-0.00333136 0.00605499 0)
(-0.00674095 0.0102398 0)
(-0.0105851 0.01345 0)
(-0.0150046 0.0158019 0)
(-0.0198741 0.0175695 0)
(-0.0251098 0.0189992 0)
(-0.0306728 0.02021 0)
(-0.0365239 0.0211678 0)
(-0.0426132 0.0216964 0)
(-0.0488974 0.0216069 0)
(-0.0555297 0.0209213 0)
(-0.0634112 0.0196988 0)
(-0.0732129 0.0165727 0)
(-0.0824671 0.00700836 0)
(-0.0855033 -0.0126085 0)
(-0.0795002 -0.03745 0)
(-0.0671928 -0.0573562 0)
(-0.0455008 -0.0666748 0)
(-0.0147216 -0.0510369 0)
(-0.00075891 0.00450762 0)
(-0.00437306 0.00947156 0)
(-0.0079434 0.0139553 0)
(-0.0114927 0.0173817 0)
(-0.0153201 0.0200291 0)
(-0.0193753 0.0221221 0)
(-0.0236621 0.0238653 0)
(-0.0282064 0.0253764 0)
(-0.0330322 0.0266292 0)
(-0.0382053 0.0275157 0)
(-0.0438379 0.0279876 0)
(-0.0502956 0.0282975 0)
(-0.0589984 0.0287167 0)
(-0.0708376 0.0265773 0)
(-0.0810809 0.0142194 0)
(-0.0828979 -0.0140023 0)
(-0.0751062 -0.0487115 0)
(-0.064633 -0.0771336 0)
(-0.044449 -0.0969952 0)
(-0.0207613 -0.0927113 0)
(-0.000973423 0.00724289 0)
(-0.00494517 0.0131271 0)
(-0.00844949 0.0175492 0)
(-0.0116399 0.0208992 0)
(-0.0148557 0.0235884 0)
(-0.0180845 0.0258118 0)
(-0.0213715 0.0277403 0)
(-0.0247738 0.0294765 0)
(-0.0283601 0.0310388 0)
(-0.0322564 0.0324421 0)
(-0.0366259 0.0338284 0)
(-0.0418528 0.0356283 0)
(-0.0493565 0.0377208 0)
(-0.0597 0.0354031 0)
(-0.067772 0.0183145 0)
(-0.0649091 -0.0168579 0)
(-0.056732 -0.057058 0)
(-0.0489346 -0.0895448 0)
(-0.0348633 -0.119299 0)
(-0.0182637 -0.12813 0)
(-0.00108328 0.0102385 0)
(-0.0051076 0.0167578 0)
(-0.00838216 0.0208731 0)
(-0.0111736 0.0239373 0)
(-0.0137993 0.0264586 0)
(-0.0162545 0.0286199 0)
(-0.0185894 0.0305579 0)
(-0.0208593 0.0323648 0)
(-0.0231277 0.0341039 0)
(-0.0254887 0.0358937 0)
(-0.0280176 0.0380252 0)
(-0.030838 0.041008 0)
(-0.034844 0.0442179 0)
(-0.0410575 0.0410538 0)
(-0.0453438 0.0206712 0)
(-0.0414462 -0.0185665 0)
(-0.0364739 -0.0600963 0)
(-0.0331637 -0.0943889 0)
(-0.0273274 -0.130899 0)
(-0.0097455 -0.149682 0)
(-0.00110245 0.0132816 0)
(-0.00496761 0.0201853 0)
(-0.00791092 0.0238385 0)
(-0.0102832 0.0264789 0)
(-0.012358 0.0286768 0)
(-0.0141218 0.0306062 0)
(-0.0156128 0.0323735 0)
(-0.0168664 0.0340545 0)
(-0.0179089 0.0357265 0)
(-0.0187545 0.0375426 0)
(-0.0193451 0.0398397 0)
(-0.0194512 0.0432386 0)
(-0.0192001 0.0462183 0)
(-0.0202736 0.0431667 0)
(-0.021854 0.021661 0)
(-0.0192422 -0.0187675 0)
(-0.0183671 -0.0610345 0)
(-0.0180492 -0.0966718 0)
(-0.0192131 -0.136213 0)
(-0.00711963 -0.16778 0)
(-0.00106145 0.0162035 0)
(-0.00463993 0.0233051 0)
(-0.00719569 0.0264028 0)
(-0.00914996 0.0285373 0)
(-0.0107231 0.0303089 0)
(-0.0118927 0.0318799 0)
(-0.0126816 0.0333288 0)
(-0.0131048 0.0347049 0)
(-0.0131518 0.0360638 0)
(-0.0127674 0.0375168 0)
(-0.011789 0.0392897 0)
(-0.00976475 0.0417169 0)
(-0.00627209 0.0443161 0)
(-0.00235596 0.0421779 0)
(-0.000803965 0.0223136 0)
(1.31122e-05 -0.0170033 0)
(-0.00362749 -0.0586645 0)
(-0.00566352 -0.0940716 0)
(-0.012142 -0.134521 0)
(-0.00338536 -0.176638 0)
(-0.00100521 0.0189565 0)
(-0.00420318 0.0260428 0)
(-0.00636915 0.0285555 0)
(-0.00792344 0.0301431 0)
(-0.00904924 0.0314307 0)
(-0.00972205 0.0325664 0)
(-0.0099561 0.0336029 0)
(-0.00975721 0.0345575 0)
(-0.00909801 0.035443 0)
(-0.00789528 0.0362935 0)
(-0.00596013 0.0371788 0)
(-0.00289823 0.0381629 0)
(0.00191152 0.0388871 0)
(0.00864762 0.0366889 0)
(0.0131725 0.0216227 0)
(0.0141513 -0.0128834 0)
(0.00656776 -0.053198 0)
(0.00217404 -0.0891591 0)
(-0.00825256 -0.131904 0)
(-0.000995186 -0.183616 0)
(-0.000953485 0.0214236 0)
(-0.00375038 0.0284006 0)
(-0.00553827 0.0303095 0)
(-0.00671616 0.0313344 0)
(-0.00744329 0.0321148 0)
(-0.00770214 0.0327838 0)
(-0.00750834 0.033371 0)
(-0.00687187 0.0338633 0)
(-0.00577242 0.0342293 0)
(-0.00414251 0.0344288 0)
(-0.00184014 0.0344009 0)
(0.00139289 0.0340039 0)
(0.00591557 0.0327847 0)
(0.0120372 0.0291905 0)
(0.0178298 0.01732 0)
(0.0195323 -0.00924534 0)
(0.0110966 -0.0456385 0)
(0.00655563 -0.0825326 0)
(-0.00646085 -0.128138 0)
(0.000112854 -0.18828 0)
(-0.000883951 0.0237104 0)
(-0.00332874 0.0304237 0)
(-0.00477409 0.0316938 0)
(-0.00560052 0.0321489 0)
(-0.00595929 0.0324173 0)
(-0.00586241 0.0326239 0)
(-0.00532788 0.0327712 0)
(-0.00438215 0.0328233 0)
(-0.00302685 0.0327155 0)
(-0.00123295 0.0323585 0)
(0.00106785 0.0316189 0)
(0.00398792 0.0302652 0)
(0.00764773 0.0278171 0)
(0.0120744 0.023167 0)
(0.0164218 0.0131212 0)
(0.0187259 -0.00743968 0)
(0.0106208 -0.0384771 0)
(0.00796197 -0.0755148 0)
(-0.00669996 -0.123027 0)
(0.00256876 -0.191479 0)
(-0.000906598 0.0256286 0)
(-0.00302574 0.0321134 0)
(-0.00413317 0.0327201 0)
(-0.00460456 0.032601 0)
(-0.00461409 0.0323744 0)
(-0.00417694 0.0321386 0)
(-0.00333816 0.0318835 0)
(-0.00214147 0.0315551 0)
(-0.000614655 0.0310685 0)
(0.00123079 0.0303099 0)
(0.00339679 0.0291219 0)
(0.00588847 0.0272638 0)
(0.00868062 0.0243154 0)
(0.0116552 0.0194403 0)
(0.0142615 0.0105899 0)
(0.0155633 -0.0059121 0)
(0.00880096 -0.0326058 0)
(0.00850362 -0.0695596 0)
(-0.00767609 -0.120011 0)
(0.00388142 -0.195679 0)
(-0.000852351 0.0277254 0)
(-0.00281891 0.033592 0)
(-0.00363723 0.0334209 0)
(-0.00374304 0.0326944 0)
(-0.00337155 0.0319776 0)
(-0.00257186 0.03133 0)
(-0.0014112 0.0307219 0)
(4.81601e-05 0.0300848 0)
(0.00175547 0.0293238 0)
(0.00366655 0.0283186 0)
(0.00573521 0.0269138 0)
(0.00790193 0.0248906 0)
(0.0100719 0.0219002 0)
(0.0120844 0.0172896 0)
(0.0135728 0.00955562 0)
(0.0139245 -0.00423714 0)
(0.00804622 -0.0276513 0)
(0.00984134 -0.0637898 0)
(-0.00861586 -0.11607 0)
(0.00751341 -0.198585 0)
(-0.00117614 0.0292862 0)
(-0.00289697 0.0347128 0)
(-0.00333667 0.033728 0)
(-0.00299253 0.032369 0)
(-0.00216237 0.0311698 0)
(-0.000923615 0.0301445 0)
(0.000637313 0.0292357 0)
(0.00244294 0.0283606 0)
(0.00442373 0.0274197 0)
(0.00651066 0.0262948 0)
(0.00862678 0.0248442 0)
(0.0106789 0.0228767 0)
(0.012538 0.0201008 0)
(0.014032 0.0159706 0)
(0.0148309 0.00930229 0)
(0.0146621 -0.00251174 0)
(0.00905338 -0.0234051 0)
(0.0124079 -0.05842 0)
(-0.00894177 -0.113271 0)
(0.0117723 -0.202516 0)
(-0.00115578 0.0318591 0)
(-0.00329339 0.0358333 0)
(-0.00319539 0.0335616 0)
(-0.0022689 0.0315107 0)
(-0.000822096 0.0298442 0)
(0.00100791 0.0284802 0)
(0.00312399 0.0273194 0)
(0.00543956 0.0262669 0)
(0.00787271 0.0252246 0)
(0.0103399 0.0240782 0)
(0.0127428 0.0227026 0)
(0.0149665 0.0209287 0)
(0.0168558 0.018522 0)
(0.0182339 0.015004 0)
(0.0187272 0.0093767 0)
(0.0183576 -0.000781805 0)
(0.0126736 -0.0194673 0)
(0.0174054 -0.0531695 0)
(-0.00854473 -0.111333 0)
(0.0177577 -0.205855 0)
(-0.00273623 0.0333508 0)
(-0.00473675 0.0357948 0)
(-0.00312835 0.0326559 0)
(-0.00125653 0.0298931 0)
(0.00115988 0.0278424 0)
(0.00388913 0.0261977 0)
(0.00685163 0.0248305 0)
(0.0099677 0.0236444 0)
(0.0131477 0.0225537 0)
(0.0163106 0.0214468 0)
(0.019344 0.0202284 0)
(0.0221352 0.0187371 0)
(0.0244948 0.0167987 0)
(0.0262592 0.0139742 0)
(0.0269321 0.00947816 0)
(0.0266595 0.000905986 0)
(0.0208906 -0.0153664 0)
(0.0261585 -0.0472869 0)
(-0.00726957 -0.107646 0)
(0.0259656 -0.20447 0)
(-0.0048392 0.0446661 0)
(-0.00555326 0.0397477 0)
(-0.00124065 0.0328792 0)
(0.00214152 0.0286251 0)
(0.00615432 0.0256325 0)
(0.0104257 0.0233756 0)
(0.0148212 0.0216423 0)
(0.0192999 0.0202493 0)
(0.0237454 0.0190966 0)
(0.0281414 0.0180276 0)
(0.0323166 0.0170008 0)
(0.0362717 0.0158225 0)
(0.0396801 0.0144458 0)
(0.0425703 0.0123881 0)
(0.0439679 0.00923247 0)
(0.0445952 0.00252518 0)
(0.0392319 -0.0105591 0)
(0.0433549 -0.0396856 0)
(0.00133914 -0.0983074 0)
(0.0405244 -0.185994 0)
(-0.00281353 0.029188 0)
(-0.00357765 0.015471 0)
(0.0065701 0.0153731 0)
(0.0145916 0.0152629 0)
(0.0230511 0.0148548 0)
(0.0311106 0.014153 0)
(0.0386345 0.0134279 0)
(0.0459163 0.0127574 0)
(0.0527103 0.0122267 0)
(0.0594293 0.0116872 0)
(0.0655066 0.0112272 0)
(0.0716283 0.010619 0)
(0.0766746 0.0100069 0)
(0.0819154 0.00877547 0)
(0.0848757 0.00715629 0)
(0.0880148 0.0020798 0)
(0.084131 -0.00671845 0)
(0.0852893 -0.0298538 0)
(0.0412344 -0.0740985 0)
(0.0746627 -0.140918 0)
(0.0501036 0.0769463 0)
(0.0547464 0.0537558 0)
(0.0828657 0.033961 0)
(0.10291 0.0235436 0)
(0.117975 0.0181356 0)
(0.13088 0.0146871 0)
(0.142058 0.0123713 0)
(0.153018 0.0104819 0)
(0.162425 0.00931204 0)
(0.172195 0.00800703 0)
(0.180101 0.00753987 0)
(0.188899 0.0063596 0)
(0.195399 0.00648141 0)
(0.202914 0.00497927 0)
(0.207611 0.0055116 0)
(0.212382 0.00257824 0)
(0.210713 0.000522003 0)
(0.202369 -0.00542079 0)
(0.160458 -0.0164514 0)
(0.151402 -0.0959884 0)
)
;

boundaryField
{
    movingWall
    {
        type            fixedValue;
        value           uniform (1 0 0);
    }
    fixedWalls
    {
        type            fixedValue;
        value           uniform (0 0 0);
    }
    frontAndBack
    {
        type            empty;
    }
}


// ************************************************************************* //
