/*--------------------------------*- C++ -*----------------------------------*\
| =========                 |                                                 |
| \\      /  F ield         | OpenFOAM: The Open Source CFD Toolbox           |
|  \\    /   O peration     | Version:  3.0.0                                 |
|   \\  /    A nd           | Web:      www.OpenFOAM.org                      |
|    \\/     M anipulation  |                                                 |
\*---------------------------------------------------------------------------*/
FoamFile
{
    version     2.0;
    format      ascii;
    class       volScalarField;
    location    "0.5";
    object      p;
}
// * * * * * * * * * * * * * * * * * * * * * * * * * * * * * * * * * * * * * //

dimensions      [0 2 -2 0 0 0 0];

internalField   nonuniform List<scalar> 
262144
(
0.00453592
0.00470538
0.00457852
0.00442095
0.00422931
0.00399109
0.00370938
0.00338694
0.00302634
0.00263078
0.00220392
0.00174993
0.00127337
0.000779234
0.000272806
-0.000240254
-0.000754161
-0.00126305
-0.00176103
-0.00224227
-0.00270112
-0.00313222
-0.00353054
-0.00389152
-0.00421108
-0.00448574
-0.00471263
-0.00488952
-0.00501491
-0.00508791
-0.00510838
-0.0050768
-0.00499428
-0.00486253
-0.00468379
-0.00446078
-0.00419661
-0.00389478
-0.00355902
-0.00319331
-0.00280175
-0.00238852
-0.00195784
-0.0015139
-0.00106082
-0.000602611
-0.000143163
0.000313778
0.000764624
0.00120591
0.00163434
0.00204701
0.0024405
0.00281133
0.00316057
0.00348178
0.00377298
0.00403189
0.00425642
0.00444349
0.00458962
0.00470765
0.0047948
0.00455431
0.00521551
0.00547003
0.00530074
0.00509227
0.00484726
0.00454847
0.00420031
0.00380667
0.00337097
0.00289727
0.00239016
0.00185472
0.00129648
0.000721335
0.000135567
-0.000454034
-0.00104105
-0.00161859
-0.00217994
-0.00271849
-0.00322786
-0.00370207
-0.00413555
-0.00452331
-0.00486095
-0.00514477
-0.00537181
-0.00553987
-0.00564755
-0.00569424
-0.00568012
-0.00560612
-0.0054739
-0.00528576
-0.00504463
-0.00475396
-0.00441765
-0.00404
-0.00362559
-0.00317922
-0.00270585
-0.00221049
-0.00169817
-0.00117385
-0.000642397
-0.000108537
0.000423181
0.000948393
0.00146294
0.00196281
0.0024443
0.00290451
0.0033376
0.0037426
0.00411943
0.00446044
0.00476366
0.00502688
0.00524766
0.00542241
0.00554705
0.00563965
0.0056919
0.00528897
0.00534118
0.00559093
0.00538399
0.00514446
0.00487354
0.00455142
0.00418308
0.00377292
0.00332467
0.0028427
0.00233182
0.00179731
0.00124489
0.000680429
0.000110139
-0.000459436
-0.00102174
-0.00157021
-0.0020984
-0.00260001
-0.00306906
-0.00349996
-0.00388759
-0.00422741
-0.00451552
-0.00474872
-0.00492453
-0.00504127
-0.00509802
-0.00509467
-0.00503184
-0.00491093
-0.004734
-0.00450376
-0.00422349
-0.00389698
-0.00352844
-0.00312243
-0.00268377
-0.00221746
-0.00172864
-0.00122244
-0.000703996
-0.000178345
0.000349616
0.000875157
0.00139375
0.0019011
0.00239313
0.00286601
0.00331611
0.00373982
0.00413239
0.00449783
0.00482759
0.00511849
0.00536896
0.00557722
0.00574098
0.00585698
0.00592148
0.00595577
0.00595492
0.00547204
0.00545102
0.00569074
0.00545027
0.00517968
0.00488157
0.0045351
0.00414574
0.00371828
0.00325679
0.00276582
0.00225045
0.00171649
0.00116914
0.000614474
5.87905e-05
-0.000491528
-0.00103008
-0.0015505
-0.00204659
-0.00251237
-0.00294219
-0.00333085
-0.00367365
-0.00396648
-0.00420589
-0.00438915
-0.00451426
-0.00458
-0.00458594
-0.00453241
-0.00442053
-0.0042521
-0.00402963
-0.00375622
-0.00343554
-0.00307173
-0.00266935
-0.00223323
-0.00176849
-0.00128037
-0.000774201
-0.000255302
0.000271059
0.000799738
0.00132577
0.00184439
0.00235108
0.00284157
0.00331188
0.00375849
0.00417751
0.00456478
0.00491937
0.00524204
0.00552482
0.0057658
0.00596321
0.00611611
0.00622245
0.00627936
0.00628357
0.00625778
0.00619738
0.00563821
0.00553145
0.00576089
0.00548914
0.00518858
0.00486411
0.00449428
0.00408494
0.00364125
0.00316737
0.00266819
0.00215029
0.00161743
0.00107583
0.000531646
-8.92667e-06
-0.000539633
-0.00105423
-0.00154656
-0.00201067
-0.00244088
-0.00283188
-0.00317884
-0.00347744
-0.003724
-0.00391551
-0.00404967
-0.00412494
-0.00414057
-0.00409659
-0.00399377
-0.00383368
-0.00361856
-0.00335133
-0.0030355
-0.00267513
-0.00227471
-0.00183913
-0.00137355
-0.000883349
-0.000374021
0.000148892
0.000679883
0.00121354
0.00174461
0.00226807
0.00277914
0.00327328
0.00374627
0.00419435
0.00461445
0.00500054
0.00534709
0.00566992
0.00594877
0.00618407
0.00637468
0.00651961
0.00661765
0.00666723
0.00666597
0.00661104
0.00652611
0.00640592
0.00577307
0.00555595
0.00577029
0.00546894
0.00514081
0.00479273
0.00440288
0.00397731
0.00352108
0.00303856
0.00253871
0.00202211
0.0014955
0.000965016
0.000436669
-8.34889e-05
-0.000589372
-0.00107495
-0.00153434
-0.00196188
-0.00235224
-0.00270048
-0.00300217
-0.00325343
-0.00345101
-0.00359235
-0.00367563
-0.00369977
-0.00366448
-0.00357024
-0.0034183
-0.00321064
-0.00294994
-0.00263952
-0.00228329
-0.00188565
-0.00145144
-0.000985864
-0.000494362
1.74397e-05
0.000543828
0.00107908
0.00161754
0.00215369
0.00268222
0.00319807
0.00369647
0.00417295
0.00462339
0.00504426
0.00543161
0.00578101
0.00609446
0.00636988
0.00660046
0.00678516
0.00692294
0.00701301
0.00705423
0.00704565
0.00698537
0.00687112
0.0067273
0.00654835
0.00584987
0.00552702
0.00572237
0.00539369
0.00504063
0.00467184
0.00426526
0.00382671
0.00335995
0.00287888
0.0023793
0.00186863
0.00135305
0.000838406
0.000330534
-0.000164675
-0.000641355
-0.00109374
-0.00151625
-0.00190357
-0.00225075
-0.00255325
-0.00280707
-0.00300877
-0.00315558
-0.00324538
-0.00327683
-0.00324932
-0.00316302
-0.00301887
-0.00281856
-0.0025645
-0.00225977
-0.00190809
-0.00151372
-0.00108144
-0.000616383
-0.000124036
0.000389896
0.000919567
0.00145907
0.00200254
0.0025442
0.00307846
0.00359999
0.00410373
0.00458497
0.00503938
0.00546308
0.00585218
0.00620157
0.00650895
0.00678569
0.00701334
0.0071932
0.00732477
0.00740765
0.00744114
0.00742445
0.00735714
0.00723784
0.00706488
0.00686308
0.00662679
0.00587065
0.00544578
0.00561886
0.00526554
0.0048905
0.00450408
0.00408407
0.00363637
0.00317005
0.00268706
0.00219265
0.00169255
0.00119246
0.000698004
0.000214855
-0.000251313
-0.000694898
-0.00111044
-0.00149271
-0.00183676
-0.00213805
-0.00239248
-0.00259648
-0.00274708
-0.00284196
-0.00287951
-0.00285882
-0.00277977
-0.00264297
-0.00244982
-0.00220242
-0.00190362
-0.00155687
-0.00116628
-0.000736458
-0.000272478
0.000220209
0.000735865
0.00126855
0.00181223
0.00236084
0.00290839
0.00344902
0.00397713
0.00448734
0.00497464
0.00543445
0.00586282
0.00625571
0.00660789
0.00691051
0.00718951
0.00741651
0.00759329
0.00772056
0.0077974
0.00782409
0.00780011
0.00772512
0.00759926
0.00742168
0.00719133
0.00693316
0.00664157
0.00583602
0.00531273
0.00546047
0.00508553
0.00469175
0.00429105
0.00386113
0.00341072
0.0029439
0.00246554
0.00198114
0.00149608
0.0010158
0.000545752
9.13951e-05
-0.000341863
-0.000748728
-0.00112408
-0.00146308
-0.00176118
-0.00201427
-0.0022187
-0.00237136
-0.00246976
-0.00251205
-0.00249707
-0.0024244
-0.00229438
-0.00210806
-0.00186727
-0.00157454
-0.00123309
-0.000846773
-0.000420026
4.22132e-05
0.000534574
0.00105134
0.00158654
0.00213405
0.00268764
0.00324115
0.00378849
0.00432378
0.00484138
0.00533591
0.0058024
0.00623675
0.00663523
0.00699263
0.00730479
0.00757658
0.00780408
0.00798012
0.00810443
0.00817688
0.00819793
0.00816763
0.00808582
0.00795276
0.0077691
0.00753455
0.00724871
0.0069364
0.00659212
0.00574598
0.00512913
0.00524865
0.00485545
0.00444652
0.00403558
0.00360038
0.00314879
0.00268622
0.00221729
0.00174728
0.00128153
0.000825209
0.000383574
-3.81876e-05
-0.000434974
-0.000801836
-0.00113404
-0.00142714
-0.00167704
-0.00188007
-0.00203304
-0.00213333
-0.0021789
-0.00216839
-0.00210112
-0.00197712
-0.00179717
-0.00156278
-0.00127617
-0.000940277
-0.0005587
-0.000135642
0.000324141
0.000815412
0.00133253
0.00186956
0.00242031
0.00297848
0.00353775
0.00409183
0.00463462
0.00516022
0.00566298
0.00613754
0.0065792
0.00698441
0.00734778
0.00766564
0.00793895
0.0081689
0.00834631
0.00847003
0.00854071
0.00855738
0.00852213
0.00843459
0.00829522
0.00810489
0.00786477
0.00757516
0.0072363
0.0068726
0.00647873
0.00560136
0.00489679
0.00498537
0.00457747
0.00415676
0.0037381
0.00330263
0.00285454
0.00240036
0.00194507
0.00149372
0.00105132
0.000622895
0.000213402
-0.000172272
-0.000529372
-0.000853331
-0.00113983
-0.00138484
-0.00158474
-0.00173632
-0.00183686
-0.00188421
-0.00187684
-0.00181383
-0.00169497
-0.00152075
-0.00129239
-0.00101181
-0.000681631
-0.00030517
0.00011363
0.00057024
0.0010596
0.00157622
0.00211422
0.00266743
0.00322953
0.00379409
0.00435467
0.00490496
0.00543882
0.00595038
0.00643404
0.00688466
0.00729777
0.00766863
0.00799099
0.00826717
0.00850502
0.00868572
0.00881138
0.0088822
0.00889748
0.00885863
0.00876668
0.00862215
0.00842607
0.00817986
0.0078852
0.00754298
0.00715414
0.00674229
0.00630242
0.00540358
0.00461806
0.00467317
0.00425437
0.00382542
0.00340525
0.00297147
0.00253081
0.00208936
0.00165188
0.00122315
0.000807981
0.000411104
3.71801e-05
-0.000309254
-0.000623827
-0.000902384
-0.00114104
-0.00133623
-0.00148479
-0.00158399
-0.0016316
-0.00162595
-0.00156598
-0.00145124
-0.00128198
-0.00105912
-0.000784302
-0.000459846
-8.87584e-05
0.000325302
0.000778064
0.0012647
0.0017799
0.0023179
0.00287265
0.00343781
0.00400691
0.00457344
0.00513091
0.00567299
0.00619358
0.00668684
0.00714733
0.00757027
0.00795059
0.00827937
0.00854322
0.00880522
0.00899357
0.00912293
0.00919555
0.00921143
0.00917159
0.00907717
0.00892897
0.00872834
0.00847697
0.00817682
0.00783008
0.00743826
0.00700294
0.0065467
0.00606479
0.00515464
0.00429582
0.00431505
0.00388949
0.00345831
0.003038
0.00261026
0.0021812
0.00175655
0.00134078
0.000938453
0.000554095
0.000192134
-0.000143128
-0.000447538
-0.00071714
-0.000948217
-0.00113734
-0.00128142
-0.00137777
-0.00142415
-0.00141882
-0.00136057
-0.00124882
-0.00108359
-0.000865559
-0.00059608
-0.000277185
8.8423e-05
0.000497384
0.000945716
0.00142885
0.0019417
0.0024787
0.00303391
0.00360108
0.00417378
0.00474542
0.00530945
0.00585935
0.00638882
0.0068918
0.00736266
0.00779621
0.00818754
0.00852854
0.00880236
0.00906641
0.00926617
0.00940011
0.00947665
0.00949494
0.00945579
0.00936086
0.0092109
0.00900728
0.00875201
0.00844732
0.00809572
0.00769991
0.00726196
0.00678417
0.00628769
0.00576812
0.00485709
0.00393335
0.00391444
0.00348575
0.00305618
0.00264032
0.0022228
0.00180935
0.00140532
0.00101497
0.000642582
0.000292347
-3.16634e-05
-0.000325533
-0.000585528
-0.000808132
-0.000990088
-0.00112844
-0.0012206
-0.00126435
-0.00125794
-0.00120011
-0.00109015
-0.000927916
-0.000713883
-0.000449155
-0.000135491
0.000224699
0.000628358
0.0010718
0.00155075
0.00206037
0.00259534
0.00314989
0.00371792
0.00429306
0.00486876
0.00543841
0.00599543
0.00653331
0.00704576
0.00752689
0.00797167
0.00837442
0.00872886
0.00902794
0.00928668
0.00949134
0.00963597
0.00971963
0.00974275
0.00970642
0.00961292
0.00946314
0.00925842
0.00900082
0.00869289
0.00833739
0.00793734
0.00749594
0.00701584
0.00649998
0.00596783
0.00541531
0.00451399
0.00353438
0.00347578
0.00305232
0.00262437
0.00221637
0.00181302
0.001419
0.00103926
0.00067782
0.000338619
2.54923e-05
-0.000257886
-0.000508021
-0.000721621
-0.000895634
-0.00102728
-0.0011141
-0.00115398
-0.0011452
-0.00108651
-0.000977123
-0.000816789
-0.000605817
-0.00034511
-3.61826e-05
0.000318826
0.00071715
0.0011554
0.00162961
0.00213522
0.00266717
0.00321994
0.00378759
0.00436391
0.00494242
0.00551654
0.00607963
0.00662513
0.00714655
0.00763766
0.00809317
0.00850882
0.00887484
0.00918822
0.00945738
0.00967136
0.00982512
0.0099173
0.00994881
0.00991808
0.00982837
0.00968099
0.00947721
0.0092192
0.00890964
0.00855156
0.00814827
0.00770328
0.00722023
0.00670235
0.00615323
0.00559031
0.00500983
0.0041289
0.00310297
0.00300214
0.00258313
0.00216583
0.00177037
0.00138505
0.0010141
0.000662113
0.0003328
2.97352e-05
-0.000243646
-0.000484092
-0.000688555
-0.000854211
-0.000978489
-0.0010591
-0.00109408
-0.0010818
-0.00102106
-0.000911062
-0.000751506
-0.000542592
-0.000285064
1.97648e-05
0.000369995
0.000763127
0.00119607
0.00166514
0.00216609
0.00269414
0.00324403
0.00381008
0.00438624
0.00496618
0.00554341
0.00611131
0.00666327
0.00719278
0.0076934
0.00815923
0.00858526
0.00896479
0.00929196
0.00957248
0.0097988
0.00996426
0.0100669
0.0101079
0.0100854
0.0100021
0.00985962
0.00965912
0.00940284
0.0090936
0.00873462
0.00832944
0.00788186
0.00739588
0.00687557
0.00632468
0.00574742
0.00515894
0.00455574
0.0037058
0.00264372
0.00249931
0.00209017
0.00168623
0.00130702
0.000943298
0.00059883
0.000277776
-1.65006e-05
-0.000280826
-0.000512195
-0.000707809
-0.000865087
-0.000981692
-0.00105555
-0.00108486
-0.00106816
-0.00100433
-0.000892638
-0.000732777
-0.000524897
-0.000269636
3.18436e-05
0.000377841
0.000766094
0.00119377
0.00165749
0.00215329
0.0026767
0.00322274
0.00378599
0.00436064
0.00494057
0.00551941
0.00609065
0.0066477
0.00718402
0.00769318
0.00816906
0.00860595
0.00899751
0.0093381
0.00963084
0.00987041
0.0100491
0.0101642
0.0102164
0.0102041
0.0101296
0.00999446
0.00979969
0.0095475
0.00924078
0.00888288
0.00847752
0.00802876
0.00754087
0.00701828
0.00646546
0.00588665
0.00528668
0.00467808
0.00405761
0.00324909
0.00216136
0.00197207
0.00157739
0.00119051
0.000830998
0.00049227
0.000177457
-0.000109773
-0.000366431
-0.000589776
-0.000777259
-0.000926555
-0.00103557
-0.00110247
-0.00112567
-0.00110388
-0.00103615
-0.000921824
-0.000760668
-0.000552831
-0.000298907
4.44084e-08
0.00034247
0.000726301
0.00114894
0.00160726
0.00209761
0.00261578
0.00315712
0.0037165
0.00428836
0.00486682
0.00544572
0.00601868
0.00657922
0.00712084
0.00763709
0.00812178
0.00856902
0.00897233
0.00932566
0.00963095
0.00988405
0.0100765
0.0102056
0.0102707
0.0102705
0.010207
0.0100814
0.00989478
0.00964911
0.00934727
0.00899267
0.00858915
0.00814095
0.00765257
0.00712874
0.00657429
0.00599405
0.00539271
0.00477568
0.00415261
0.00352045
0.00276346
0.00166091
0.00142574
0.00104971
0.000683666
0.000347194
3.66075e-05
-0.000245664
-0.000496496
-0.000713306
-0.000893809
-0.00103594
-0.00113786
-0.00119798
-0.00121497
-0.00118775
-0.00111553
-0.000997851
-0.000834557
-0.000625865
-0.000372377
-7.51112e-05
0.000264475
0.000644459
0.00106243
0.0015155
0.00200026
0.00251281
0.00304877
0.00360332
0.00417121
0.00474681
0.00532421
0.00589722
0.00645952
0.00700471
0.00752638
0.00801831
0.00847453
0.00888855
0.00925407
0.00957267
0.00983864
0.0100446
0.0101884
0.0102677
0.0102813
0.0102308
0.0101169
0.00994065
0.00970387
0.00940933
0.00906039
0.00866095
0.00821534
0.00772827
0.00720466
0.00664965
0.00606843
0.00546613
0.00484788
0.00421962
0.00358786
0.00294972
0.00225391
0.00114722
0.000865653
0.000512355
0.000170816
-0.000139453
-0.000419002
-0.000666146
-0.000878343
-0.00105344
-0.00118964
-0.00128537
-0.0013393
-0.00135033
-0.00131766
-0.0012407
-0.00111918
-0.000953107
-0.000742803
-0.000488938
-0.000192542
0.000144966
0.000521752
0.000935551
0.00138365
0.00186287
0.00236958
0.00289969
0.00344865
0.00401153
0.00458299
0.00515737
0.00572877
0.00629104
0.00683793
0.00736316
0.00786056
0.00832409
0.00874731
0.0091237
0.00945488
0.00973874
0.00995383
0.0101111
0.0102053
0.0102342
0.0101983
0.010098
0.00993413
0.00970846
0.00942355
0.00908266
0.00868966
0.00824889
0.00776517
0.00724359
0.0066895
0.00610839
0.00550577
0.00488702
0.00425766
0.0036241
0.00298954
0.00235115
0.0017257
0.000625845
0.000297712
-2.91389e-05
-0.000342801
-0.000623954
-0.000869857
-0.00107961
-0.00125129
-0.00138321
-0.00147405
-0.00152275
-0.00152849
-0.0014907
-0.00140906
-0.00128351
-0.00111426
-0.000901775
-0.000646853
-0.00035059
-1.44231e-05
0.000359849
0.000770046
0.00121359
0.00168749
0.00218834
0.00271229
0.00325509
0.0038121
0.00437828
0.00494829
0.00551646
0.00607692
0.00662362
0.00715041
0.00765121
0.0081202
0.00855069
0.0089362
0.00927861
0.00957067
0.00980366
0.00997481
0.0100836
0.0101281
0.0101077
0.0100224
0.00987269
0.0096601
0.009387
0.00905647
0.00867226
0.00823867
0.00776054
0.00724306
0.00669173
0.00611224
0.00551039
0.00489196
0.00426254
0.00362798
0.00299514
0.00236368
0.00173079
0.0011841
0.000101687
-0.000272394
-0.000569308
-0.00085196
-0.00110135
-0.0013113
-0.00148175
-0.00161141
-0.00169906
-0.00174389
-0.00174536
-0.00170317
-0.00161725
-0.00148779
-0.00131523
-0.00110023
-0.000843755
-0.000547013
-0.000211518
0.000160909
0.000568119
0.00100762
0.00147654
0.00197166
0.00248935
0.00302563
0.00357611
0.00413608
0.00470048
0.00526395
0.0058209
0.00636553
0.0068919
0.00739404
0.00786616
0.00830183
0.00869424
0.0090468
0.00934938
0.00959419
0.00978015
0.00990326
0.00996305
0.00995852
0.00988897
0.00975465
0.00955675
0.00929734
0.00897928
0.00860611
0.00818204
0.00771181
0.00720066
0.00665415
0.00607813
0.00547859
0.00486158
0.00423312
0.00359893
0.00296513
0.00233901
0.00171654
0.00109487
0.000634594
-0.000419677
-0.000838907
-0.0011027
-0.00135149
-0.00156674
-0.00173878
-0.00186836
-0.00195487
-0.00199758
-0.00199617
-0.00195064
-0.00186119
-0.00172827
-0.00155257
-0.00133498
-0.00107666
-0.000778998
-0.000443618
-7.24239e-05
0.00033241
0.000768413
0.0012328
0.00172248
0.00223399
0.00276357
0.00330709
0.00386012
0.00441789
0.00497535
0.00552721
0.00606796
0.00659192
0.00709337
0.00756628
0.0080029
0.00840095
0.00876317
0.00907388
0.00932976
0.00952793
0.00966518
0.0097399
0.00975103
0.00969753
0.0095793
0.00939722
0.00915301
0.0088492
0.00848911
0.00807673
0.00761669
0.00711415
0.00657468
0.00600418
0.0054088
0.00479477
0.00416836
0.00353574
0.00290274
0.0022757
0.00166225
0.00105459
0.000449767
8.28005e-05
-0.000933192
-0.00139615
-0.00162393
-0.00183633
-0.00201539
-0.00214788
-0.0022354
-0.00227804
-0.00227551
-0.00222806
-0.00213617
-0.00200056
-0.00182219
-0.00160222
-0.00134202
-0.00104319
-0.00070752
-0.000337045
6.59802e-05
0.000499054
0.000959418
0.00144404
0.0019496
0.0024725
0.00300884
0.00355442
0.00410476
0.00465512
0.00520051
0.00573573
0.00625537
0.00675401
0.00722608
0.00766303
0.00804515
0.0084338
0.0087486
0.00901294
0.00922132
0.00937124
0.00946026
0.00948649
0.00944886
0.00934695
0.00918131
0.00895331
0.00866514
0.00831982
0.00792108
0.00747334
0.00698162
0.00645142
0.00588863
0.00529946
0.00469025
0.00406746
0.00343751
0.00280668
0.00218082
0.00156647
0.000971528
0.0003844
-0.000197987
-0.000465362
-0.0014338
-0.00193852
-0.00212779
-0.00230159
-0.00244274
-0.0025344
-0.00257906
-0.00257746
-0.00252983
-0.00243692
-0.00229973
-0.00211948
-0.00189761
-0.00163575
-0.00133573
-0.000999551
-0.000629417
-0.000227716
0.000202965
0.000659834
0.00113988
0.00163985
0.00215626
0.00268538
0.00322324
0.0037656
0.004308
0.00484575
0.00537397
0.00588763
0.00638146
0.00685024
0.00728848
0.00768646
0.00805404
0.00837808
0.00864862
0.00886559
0.00902598
0.00912739
0.00916757
0.00914499
0.00905903
0.00890988
0.00869856
0.00842692
0.00809762
0.0077141
0.0072805
0.00680164
0.00628285
0.00572996
0.00514912
0.00454677
0.00392944
0.00330372
0.00267614
0.00205302
0.00144022
0.00084436
0.000273615
-0.000287415
-0.00084214
-0.00100624
-0.00191681
-0.0024607
-0.00260926
-0.00274262
-0.00284447
-0.00289439
-0.00289575
-0.00284996
-0.00275776
-0.00262038
-0.00243934
-0.00221635
-0.00195332
-0.00165233
-0.00131563
-0.000945624
-0.000544881
-0.000116122
0.00033777
0.000813744
0.00130857
0.00181883
0.0023409
0.00287098
0.00340505
0.00393888
0.00446811
0.00498816
0.00549429
0.00598147
0.00644413
0.00687886
0.00728454
0.00764554
0.00796732
0.00824176
0.00846508
0.00863402
0.00874576
0.00879802
0.00878913
0.00871814
0.00858494
0.0083902
0.0081354
0.00782287
0.00745568
0.00703768
0.00657339
0.00606795
0.00552701
0.00495663
0.00436321
0.00375333
0.00313367
0.00251089
0.00189158
0.00128205
0.000688075
0.000116361
-0.000424742
-0.000954442
-0.00147624
-0.00153194
-0.00237749
-0.00295747
-0.00306361
-0.00315506
-0.00321655
-0.0032242
-0.00318219
-0.00309265
-0.00295678
-0.00277632
-0.00255327
-0.00228983
-0.00198835
-0.00165132
-0.00128142
-0.000881414
-0.000454206
-2.81807e-06
0.000469605
0.000959792
0.00146433
0.00197968
0.00250212
0.00302784
0.0035528
0.00407285
0.00458374
0.00508121
0.00556034
0.00601536
0.00643816
0.00684102
0.00720396
0.00752416
0.00779951
0.00802626
0.00820093
0.00832059
0.00838275
0.00838562
0.00832807
0.00820967
0.00803078
0.00779256
0.00749695
0.00714668
0.00674525
0.00629687
0.00580637
0.0052792
0.00472125
0.00413879
0.00353837
0.00292671
0.00231054
0.00169657
0.00109135
0.000501144
-6.83848e-05
-0.000610542
-0.00111692
-0.00161042
-0.00209479
-0.00204274
-0.00281165
-0.00342401
-0.00348639
-0.00353485
-0.00355529
-0.00352049
-0.00343545
-0.00330297
-0.00312472
-0.00290293
-0.00264009
-0.00233883
-0.00200194
-0.00163231
-0.00123299
-0.000807088
-0.000357813
0.00011155
0.000597628
0.00109697
0.00160605
0.00212123
0.00263873
0.00315471
0.00366527
0.00416631
0.00465358
0.0051224
0.00556961
0.00598927
0.00638093
0.00673769
0.00705467
0.00732853
0.00755587
0.00773341
0.00785813
0.0079276
0.00793989
0.0078937
0.0077884
0.00762407
0.00740153
0.00712241
0.00678905
0.00640461
0.00597294
0.00549857
0.00498663
0.0044428
0.00387316
0.00328415
0.00268243
0.00207474
0.00146786
0.000868465
0.000283035
-0.000282269
-0.000821967
-0.00132941
-0.0017962
-0.00224871
-0.00269054
-0.00252891
-0.00321551
-0.00385603
-0.0038735
-0.00387827
-0.00385735
-0.0037803
-0.00365292
-0.00347869
-0.00325972
-0.00299874
-0.00269867
-0.00236256
-0.00199361
-0.00159511
-0.00117042
-0.000722974
-0.000256244
0.000226256
0.000720962
0.00122429
0.00173265
0.00224245
0.00274975
0.00325059
0.0037413
0.00421788
0.00467578
0.00510496
0.00552442
0.00590734
0.00625561
0.0065664
0.00683607
0.00706115
0.00723855
0.00736541
0.00743931
0.0074583
0.00742098
0.00732657
0.00717492
0.0069666
0.0067029
0.00638585
0.00601823
0.00560353
0.00514593
0.00465025
0.00412186
0.00356661
0.00299075
0.00240079
0.00180345
0.00120547
0.0006136
3.44117e-05
-0.000525719
-0.00106081
-0.00156558
-0.00203348
-0.00245603
-0.0028628
-0.00325586
-0.00298656
-0.00358539
-0.00424936
-0.00422138
-0.004182
-0.0041198
-0.00400107
-0.00383243
-0.00361798
-0.00336032
-0.0030626
-0.00272819
-0.00236053
-0.00196318
-0.00153978
-0.00109401
-0.000629573
-0.000150177
0.00034049
0.000838697
0.00134073
0.00184302
0.00234205
0.0028336
0.00331416
0.00377999
0.00422619
0.00465275
0.00505301
0.0054255
0.00576439
0.00606679
0.00632964
0.00654973
0.00672407
0.00685004
0.00692533
0.00694804
0.00691675
0.0068306
0.00668928
0.00649315
0.00624324
0.00594128
0.00558969
0.00519162
0.00475089
0.00427196
0.00375987
0.00322018
0.00265889
0.00208231
0.00149702
0.000909707
0.000327083
-0.000244221
-0.000797762
-0.00132735
-0.0018272
-0.00229231
-0.00271618
-0.00309049
-0.00344661
-0.00377759
-0.00341141
-0.0039168
-0.00460001
-0.00452697
-0.00444364
-0.00434035
-0.00418086
-0.00397238
-0.00371961
-0.00342556
-0.00309387
-0.00272826
-0.00233259
-0.00191073
-0.00146664
-0.00100427
-0.000527575
-4.04449e-05
0.000453294
0.000949781
0.00144528
0.00193614
0.00241882
0.00288946
0.00334388
0.00378013
0.00419487
0.00458375
0.00494354
0.0052711
0.00556327
0.005817
0.00602944
0.00619793
0.00632003
0.00639363
0.00641694
0.00638862
0.00630777
0.00617403
0.0059876
0.00574932
0.00546064
0.00512371
0.00474132
0.00431695
0.00385468
0.00335921
0.00283578
0.00229007
0.00172815
0.00115639
0.000581332
9.60349e-06
-0.000552189
-0.00109757
-0.00162029
-0.00211438
-0.00257434
-0.00299543
-0.00337144
-0.00369413
-0.00399859
-0.00428146
-0.00380278
-0.00420855
-0.00490455
-0.0047871
-0.00466053
-0.00451706
-0.00431819
-0.00407162
-0.00378272
-0.00345489
-0.0030922
-0.0026988
-0.00227887
-0.00183662
-0.00137624
-0.000901929
-0.000417804
7.20036e-05
0.000563631
0.00105318
0.00153667
0.00201085
0.00247148
0.00291647
0.00334223
0.00374435
0.00412064
0.00446777
0.00478283
0.00506304
0.00530568
0.00550819
0.00566821
0.00578361
0.00585249
0.00587327
0.00584473
0.00576603
0.00563683
0.00545725
0.00522798
0.00495029
0.00462607
0.00425783
0.00384869
0.00340241
0.00292332
0.0024163
0.0018867
0.0013403
0.000783186
0.000221706
-0.000337667
-0.000888424
-0.00142413
-0.0019385
-0.00242554
-0.00287955
-0.00329531
-0.00366844
-0.00399298
-0.00426093
-0.00451002
-0.00474151
-0.00415413
-0.00445708
-0.00516078
-0.00499907
-0.00482999
-0.00464735
-0.00441077
-0.00412837
-0.00380627
-0.00344774
-0.00305745
-0.00263998
-0.00219977
-0.00174149
-0.0012694
-0.000787903
-0.000301148
0.000186077
0.000670347
0.00114746
0.00161248
0.00206652
0.00250179
0.00291602
0.00330649
0.00367008
0.00400413
0.00430593
0.00457298
0.00480294
0.00499358
0.00514287
0.00524898
0.00531031
0.00532552
0.00529359
0.00521382
0.00508593
0.00491007
0.00468686
0.00441744
0.00410352
0.00374734
0.00335177
0.00292021
0.00245666
0.00196563
0.00145213
0.000921601
0.000379831
-0.000167103
-0.000712944
-0.00125135
-0.00177597
-0.0022806
-0.0027592
-0.00320606
-0.00361579
-0.00398351
-0.00430518
-0.0045751
-0.00478577
-0.0049769
-0.00515129
-0.00446513
-0.00466039
-0.00536566
-0.00516104
-0.00495113
-0.00473129
-0.00445901
-0.00414315
-0.00379014
-0.00340413
-0.00298992
-0.00255229
-0.0020957
-0.00162625
-0.00114722
-0.000663489
-0.00017949
0.000300406
0.000772266
0.00123246
0.00167705
0.00210314
0.00250709
0.00288605
0.00323727
0.00355815
0.00384628
0.00409945
0.00431559
0.00449285
0.00462952
0.00472411
0.00477534
0.00478216
0.00474381
0.00465979
0.00452996
0.00435456
0.00413423
0.00387005
0.00356361
0.00321698
0.00283277
0.00241412
0.0019647
0.00148868
0.000990708
0.000475876
-5.03543e-05
-0.000582218
-0.00111372
-0.00163875
-0.00215113
-0.00264474
-0.00311363
-0.00355206
-0.00395465
-0.00431636
-0.00463269
-0.00489991
-0.00511277
-0.00526431
-0.00539502
-0.00550682
-0.00473006
-0.00481767
-0.00551796
-0.00527195
-0.00502232
-0.00476682
-0.00446127
-0.00411489
-0.0037345
-0.00332465
-0.00289038
-0.00243682
-0.00196916
-0.00149234
-0.00101102
-0.000529929
-5.35032e-05
0.000413985
0.00086856
0.00130652
0.00172435
0.00211891
0.00248723
0.00282664
0.00313471
0.00340921
0.00364819
0.00384986
0.00401269
0.0041353
0.00421656
0.00425551
0.00425145
0.00420389
0.00411261
0.00397768
0.00379948
0.00357874
0.00331659
0.00301454
0.00267457
0.00229912
0.00189109
0.00145386
0.000991306
0.000507732
7.87848e-06
-0.000503141
-0.0010199
-0.00153671
-0.00204771
-0.00254698
-0.00302856
-0.0034866
-0.00391546
-0.00430974
-0.00466441
-0.00497484
-0.00523692
-0.00544741
-0.00560158
-0.00569377
-0.00576095
-0.00579974
-0.004947
-0.00492687
-0.00561634
-0.00533121
-0.00504454
-0.00475533
-0.00441869
-0.00404432
-0.00364016
-0.00321027
-0.00275981
-0.00229408
-0.00182004
-0.00134111
-0.000862375
-0.00038878
7.51565e-05
0.000525221
0.000957509
0.00136845
0.00175476
0.0021135
0.00244202
0.00273796
0.00299929
0.00322423
0.00341124
0.00355908
0.00366669
0.00373328
0.00375824
0.00374119
0.003682
0.00358074
0.00343774
0.0032536
0.00302921
0.0027658
0.00246492
0.00212849
0.00175886
0.00135876
0.000931354
0.000480232
9.40366e-06
-0.000476728
-0.000973399
-0.00147552
-0.00197775
-0.00247453
-0.0029602
-0.00342904
-0.00387538
-0.00429368
-0.00467863
-0.00502522
-0.00532881
-0.00558518
-0.00579063
-0.00594238
-0.00603623
-0.0060661
-0.00607331
-0.00605143
-0.00511634
-0.00498589
-0.00565864
-0.00533725
-0.00501601
-0.00469562
-0.00433031
-0.00392906
-0.00350728
-0.00306249
-0.0026007
-0.0021283
-0.00165114
-0.00117435
-0.000702953
-0.000241739
0.000204831
0.000632641
0.00103793
0.00141729
0.0017677
0.0020865
0.00237137
0.00262035
0.00283181
0.00300445
0.00313723
0.0032294
0.00328049
0.00329022
0.00325858
0.00318576
0.00307217
0.00291846
0.00272549
0.00249437
0.00222649
0.00192352
0.00158741
0.00122046
0.000825332
0.000405016
-3.71111e-05
-0.000497306
-0.000971467
-0.00145516
-0.00194363
-0.00243189
-0.0029147
-0.00338671
-0.00384248
-0.00427657
-0.00468361
-0.00505841
-0.00539603
-0.00569188
-0.00594174
-0.00614182
-0.00628888
-0.00638065
-0.00641367
-0.0063817
-0.00633037
-0.00626387
-0.00523471
-0.0049916
-0.00564176
-0.00529068
-0.0049391
-0.00459149
-0.00420274
-0.00378336
-0.00334219
-0.00288384
-0.00241404
-0.00193877
-0.00146363
-0.000993918
-0.000534676
-9.06328e-05
0.000333841
0.000734763
0.00110856
0.00145205
0.00176252
0.00203761
0.0022754
0.00247436
0.00263332
0.00275146
0.00282826
0.00286354
0.00285735
0.00281001
0.00272206
0.00259427
0.00242761
0.00222326
0.00198261
0.00170726
0.00139904
0.00106003
0.000692583
0.000299302
-0.000116891
-0.000552776
-0.00100482
-0.00146919
-0.00194173
-0.00241802
-0.00289339
-0.00336297
-0.00382171
-0.00426448
-0.00468613
-0.00508153
-0.00544563
-0.00577362
-0.00606097
-0.00630352
-0.00649753
-0.00663966
-0.00672718
-0.00675848
-0.00673085
-0.00663722
-0.00652614
-0.00640326
-0.00530954
-0.00496419
-0.00558727
-0.00520029
-0.00481735
-0.00444325
-0.00403252
-0.00359587
-0.00314149
-0.00267488
-0.0022018
-0.00172826
-0.00125987
-0.000801987
-0.000359609
6.2611e-05
0.000460435
0.000830063
0.00116815
0.00147182
0.00173865
0.0019667
0.00215446
0.00230084
0.00240518
0.00246717
0.00248685
0.00246457
0.00240097
0.00229694
0.00215358
0.00197223
0.00175439
0.00150177
0.00121624
0.000899873
0.000554908
0.000183805
-0.000210769
-0.00062592
-0.00105851
-0.00150517
-0.00196224
-0.00242584
-0.00289183
-0.00335587
-0.00381339
-0.0042597
-0.00468998
-0.00509937
-0.00548306
-0.00583627
-0.00615429
-0.00643267
-0.00666732
-0.00685452
-0.00699105
-0.00707404
-0.00710138
-0.00707233
-0.00698447
-0.00683009
-0.00665979
-0.00647877
-0.0053314
-0.00488196
-0.00547226
-0.00505654
-0.00464709
-0.00425042
-0.00382179
-0.00337172
-0.00290865
-0.00243827
-0.00196649
-0.00149928
-0.00104229
-0.00060086
-0.000179923
0.000215997
0.000582845
0.000917051
0.00121555
0.0014758
0.00169575
0.00187388
0.00200912
0.00210091
0.00214907
0.00215384
0.00211583
0.00203596
0.00191543
0.0017557
0.00155843
0.0013255
0.00105895
0.000760947
0.000433846
8.0126e-05
-0.000297585
-0.000696504
-0.00111369
-0.00154601
-0.00199018
-0.00244269
-0.00289985
-0.00335777
-0.00381238
-0.00425945
-0.00469459
-0.00511331
-0.00551111
-0.00588343
-0.00622572
-0.00653369
-0.00680295
-0.00702944
-0.00720948
-0.00733984