/*--------------------------------*- C++ -*----------------------------------*\
| =========                 |                                                 |
| \\      /  F ield         | OpenFOAM: The Open Source CFD Toolbox           |
|  \\    /   O peration     | Version:  3.0.0                                 |
|   \\  /    A nd           | Web:      www.OpenFOAM.org                      |
|    \\/     M anipulation  |                                                 |
\*---------------------------------------------------------------------------*/
FoamFile
{
    version     2.0;
    format      ascii;
    class       volScalarField;
    location    "3.75";
    object      p;
}
// * * * * * * * * * * * * * * * * * * * * * * * * * * * * * * * * * * * * * //

dimensions      [0 2 -2 0 0 0 0];

internalField   nonuniform List<scalar> 
4096
(
0.00788991
-0.0150781
-0.0301255
-0.0378632
-0.034745
-0.0204857
-0.000712662
0.016448
0.0267445
0.0311191
0.0327832
0.033897
0.0336212
0.0308436
0.0235981
0.0153591
-0.00168779
-0.0191675
-0.0283312
-0.0336957
-0.0330419
-0.0259696
-0.0153071
-0.00470775
0.00370543
0.00966537
0.0136251
0.0156596
0.0156947
0.0127671
0.00658878
0.00381444
0.00436593
-0.0098026
-0.0163401
-0.0208841
-0.0209472
-0.0159417
-0.00895248
-0.00388258
-0.00209388
-0.00198845
-0.00133584
0.00059643
0.00297795
0.00404313
0.00289735
0.00709442
0.00816901
-0.000148535
-0.00248764
-0.00505895
-0.00577445
-0.00411525
-0.00252514
-0.0038503
-0.00821658
-0.0128808
-0.0149082
-0.013426
-0.00955714
-0.00536073
-0.00185068
0.00819059
0.00929504
0.00845019
0.0106152
0.010409
0.00922968
0.00748149
0.00375279
-0.00332703
-0.0127347
-0.0211124
-0.0253528
-0.0246681
-0.0202976
-0.0141482
-0.00702289
0.00652522
0.008661
0.014666
0.0206128
0.0226324
0.021384
0.0171473
0.00953919
-0.00156627
-0.0144881
-0.0253472
-0.031185
-0.0314335
-0.0273607
-0.0205416
-0.0113543
0.00345221
0.00692683
0.017406
0.0259692
0.0298134
0.0288362
0.02312
0.0130641
-0.000315781
-0.0145704
-0.0262146
-0.0326187
-0.0334552
-0.0300533
-0.023707
-0.0143053
6.24062e-05
0.00510692
0.0166058
0.0264786
0.031598
0.0311313
0.0249583
0.0140884
5.06203e-05
-0.0138842
-0.0247936
-0.0306573
-0.0314417
-0.0285659
-0.0233233
-0.0153103
-0.00237759
0.00410337
0.0130758
0.0229683
0.0287345
0.0289299
0.0231986
0.0126409
-0.000326172
-0.012587
-0.0216289
-0.026119
-0.0263111
-0.0236188
-0.0195643
-0.0139915
-0.00279151
0.00394519
0.00806276
0.0167696
0.0224522
0.0233667
0.018948
0.0101601
-0.00049223
-0.0100174
-0.0164338
-0.0190664
-0.0184269
-0.015811
-0.0129364
-0.0102871
-0.00101039
0.00403305
0.00257571
0.0089827
0.0138072
0.015413
0.0131217
0.00741281
0.000421776
-0.00539548
-0.00865427
-0.00919826
-0.00775384
-0.00548233
-0.00407903
-0.00448496
0.0023416
0.00357952
-0.00259425
0.00026553
0.00339187
0.00549141
0.00611111
0.00471987
0.0026158
0.0013237
0.00155213
0.00314133
0.00516956
0.00658572
0.00601881
0.00256486
0.00549283
0.00189048
-0.00776207
-0.00914196
-0.0082491
-0.00565556
-0.00193974
0.00199626
0.0057285
0.00940188
0.0130765
0.0163687
0.0184943
0.0185838
0.0157134
0.00943512
0.0071198
-0.00130256
-0.0133947
-0.0189684
-0.0206589
-0.0181442
-0.0116618
-0.00252698
0.00700764
0.0155454
0.0224527
0.0272209
0.0291788
0.0277441
0.0225349
0.0138319
0.00610116
-0.00420399
-0.01843
-0.0273612
-0.0314878
-0.029898
-0.0222326
-0.0104329
0.00275509
0.0151821
0.0252211
0.0316737
0.0338251
0.0315258
0.0250361
0.0149941
0.00363147
0.0095592
-0.0111576
-0.0265846
-0.0345736
-0.0313003
-0.0163538
0.00409459
0.0210882
0.0302015
0.0330609
0.0335858
0.0340994
0.034512
0.0325955
0.0263885
0.0163522
0.00485814
-0.018813
-0.0344949
-0.0405649
-0.034772
-0.0193789
-0.00106851
0.0134589
0.022386
0.0274001
0.0310263
0.0343449
0.0358397
0.0338217
0.0261404
0.0149314
-0.0113522
-0.0271853
-0.0353131
-0.0384925
-0.0361527
-0.0293927
-0.0206785
-0.0118164
-0.00338238
0.00444377
0.011046
0.0151987
0.015913
0.0121416
0.0042067
-0.00284305
-0.0058441
-0.0180486
-0.0237859
-0.0266313
-0.0253261
-0.0204756
-0.0149702
-0.0111695
-0.00906682
-0.00710425
-0.00417794
-0.000684516
0.00203018
0.00243186
-1.57766e-06
-0.000106935
-0.0015433
-0.00788239
-0.00995071
-0.0113496
-0.010953
-0.00925425
-0.00863677
-0.0107803
-0.0147205
-0.0178665
-0.0182801
-0.015834
-0.0117821
-0.00786723
-0.00508278
0.000982407
0.00140851
0.0015372
0.00341184
0.00387372
0.00356808
0.00203441
-0.00221525
-0.00982833
-0.0189321
-0.026323
-0.0296341
-0.0283961
-0.0236273
-0.0170882
-0.0099389
0.000737212
0.00387163
0.00941102
0.0143313
0.0163443
0.0156014
0.0116635
0.00386766
-0.00778369
-0.0203184
-0.0308058
-0.0363748
-0.0362483
-0.0312874
-0.0231533
-0.013066
0.000143637
0.00599119
0.0147274
0.0214382
0.0244118
0.0233411
0.0178166
0.00784143
-0.00548834
-0.0196969
-0.0314486
-0.0380309
-0.0385835
-0.0338329
-0.0253023
-0.0141184
-0.000118684
0.0079065
0.017089
0.0244362
0.0277914
0.0264731
0.020148
0.00927557
-0.00404539
-0.0177111
-0.0287458
-0.0349384
-0.0355871
-0.0313346
-0.0235348
-0.0131006
0.000444446
0.00956594
0.0166633
0.0237951
0.027138
0.0257592
0.0194838
0.00923822
-0.00284655
-0.0143595
-0.0231376
-0.0278328
-0.0281415
-0.0246214
-0.0184218
-0.0102345
0.002194
0.0105914
0.0139288
0.0202186
0.0233375
0.0222675
0.0169477
0.00843609
-0.00102594
-0.00925874
-0.0148844
-0.0174995
-0.0173082
-0.0147706
-0.0107771
-0.00588434
0.00499821
0.0104775
0.00935623
0.0141065
0.01687
0.0166471
0.0133416
0.00781514
0.00205261
-0.00220723
-0.00436264
-0.00480561
-0.00416673
-0.00281971
-0.00138593
-0.000312336
0.00784246
0.00874009
0.00330981
0.00552829
0.00770933
0.00885255
0.00863787
0.00727321
0.00607631
0.0061227
0.00735131
0.00888351
0.00986589
0.00997736
0.00881762
0.00608887
0.00996284
0.0053461
-0.00400515
-0.00537206
-0.0042411
-0.0013387
0.0023875
0.00618984
0.010138
0.0143941
0.0185228
0.0216156
0.0228642
0.0219065
0.0183903
0.0122035
0.0102977
-0.000225682
-0.0127479
-0.0179124
-0.0182544
-0.0141245
-0.00677261
0.00201472
0.010875
0.0190063
0.0258024
0.0305059
0.0322754
0.0305055
0.0248735
0.0156587
0.00755388
-0.00624121
-0.0212486
-0.0295144
-0.031544
-0.0275831
-0.0190609
-0.0082329
0.00342132
0.0149024
0.0250206
0.0323265
0.0354786
0.0337058
0.0269069
0.0157131
0.00299024
0.00900719
-0.0135208
-0.0298737
-0.0363614
-0.030369
-0.0142659
0.00433473
0.0183992
0.0261321
0.0297911
0.0323601
0.0351061
0.037299
0.0363382
0.0298198
0.0179401
0.00122051
-0.0207942
-0.0353744
-0.039583
-0.0321018
-0.0166882
-0.000401813
0.01166
0.0190387
0.0238616
0.0281729
0.032384
0.0347611
0.0332581
0.0257441
0.0132133
-0.0177948
-0.0316518
-0.0387714
-0.0401735
-0.0364602
-0.0297083
-0.0220915
-0.0143926
-0.00645634
0.00171696
0.0092627
0.0144722
0.015679
0.0116475
0.00274822
-0.0074706
-0.0133969
-0.0235743
-0.0287905
-0.0302278
-0.0276292
-0.0225138
-0.0176417
-0.0144643
-0.0122431
-0.00938608
-0.00522918
-0.000748651
0.00219716
0.00196621
-0.00176079
-0.00574793
-0.00864876
-0.0136202
-0.0156087
-0.0161082
-0.0147313
-0.0126512
-0.0121877
-0.0143487
-0.0176293
-0.0195304
-0.0186232
-0.0153267
-0.0112585
-0.00815487
-0.00674353
-0.00452288
-0.00377876
-0.00331486
-0.00195308
-0.00129767
-0.00116734
-0.00241902
-0.00645816
-0.013503
-0.0214699
-0.0273649
-0.0293193
-0.0273152
-0.0226121
-0.0168497
-0.0110034
-0.00361907
0.00159274
0.0063324
0.0100807
0.0114739
0.0104853
0.00656608
-0.000834462
-0.0112976
-0.0224562
-0.0312281
-0.0353959
-0.0345435
-0.0295886
-0.0219903
-0.0128888
-0.00205376
0.00680309
0.0139037
0.0187995
0.0203585
0.0183694
0.0125793
0.00313526
-0.00885011
-0.0211944
-0.0310317
-0.0361996
-0.0360913
-0.0312892
-0.0229769
-0.0122896
0.000163995
0.0111741
0.0185272
0.0235328
0.0248481
0.0221065
0.0153144
0.00521131
-0.00660054
-0.018118
-0.0271254
-0.0319904
-0.0321755
-0.0279711
-0.0201674
-0.00967254
0.00286205
0.0142176
0.0199702
0.0244943
0.0254754
0.0224416
0.0156256
0.00615281
-0.0041146
-0.0133305
-0.0201209
-0.0237339
-0.0239502
-0.0207849
-0.0145556
-0.00583216
0.00585412
0.0155821
0.0185204
0.0223064
0.0231234
0.02046
0.0146528
0.00695322
-0.00070555
-0.00677194
-0.010702
-0.012678
-0.0128907
-0.0111052
-0.00717616
-0.00132072
0.00893803
0.0151395
0.0145893
0.0173725
0.0182646
0.0167523
0.0130526
0.00820733
0.00393327
0.00135893
0.000323925
-6.85738e-05
-0.000321306
-2.26985e-05
0.00130137
0.00366454
0.0116711
0.0128922
0.0085282
0.00966254
0.0106863
0.0110395
0.010496
0.0094632
0.00910329
0.0100425
0.0116451
0.0126697
0.0124882
0.011537
0.0103799
0.00906347
0.013484
0.0088256
0.000533014
-0.000911707
-1.81031e-05
0.00263226
0.00609702
0.00968897
0.0135534
0.0177505
0.0215496
0.023842
0.0240441
0.0223911
0.0190848
0.0141767
0.0135066
0.00222361
-0.00953639
-0.0139866
-0.0136523
-0.00913918
-0.00198164
0.00600098
0.0138184
0.0210278
0.0270556
0.0310431
0.0322396
0.0303066
0.0251114
0.0168585
0.0102112
-0.00554799
-0.0200575
-0.0272214
-0.0279689
-0.0230768
-0.0147426
-0.00506409
0.00509977
0.0153209
0.0246542
0.0316347
0.0348468
0.0334288
0.0270948
0.0163034
0.00448604
0.00750374
-0.0145551
-0.0299699
-0.0348807
-0.0274662
-0.0114284
0.00545252
0.0174372
0.0239892
0.0276455
0.0308954
0.0344764
0.0373054
0.036765
0.0303476
0.0182064
-0.00358084
-0.0227309
-0.0345799
-0.0365096
-0.0286089
-0.0149961
-0.00210178
0.00694178
0.0129587
0.0180616
0.0234317
0.0285686
0.031446
0.0298531
0.0220609
0.0098484
-0.0201527
-0.032909
-0.0391496
-0.0394289
-0.0350375
-0.0287962
-0.0225932
-0.0163628
-0.00925558
-0.00106747
0.00717992
0.0134219
0.0154361
0.011676
0.00238856
-0.00910368
-0.0174756
-0.0266444
-0.0313606
-0.0317375
-0.0283034
-0.0232405
-0.0191625
-0.016739
-0.0145143
-0.0108914
-0.00561601
-0.000182227
0.00308919
0.0023771
-0.00249901
-0.00899109
-0.0130373
-0.0174825
-0.019455
-0.0192733
-0.0171596
-0.0147696
-0.01433
-0.0163227
-0.0188607
-0.0195031
-0.0173595
-0.0133372
-0.00939845
-0.00728921
-0.0074754
-0.00827196
-0.00724289
-0.00699262
-0.00614442
-0.0053631
-0.0048442
-0.00567526
-0.00914072
-0.0151891
-0.0216907
-0.0259764
-0.0267012
-0.0242406
-0.0200078
-0.0154649
-0.0113054
-0.00678772
-0.000236525
0.00353001
0.006284
0.00720737
0.00613251
0.00250932
-0.00403725
-0.012931
-0.0221283
-0.0290301
-0.0320161
-0.0309539
-0.0266476
-0.0202062
-0.0125664
-0.0039627
0.00675398
0.0123268
0.0158017
0.0163598
0.0138603
0.00821427
-0.000222793
-0.0104002
-0.0205196
-0.0284391
-0.0326045
-0.0325251
-0.0284214
-0.0209827
-0.0112576
-0.000301871
0.0125168
0.0181698
0.0213894
0.0213346
0.0178617
0.0112151
0.00225824
-0.00763346
-0.0169447
-0.0242603
-0.028488
-0.0290161
-0.0255305
-0.0182115
-0.00806004
0.00354971
0.0162448
0.0206283
0.0231071
0.0225636
0.0188243
0.0123062
0.00413712
-0.00416631
-0.0114005
-0.0169549
-0.0204601
-0.0214217
-0.0190374
-0.0129289
-0.00384226
0.0070547
0.0176841
0.0199763
0.0216428
0.0210138
0.0178395
0.0125374
0.00625168
0.000436848
-0.00404436
-0.00733595
-0.0098057
-0.011156
-0.0102474
-0.00616852
0.000683585
0.0100928
0.0170311
0.0166877
0.0176208
0.017336
0.0155231
0.012389
0.00882574
0.00604734
0.00449782
0.0034758
0.0020777
0.000419092
-0.000191114
0.00149997
0.00533259
0.012637
0.0146147
0.0111089
0.0110934
0.0113728
0.0115381
0.0113305
0.0110728
0.0115467
0.0128319
0.013918
0.0136728
0.0120949
0.0104422
0.00977698
0.0101363
0.0144914
0.0105324
0.00337117
0.00177914
0.00251812
0.00497745
0.00823433
0.0116791
0.0154057
0.0192376
0.0222292
0.0233627
0.0225103
0.020477
0.0178707
0.014671
0.0149386
0.00408882
-0.0066792
-0.0103621
-0.00945002
-0.005181
0.00113446
0.0078634
0.0144625
0.0206864
0.0258693
0.0291022
0.0298409
0.0280766
0.0238355
0.0171176
0.0123536
-0.00391821
-0.0177133
-0.023683
-0.0237058
-0.0185774
-0.0113027
-0.00340039
0.0050222
0.0139421
0.0224455
0.0290256
0.0323221
0.0315578
0.026282
0.0166722
0.00698712
0.00324081
-0.0166434
-0.0293347
-0.0322873
-0.0243217
-0.0100017
0.003879
0.0133946
0.0190866
0.0233205
0.0276839
0.0321061
0.0350838
0.0342415
0.0274813
0.0165705
-0.00708066
-0.0244088
-0.0329446
-0.0332003
-0.0258968
-0.0153839
-0.00636644
8.2632e-05
0.0056735
0.011979
0.0190079
0.0252311
0.0283291
0.0260776
0.0172364
0.00661674
-0.0186216
-0.0315883
-0.0371526
-0.0370437
-0.0326556
-0.0272576
-0.0224633
-0.0175899
-0.0112461
-0.00306987
0.00577089
0.0129393
0.0158514
0.0126266
0.00322417
-0.00744786
-0.0176981
-0.0269979
-0.0311531
-0.0307364
-0.0271249
-0.0225022
-0.0193708
-0.0177575
-0.0156607
-0.0114736
-0.00526714
0.00100816
0.0046936
0.00372709
-0.00206197
-0.00919862
-0.0140495
-0.0186034
-0.0203596
-0.0196355
-0.0171056
-0.0147387
-0.01456
-0.0166189
-0.0186753
-0.0184313
-0.0153393
-0.0107474
-0.00689644
-0.00558579
-0.00709015
-0.00939573
-0.00824771
-0.00815238
-0.0074505
-0.00645092
-0.00564965
-0.00627378
-0.00944186
-0.0148493
-0.0203491
-0.0235343
-0.023459
-0.0208271
-0.0171294
-0.0136546
-0.0108123
-0.00792112
-0.000813466
0.00261773
0.00498711
0.0058027
0.00477914
0.00137138
-0.0046182
-0.0124549
-0.0202864
-0.0259926
-0.0284239
-0.0276229
-0.0241891
-0.0188242
-0.0122097
-0.00474026
0.006643
0.0116407
0.0145835
0.0147969
0.0121982
0.00679988
-0.000906503
-0.00985383
-0.0185466
-0.0254509
-0.0294879
-0.0301251
-0.02707
-0.0204502
-0.0112199
-0.000667048
0.0126388
0.0174687
0.0200239
0.0195304
0.0160142
0.0098273
0.00183658
-0.00675184
-0.0148556
-0.0216377
-0.0263331
-0.0280256
-0.0256111
-0.0187087
-0.00842355
0.00335366
0.0162115
0.0196594
0.0212959
0.0203571
0.016831
0.0111452
0.00426861
-0.00269212
-0.00907563
-0.0147297
-0.0193144
-0.0218561
-0.0204324
-0.0142897
-0.00459577
0.00662606
0.0172176
0.0186816
0.01932
0.0183988
0.0157521
0.0116574
0.00692911
0.00245477
-0.00154088
-0.00550407
-0.0095573
-0.0125895
-0.0125205
-0.00807381
-0.00025166
0.00905818
0.0160972
0.0153613
0.015141
0.0146486
0.01352
0.0117094
0.0097138
0.00811982
0.0067589
0.00474356
0.00160439
-0.00165126
-0.00288254
-0.000628452
0.00439343
0.0110159
0.0135647
0.0102048
0.00919785
0.00931449
0.00999942
0.0107635
0.011648
0.0129259
0.0141658
0.0142462
0.0124824
0.00963832
0.00757767
0.00759418
0.00923166
0.0127709
0.00989508
0.0032915
0.00126883
0.00190054
0.00441636
0.00776938
0.0114069
0.015274
0.0188845
0.021164
0.0213419
0.0197727
0.0176677
0.0157568
0.0137979
0.0138803
0.00455062
-0.00565175
-0.0090317
-0.00820014
-0.00427267
0.00108603
0.00680997
0.0127388
0.0185832
0.0234435
0.02635
0.0269622
0.0255184
0.0221185
0.0165901
0.0128656
-0.00228377
-0.0158137
-0.0209127
-0.020512
-0.0161736
-0.0103112
-0.00392178
0.00340493
0.011691
0.0198438
0.0262893
0.0297952
0.0296461
0.0253466
0.0167522
0.00916157
-0.00115204
-0.0193064
-0.0286923
-0.0296563
-0.0223149
-0.0108387
-0.000372672
0.00709911
0.0127957
0.0184412
0.0244379
0.0297367
0.0325125
0.0306331
0.022714
0.0131891
-0.00806486
-0.0249568
-0.0309292
-0.0305463
-0.0250282
-0.0179212
-0.0119791
-0.00669397
-0.000224005
0.00806649
0.0169834
0.0241246
0.0271084
0.023881
0.013815
0.00512625
-0.0146344
-0.0288501
-0.0337403
-0.0334761
-0.0297973
-0.025282
-0.0214438
-0.017374
-0.0114367
-0.00320223
0.0060163
0.0137195
0.0171671
0.0142733
0.00474699
-0.0037603
-0.0144811
-0.0247369
-0.0281451
-0.0274467
-0.0239145
-0.0199602
-0.0177313
-0.0168119
-0.0149403
-0.0104213
-0.00372506
0.0029941
0.0069243
0.00584549
-0.000568623
-0.00659697
-0.0113305
-0.0163602
-0.0175628
-0.0164213
-0.0138753
-0.0119069
-0.0123032
-0.0147379
-0.0168025
-0.0162494
-0.0127633
-0.00792021
-0.00407542
-0.00312235
-0.00535592
-0.00742559
-0.00582281
-0.00571883
-0.00468273
-0.00335406
-0.00248551
-0.00331664
-0.00677798
-0.0122974
-0.0176811
-0.0206528
-0.0204421
-0.0178785
-0.0144459
-0.0113759
-0.00899728
-0.00624268
0.00110041
0.00498604
0.00763469
0.00868265
0.00773768
0.00422547
-0.00191485
-0.00976029
-0.0174761
-0.0231585
-0.0258477
-0.02556
-0.0226555
-0.0175851
-0.0109288
-0.00333225
0.00786695
0.0134231
0.0167303
0.0172039
0.0147759
0.00945867
0.00178194
-0.00714824
-0.0159352
-0.0232323
-0.028113
-0.0297959
-0.0274741
-0.020912
-0.0111213
0.000337398
0.0129195
0.0180435
0.0210801
0.0209926
0.0179195
0.0121747
0.00451796
-0.00401591
-0.0125232
-0.0203038
-0.0265223
-0.029729
-0.0281231
-0.0209805
-0.00974882
0.00365451
0.0153024
0.0185541
0.0206705
0.020343
0.0176581
0.0129269
0.00679341
1.46971e-06
-0.00706799
-0.0142757
-0.0209344
-0.0251817
-0.0245118
-0.0178989
-0.00710946
0.00590187
0.0150132
0.0158306
0.0167171
0.0165283
0.0150789
0.0124
0.00883368
0.00473258
-2.83881e-05
-0.0057808
-0.0120355
-0.0167699
-0.0172156
-0.0121595
-0.00338622
0.00707295
0.0128579
0.0112199
0.0108118
0.0109702
0.0111454
0.0109468
0.0103545
0.00935778
0.00741828
0.00382212
-0.00120142
-0.00578735
-0.00726299
-0.00439889
0.0012877
0.0078075
0.00987045
0.00570105
0.0040542
0.00452597
0.00621075
0.00831877
0.0105075
0.0125213
0.0135705
0.0126625
0.00969632
0.00608427
0.00401528
0.00454405
0.00658089
0.0088272
0.00657797
-0.000459182
-0.00330447
-0.00273423
8.18154e-05
0.00397898
0.00835469
0.0128846
0.0167586
0.0188484
0.018677
0.0169428
0.014972
0.0134503
0.0117037
0.0101948
0.00264301
-0.0078442
-0.0117024
-0.0112336
-0.0078163
-0.00294948
0.00270205
0.00902893
0.0154417
0.0207526
0.0239329
0.024793
0.0236555
0.0206004
0.015241
0.0107516
-0.00225563
-0.016185
-0.0211462
-0.0210571
-0.0175979
-0.012636
-0.00666566
0.000774058
0.00939043
0.0178441
0.0244954
0.0283492
0.0285678
0.0247093
0.0160558
0.00925178
-0.00444193
-0.0218563
-0.0286333
-0.028495
-0.0224529
-0.0139267
-0.00615749
0.000441127
0.00718704
0.0148413
0.0226516
0.0286115
0.0308885
0.0276448
0.0180574
0.00957002
-0.00711716
-0.0241512
-0.0291144
-0.0291928
-0.0258354
-0.0212677
-0.0165985
-0.0106766
-0.00226858
0.00814338
0.0184001
0.0257962
0.0281258
0.0238334
0.0127734
0.00562318
-0.0105384
-0.0258021
-0.0298171
-0.0296276
-0.0265949
-0.0226837
-0.0191725
-0.015201
-0.0092179
-0.000875195
0.00843553
0.0160787
0.0194039
0.0162877
0.00628651
-0.000296289
-0.0094502
-0.0205792
-0.0228917
-0.0219021
-0.0188218
-0.0156741
-0.0141393
-0.0135598
-0.0117264
-0.00717765
-0.000473129
0.00609746
0.00982
0.00845421
0.00154073
-0.00254609
-0.00587699
-0.0112642
-0.0115152
-0.0100118
-0.00775763
-0.00655123
-0.00773816
-0.0106772
-0.012996
-0.0126044
-0.00927543
-0.00459661
-0.000847864
1.20451e-05
-0.00245119
-0.00307755
-0.000397854
-5.83697e-05
0.00171785
0.00340048
0.00413185
0.00270993
-0.00155151
-0.0077918
-0.0137759
-0.0172914
-0.0175313
-0.0152082
-0.0117091
-0.00837179
-0.00569542
-0.00188365
0.00570659
0.0104746
0.0138244
0.0152743
0.014377
0.010449
0.00353704
-0.0052638
-0.0140207
-0.0207429
-0.0243373
-0.0245387
-0.0214974
-0.0157681
-0.00815812
0.000562682
0.0110508
0.0178106
0.0219896
0.0230972
0.0209444
0.015481
0.00715674
-0.00286501
-0.0132501
-0.0221681
-0.0285566
-0.0311367
-0.0287232
-0.0211644
-0.00984965
0.00327872
0.0142661
0.0204367
0.0245995
0.0254191
0.0230036
0.0174889
0.00944379
-0.000271787
-0.0106706
-0.0206893
-0.0289993
-0.0334881
-0.0318715
-0.0235479
-0.0105682
0.00521767
0.0145754
0.0183182
0.0217188
0.022556
0.0209087
0.0168582
0.0106899
0.00286818
-0.00620137
-0.015949
-0.0249784
-0.0306442
-0.0299881
-0.0222149
-0.00983737
0.00576986
0.0122369
0.0127804
0.0148041
0.0158625
0.0157139
0.0141178
0.0109651
0.00622296
-0.00026909
-0.00837274
-0.0167967
-0.0227517
-0.0231334
-0.0171405
-0.00735678
0.00514453
0.00835291
0.0057489
0.00594003
0.00714598
0.00866402
0.00979766
0.0100614
0.0090028
0.00598682
0.000723338
-0.00581477
-0.0111294
-0.0124215
-0.0089541
-0.00302007
0.0041677
0.00432036
-0.00120759
-0.00303976
-0.00199063
0.000786624
0.00421576
0.00756913
0.0101563
0.0110116
0.00942153
0.00583177
0.0020694
0.000279508
0.0010626
0.00268769
0.0038706
0.00108975
-0.00750557
-0.0111458
-0.0105436
-0.00721216
-0.00236893
0.00320389
0.00880891
0.0133613
0.0157733
0.0158179
0.0143811
0.0127122
0.0111507
0.00860563
0.0046855
-0.00178896
-0.0134057
-0.0183473
-0.0183584
-0.0150582
-0.00978259
-0.0031076
0.00448329
0.0120833
0.0182995
0.0221687
0.0235201
0.0226022
0.0193203
0.0131075
0.00614336
-0.0047978
-0.0196366
-0.0251474
-0.0254986
-0.0223901
-0.0172554
-0.0105027
-0.00198907
0.00758175
0.0167338
0.0239409
0.0280517
0.028297
0.0240001
0.01472
0.00645497
-0.00657718
-0.0238621
-0.0292759
-0.0289426
-0.0243278
-0.017909
-0.0113675
-0.00427105
0.00424781
0.0138853
0.0229123
0.0290464
0.0304338
0.0257025
0.0145904
0.00643327
-0.00572575
-0.0222888
-0.027379
-0.0285776
-0.0268451
-0.0231615
-0.0177699
-0.00982484
0.000710532
0.012414
0.0227882
0.0292823
0.0302468
0.0248428
0.0132988
0.00646439
-0.00783744
-0.0229012
-0.025973
-0.0255569
-0.0228196
-0.0191376
-0.0154422
-0.0110157
-0.00465418
0.00372938
0.0126416
0.0195485
0.0220178
0.0181186
0.00759069
0.00210025
-0.00464762
-0.0154253
-0.0164637
-0.0151437
-0.0125991
-0.0102192
-0.00905868
-0.00834319
-0.00626432
-0.00175217
0.00447319
0.0102474
0.013139
0.0111217
0.00388175
0.00143793
0.000337833
-0.00462587
-0.0037337
-0.00188921
-0.00024668
4.64161e-05
-0.0018385
-0.00504325
-0.00747065
-0.00736655
-0.00455916
-0.000464191
0.00286899
0.00354298
0.00113228
0.00209558
0.00617088
0.00719861
0.00987
0.0118446
0.0121892
0.00999554
0.00486658
-0.00213049
-0.00883603
-0.0131412
-0.0140968
-0.0121193
-0.00844845
-0.00462042
-0.00134333
0.00376953
0.0117021
0.0174006
0.0215195
0.0233903
0.0224139
0.0179441
0.0100955
5.67316e-05
-0.0101288
-0.0183198
-0.023013
-0.023492
-0.0197863
-0.0128854
-0.00404873
0.00592155
0.0154125
0.0233397
0.028423
0.0301844
0.0283608
0.0226569
0.0133919
0.00171051
-0.0106951
-0.0218079
-0.0297773
-0.032764
-0.0294426
-0.0202181
-0.0071612
0.00760094
0.0164761
0.0237204
0.0290687
0.0308974
0.0291547
0.0237074
0.0147518
0.00319204
-0.0097379
-0.0223956
-0.0326467
-0.0377223
-0.0351798
-0.025033
-0.0102017
0.00775328
0.0142604
0.0187941
0.0236167
0.0257038
0.0249699
0.0211876
0.0143145
0.00472075
-0.00691859
-0.0193593
-0.0303641
-0.0366543
-0.0351756
-0.025736
-0.0117123
0.00614444
0.00950587
0.0102737
0.0136817
0.0160021
0.0168589
0.0157432
0.0122217
0.00611131
-0.00251277
-0.0128662
-0.0228786
-0.0292491
-0.0289096
-0.021715
-0.010949
0.00345585
0.00359905
0.000507306
0.00166456
0.00389337
0.00636956
0.00820395
0.00859021
0.00686635
0.00254505
-0.00412827
-0.0115503
-0.0168958
-0.0175546
-0.0134456
-0.00742871
0.000649034
-0.00181616
-0.00843016
-0.0100321
-0.00839616
-0.0047837
-0.000439377
0.0036069
0.00638033
0.00692976
0.00490844
0.00120053
-0.00221689
-0.00348005
-0.0025732
-0.00168169
-0.00110321
-0.00552466
-0.0154161
-0.0196351
-0.0189563
-0.014976
-0.00908175
-0.0023257
0.00424453
0.00938816
0.0121899
0.0126778
0.0117775
0.0104645
0.0086381
0.00488044
-0.00105213
-0.00771306
-0.0206042
-0.0265872
-0.02681
-0.0230335
-0.0166594
-0.00853968
0.000477217
0.00913019
0.0160992
0.020584
0.022411
0.0216163
0.0178326
0.0102927
0.000354131
-0.00944323
-0.0250552
-0.03121
-0.0315699
-0.027967
-0.0217712
-0.0135953
-0.00387468
0.00651115
0.0162006
0.0237709
0.0280239
0.0280514
0.0230128
0.0124387
0.00150356
-0.0081752
-0.024987
-0.0299804
-0.029943
-0.0263434
-0.0207292
-0.0138522
-0.0053029
0.00508168
0.0159745
0.0251636
0.030462
0.0304322
0.0242646
0.0122348
0.00376769
-0.0050597
-0.020009
-0.0255512
-0.0276309
-0.0263729
-0.0219559
-0.0145216
-0.00445557
0.00724464
0.0187295
0.0277293
0.0322677
0.0313843
0.0249577
0.0137201
0.00683176
-0.00698501
-0.0199202
-0.0220428
-0.0212048
-0.0184844
-0.014778
-0.0106041
-0.00542604
0.0013658
0.00945417
0.0173421
0.0228068
0.0238303
0.0189108
0.00836523
0.00277335
-0.00137908
-0.0100126
-0.00998825
-0.00851617
-0.00653178
-0.00475234
-0.00353457
-0.00216862
0.000479658
0.00486427
0.0101756
0.0145736
0.0161042
0.013221
0.00614948
0.00438695
0.00530746
0.00204143
0.00379165
0.00557069
0.00651284
0.00602889
0.00391086
0.00104866
-0.00103036
-0.00109291
0.00100038
0.00416208
0.00670306
0.00698825
0.00489147
0.00669973
0.0119056
0.0140316
0.0172981
0.019225
0.0190435
0.0161853
0.0106624
0.00351462
-0.00342051
-0.00825682
-0.00986527
-0.00827581
-0.0045685
-0.000435193
0.00336863
0.00917331
0.017184
0.0234494
0.0280167
0.0300384
0.0289071
0.0240895
0.0157311
0.00497301
-0.00621312
-0.0155326
-0.02102
-0.0214738
-0.0169444
-0.00900119
0.000638398
0.0111825
0.0195857
0.0277998
0.033431
0.0357017
0.0341779
0.0283816
0.0184434
0.0054897
-0.00868052
-0.021514
-0.030505
-0.0332603
-0.0285878
-0.0177867
-0.00369333
0.0116752
0.0184441
0.0260799
0.0322743
0.0349892
0.0338594
0.0283977
0.0186003
0.00533203
-0.00983335
-0.0245871
-0.0359904
-0.0407754
-0.0367005
-0.0247972
-0.00895179
0.0101206
0.0137422
0.0188823
0.0248298
0.0280137
0.0279988
0.0241927
0.016342
0.00487849
-0.00908962
-0.0235942
-0.0356558
-0.0416132
-0.0386786
-0.0276302
-0.0125818
0.00615826
0.00674005
0.00814633
0.0127526
0.0161354
0.0176397
0.0164714
0.0120342
0.00424269
-0.00638823
-0.0184007
-0.0291207
-0.0350431
-0.0334648
-0.0250573
-0.0136627
0.00145281
-0.000910383
-0.00363119
-0.00147437
0.00159303
0.00458811
0.00645155
0.00623836
0.00334209
-0.00236153
-0.0100668
-0.0177249
-0.0224727
-0.0221358
-0.0173284
-0.011275
-0.00291068
-0.00747486
-0.0141646
-0.0151806
-0.012984
-0.00890722
-0.00427546
-0.000291757
0.00200841
0.00190062
-0.000535548
-0.00409699
-0.00685909
-0.0073979
-0.00627855
-0.00593894
-0.00577125
-0.0116359
-0.0219281
-0.0260807
-0.0250864
-0.0205569
-0.0139772
-0.00665863
0.000131876
0.0052244
0.00801531
0.00878256
0.00839704
0.00747808
0.00548794
0.000806981
-0.0063651
-0.0135257
-0.0269075
-0.0331546
-0.033092
-0.0285639
-0.0210967
-0.0119357
-0.00226226
0.00663201
0.0136707
0.0182849
0.0202999
0.0195254
0.0153219
0.00678295
-0.00518555
-0.0146515
-0.0300725
-0.036246
-0.0360411
-0.0315085
-0.0241134
-0.014895
-0.00450654
0.00611209
0.0157275
0.0230824
0.0270346
0.0265991
0.0208761
0.00936094
-0.00382853
-0.00976248
-0.0249989
-0.0298577
-0.0301692
-0.0269903
-0.021153
-0.0130314
-0.00269926
0.00885309
0.0197446
0.0278311
0.0314073
0.0296561
0.0223998
0.0103101
0.00145365
-0.0056533
-0.0178662
-0.0234075
-0.0255978
-0.0238161
-0.0178782
-0.0087141
0.00238519
0.013727
0.023553
0.0302294
0.0324709
0.0298798
0.022846
0.0126981
0.00590502
-0.00709077
-0.0164182
-0.0177919
-0.0167851
-0.0142034
-0.0104398
-0.0055982
0.00045777
0.00751133
0.0147878
0.0209777
0.0244554
0.0238206
0.0182136
0.0085285
0.00271967
0.000437672
-0.00483711
-0.00435784
-0.0032397
-0.00196214
-0.000517326
0.00127034
0.00375176
0.00711776
0.0111697
0.0151689
0.0178373
0.0178573
0.0143397
0.00816724
0.00642257
0.00854123
0.00763136
0.00952217
0.0106792
0.0107518
0.00985173
0.00823851
0.00645257
0.0051907
0.0051021
0.00638839
0.00842892
0.00999705
0.00987606
0.00843568
0.0102893
0.0158487
0.0189611
0.0221392
0.0235004
0.022678
0.0195986
0.0145104
0.00813772
0.0017303
-0.00314407
-0.00515653
-0.00393684
-0.000407506
0.00371994
0.00780247
0.0135312
0.0208917
0.0269418
0.031386
0.0331898
0.0319175
0.0271615
0.0191075
0.00861011
-0.00262805
-0.0122821
-0.0179659
-0.0181059
-0.0129289
-0.00454253
0.00504652
0.015291
0.0220661
0.0294997
0.0352032
0.0377565
0.0365722
0.0310336
0.0211125
0.00776201
-0.00709825
-0.0206542
-0.0297659
-0.0317201
-0.0257583
-0.0141543
-0.000300016
0.0144502
0.0189392
0.0260557
0.0326734
0.036117
0.0356212
0.0303653
0.0201587
0.00589656
-0.0105485
-0.0262686
-0.0377187
-0.0414394
-0.0357628
-0.0228669
-0.00725218
0.0109055
0.0121823
0.0175138
0.0242047
0.0283412
0.0289759
0.0251307
0.0164286
0.00351506
-0.0119964
-0.0274941
-0.0395061
-0.044298
-0.0397505
-0.027722
-0.0128491
0.00487143
0.00355022
0.00585356
0.0113766
0.0156827
0.0176459
0.0161489
0.010572
0.00114867
-0.0110283
-0.0238899
-0.0344042
-0.039177
-0.0361596
-0.026888
-0.015597
-0.00148245
-0.00507342
-0.00656027
-0.00346898
0.00033971
0.00356604
0.0049433
0.00356037
-0.000870245
-0.0079341
-0.0162898
-0.0236441
-0.0273396
-0.0258118
-0.020345
-0.0143738
-0.00680744
-0.0120488
-0.0175715
-0.0177178
-0.0149541
-0.0107468
-0.00650863
-0.00343872
-0.0023598
-0.00356808
-0.00653512
-0.00986088
-0.0118187
-0.0114912
-0.00994371
-0.00972562
-0.0100611
-0.0162336
-0.0255682
-0.0289558
-0.0274685
-0.0226955
-0.0161642
-0.0092865
-0.0032926
0.000930092
0.00315309
0.00386836
0.00384838
0.00337243
0.00156446
-0.00325974
-0.0107182
-0.0179266
-0.0303585
-0.0358874
-0.0352568
-0.0302219
-0.0223775
-0.0131633
-0.00387803
0.00431326
0.0106208
0.0147306
0.0165236
0.0156824
0.0113994
0.0027834
-0.0094858
-0.0187507
-0.0325232
-0.0378749
-0.0369666
-0.03181
-0.0239268
-0.0143653
-0.00396956
0.00617863
0.0149281
0.0212882
0.0243459
0.0232343
0.0171737
0.00575897
-0.00791133
-0.0113433
-0.0238921
-0.0285149
-0.0290759
-0.0259555
-0.0194877
-0.00998905
0.00145197
0.0130043
0.0226759
0.028886
0.030454
0.027215
0.0194811
0.00830444
-0.000474496
-0.00711903
-0.0160577
-0.0209762
-0.0227414
-0.0202335
-0.0134485
-0.00369898
0.0070776
0.016983
0.0246167
0.0290068
0.0294593
0.0258728
0.0189177
0.010285
0.00405379
-0.00678414
-0.0124016
-0.0135645
-0.0130898
-0.0110742
-0.00725635
-0.00157553
0.00536017
0.012387
0.0183925
0.0225136
0.0239286
0.0219333
0.0162825
0.00832917
0.00307057
0.00197739
-0.000369353
-0.000240453
-0.000144437
0.000247062
0.00167415
0.00448258
0.00827466
0.0122113
0.0156318
0.0181199
0.019132
0.0180151
0.0144592
0.00977576
0.00826387
0.0109682
0.0115331
0.0127557
0.0127315
0.011899
0.0110573
0.0105708
0.0102969
0.0100047
0.00988469
0.0103544
0.0113524
0.0121338
0.0118839
0.0112725
0.0132243
0.0185016
0.021434
0.0238587
0.0242416
0.0228158
0.0200235
0.0161036
0.0112062
0.0058708
0.00136049
-0.00078816
0.00013029
0.00333696
0.00720197
0.0111955
0.0168278
0.0228474
0.0274768
0.0313456
0.0326746
0.0312809
0.0271125
0.0201216
0.0107736
0.000378597
-0.00879163
-0.0140762
-0.013759
-0.00836008
-0.000345975
0.00823602
0.0178867
0.0225014
0.0281844
0.033665
0.0363649
0.0355981
0.0307269
0.021529
0.00875273
-0.00573037
-0.0188696
-0.0272305
-0.0281059
-0.0214065
-0.0101877
0.0020439
0.0153821
0.0174885
0.0234753
0.030276
0.0343735
0.0345898
0.0298515
0.0198288
0.00552012
-0.0112724
-0.0266231
-0.0371219
-0.0393774
-0.0325991
-0.0199705
-0.00600331
0.00961871
0.00920443
0.0144982
0.0217103
0.0267599
0.028101
0.0243918
0.015207
0.00149909
-0.0146264
-0.0300378
-0.0410314
-0.044221
-0.0384097
-0.0264685
-0.0131202
0.00194458