/*--------------------------------*- C++ -*----------------------------------*\
| =========                 |                                                 |
| \\      /  F ield         | OpenFOAM: The Open Source CFD Toolbox           |
|  \\    /   O peration     | Version:  3.0.0                                 |
|   \\  /    A nd           | Web:      www.OpenFOAM.org                      |
|    \\/     M anipulation  |                                                 |
\*---------------------------------------------------------------------------*/
FoamFile
{
    version     2.0;
    format      ascii;
    class       surfaceScalarField;
    location    "3.75";
    object      phi;
}
// * * * * * * * * * * * * * * * * * * * * * * * * * * * * * * * * * * * * * //

dimensions      [0 3 -1 0 0 0 0];

internalField   nonuniform List<scalar> 
11520
(
-0.000224472
-0.000654761
0.000205043
-0.000104552
-0.000517828
0.000202829
-1.23047e-05
-0.000335627
0.000181438
3.52764e-05
-0.000100977
0.000121297
3.00366e-05
0.000170226
1.94693e-05
-2.34575e-05
0.00043682
-0.000102369
-0.000111619
0.000637486
-0.000209018
-0.00022019
0.000718524
-0.00027484
-0.000334683
0.000662091
-0.000294577
-0.000438099
0.000488543
-0.000272253
-0.000514387
0.000242333
-0.00021484
-0.000552694
-2.51476e-05
-0.000133765
-0.000552305
-0.000266211
-4.51109e-05
-0.000514218
-0.000452467
3.60692e-05
-0.000443808
-0.000568721
0.000101988
-0.000600599
0.000149439
-0.000331218
-0.00068901
0.000131667
-0.000239285
-0.000551552
0.000116198
-0.000158867
-0.000362711
9.43103e-05
-0.000105585
-0.000113965
4.9185e-05
-9.15262e-05
0.000176029
-2.53549e-05
-0.000122513
0.000462237
-0.0001189
-0.00019371
0.000677749
-0.000206152
-0.00028797
0.000763073
-0.000261118
-0.000382198
0.000699162
-0.000270882
-0.000458066
0.000511453
-0.000236369
-0.000507757
0.000251754
-0.000168937
-0.000532495
-2.35546e-05
-8.72261e-05
-0.000534528
-0.000269669
-1.05721e-05
-0.000514689
-0.000459847
4.74477e-05
-0.000473911
-0.000581757
8.55875e-05
-0.000616363
0.000108286
-0.000400105
-0.000692856
3.12734e-05
-0.000331317
-0.000568524
5.84226e-06
-0.000264883
-0.000385768
-1.10748e-05
-0.000213267
-0.000137036
-3.5576e-05
-0.000185885
0.000157594
-7.68225e-05
-0.000188787
0.000452472
-0.000132927
-0.000222312
0.00067923
-0.000188238
-0.000277471
0.000773714
-0.000219822
-0.000338808
0.000713204
-0.000212151
-0.000393655
0.00052553
-0.00016547
-0.000437188
0.000267407
-9.45064e-05
-0.000469743
-3.31479e-06
-2.1855e-05
-0.000490489
-0.000245246
3.16665e-05
-0.000495726
-0.000436037
5.69287e-05
-0.000482397
-0.000563957
5.84418e-05
-0.000605345
5.08605e-05
-0.000415947
-0.00066713
-7.2279e-05
-0.000370346
-0.000568439
-0.000104811
-0.000317792
-0.000403344
-0.000116527
-0.000267409
-0.000168467
-0.000119228
-0.00022542
0.000115678
-0.00012455
-0.000197455
0.000405886
-0.000137765
-0.000189067
0.000637584
-0.000152912
-0.00020209
0.000746144
-0.000153825
-0.00023174
0.000703256
-0.000125937
-0.000270818
0.000533136
-6.89459e-05
-0.000314586
0.000292342
9.03263e-07
-0.000359967
3.74676e-05
5.87431e-05
-0.000401829
-0.000193952
8.42221e-05
-0.000432296
-0.000383072
7.18624e-05
-0.000445101
-0.000517738
3.28971e-05
-0.0005715
-9.19248e-06
-0.000373458
-0.000614227
-0.00016038
-0.00034907
-0.000549175
-0.000201396
-0.000309439
-0.000412158
-0.000208555
-0.000260406
-0.00020408
-0.000191255
-0.000206034
5.58591e-05
-0.000162749
-0.000151995
0.000329388
-0.000133553
-0.000107833
0.000559231
-0.00010633
-8.42367e-05
0.000684191
-7.34564e-05
-8.6152e-05
0.000670288
-2.44124e-05
-0.000111471
0.000532667
4.15105e-05
-0.000155341
0.000322584
0.000107733
-0.000211558
9.35271e-05
0.00014881
-0.000271447
-0.000121111
0.00014531
-0.000323804
-0.000305389
9.54803e-05
-0.000359043
-0.000446543
1.64583e-05
-0.000518573
-6.02989e-05
-0.000275793
-0.00053951
-0.000218692
-0.000268987
-0.000510961
-0.000270441
-0.000241426
-0.000409063
-0.000276138
-0.00019644
-0.000237102
-0.000244082
-0.000136739
-1.14303e-05
-0.000188547
-6.76624e-05
0.000235818
-0.000123528
-3.41852e-07
0.000456216
-5.81472e-05
5.08991e-05
0.000594792
6.02048e-06
7.21211e-05
0.000614156
7.67457e-05
6.03238e-05
0.000518694
0.00015048
1.96548e-05
0.000350143
0.000212653
-4.18862e-05
0.000155749
0.000238441
-0.000113071
-3.56903e-05
0.000209705
-0.000180496
-0.000210883
0.000127579
-0.000231689
-0.000356868
1.36672e-05
-0.000451029
-9.69056e-05
-0.000135583
-0.000452703
-0.000238632
-0.000140664
-0.00045766
-0.00030255
-0.000123553
-0.0003929
-0.000310716
-8.58678e-05
-0.000261033
-0.000271623
-2.93863e-05
-7.463e-05
-0.00019973
4.1398e-05
0.000140344
-0.000110521
0.000116617
0.000343901
-1.70892e-05
0.000180543
0.000489072
7.36184e-05
0.000216758
0.000538411
0.000160467
0.000217127
0.000487369
0.000240439
0.000183452
0.000365888
0.000299193
0.00012428
0.000212314
0.000313954
5.17152e-05
4.96861e-05
0.000268107
-2.03332e-05
-0.000111444
0.000164195
-7.78622e-05
-0.000259027
2.58155e-05
-0.000375204
-0.000111597
2.76143e-05
-0.000366535
-0.000218703
1.82939e-05
-0.000397155
-0.000292715
2.80722e-05
-0.000365711
-0.000306719
5.64481e-05
-0.000271737
-0.000269633
0.000102432
-0.000123903
-0.000194741
0.000162587
5.74476e-05
-9.66e-05
0.000229556
0.000239956
9.79492e-06
0.000289467
0.000383484
0.00011553
0.000327508
0.000453916
0.000212276
0.000333505
0.000441121
0.000294897
0.000307463
0.0003642
0.000350404
0.00025757
0.000251564
0.000359483
0.000195197
0.000119986
0.000307602
0.000132224
-2.29653e-05
0.00019703
8.1127e-05
-0.000167438
5.00113e-05
-0.000300783
-0.000100527
0.00018904
-0.00029443
-0.000164837
0.000184648
-0.000340506
-0.000241905
0.000192182
-0.000332809
-0.000262992
0.000211565
-0.000268136
-0.000236521
0.0002427
-0.00015238
-0.000172775
0.000283362
-1.24294e-06
-8.2663e-05
0.000328432
0.000159249
2.10221e-05
0.000368294
0.000295274
0.000126796
0.00039216
0.000376407
0.0002237
0.000392033
0.000390062
0.000303454
0.000368708
0.000346892
0.000354456
0.000330776
0.000266607
0.000361983
0.000288241
0.000161336
0.00031493
0.000248793
3.67786e-05
0.000214623
0.000219383
-0.0001
7.87022e-05
-0.000240708
-6.48986e-05
0.000322533
-0.000249334
-8.94152e-05
0.000332412
-0.000299399
-0.000157954
0.000344142
-0.000301295
-0.000184037
0.000357543
-0.000252079
-0.000174387
0.000373021
-0.000156766
-0.000134352
0.000389111
-2.77807e-05
-6.83137e-05
0.000402892
0.000113757
1.60411e-05
0.000409701
0.000239243
0.000107829
0.000404726
0.000321747
0.000194385
0.000385542
0.000347788
0.000264954
0.000356671
0.00032198
0.000309146
0.000328439
0.000257868
0.000317174
0.000309849
0.000166135
0.00028269
0.000304004
5.36108e-05
0.000206973
0.000309443
-7.35472e-05
0.000101862
-0.000208486
-1.1481e-05
0.000404333
-0.000240454
-6.40876e-06
0.000436197
-0.000283279
-5.45002e-05
0.000459197
-0.000278317
-8.04852e-05
0.000472045
-0.000227759
-9.00091e-05
0.000474461
-0.000137517
-8.24972e-05
0.000464759
-1.8725e-05
-5.33199e-05
0.000441974
0.000110601
-2.03417e-06
0.000407136
0.000225454
6.35909e-05
0.00036318
0.00030168
0.000130582
0.000315655
0.000325626
0.000186447
0.000274656
0.000298317
0.000222029
0.000252401
0.000230589
0.000232067
0.000256488
0.000135183
0.000214961
0.000285798
2.33972e-05
0.000172767
0.000330848
-9.60242e-05
0.000112479
-0.000213709
4.6495e-05
0.000419691
-0.00026987
7.18533e-05
0.000477758
-0.000294127
5.2748e-05
0.000517632
-0.000268196
3.21378e-05
0.000536325
-0.00020062
4.9991e-06
0.000530458
-9.92446e-05
-2.39032e-05
0.000497012
2.44868e-05
-3.91513e-05
0.000436483
0.000151346
-3.00654e-05
0.000356655
0.000257676
1.23178e-06
0.000270026
0.000321067
4.24276e-05
0.00019158
0.00032852
8.04851e-05
0.000137282
0.000280873
0.000107947
0.000119666
0.000190407
0.000123187
0.000142899
7.53947e-05
0.000127572
0.000201344
-4.64014e-05
0.000122899
0.000279892
-0.000161298
0.000111838
-0.00025672
9.92123e-05
0.000368282
-0.000331431
0.000140455
0.000450949
-0.000327366
0.0001486
0.000509808
-0.000271031
0.000135591
0.000538893
-0.000174738
9.43117e-05
0.000530298
-4.75074e-05
3.14656e-05
0.000476904
9.60489e-05
-2.96289e-05
0.000381544
0.000231457
-6.55956e-05
0.000259532
0.000332349
-7.14765e-05
0.000134244
0.00037694
-5.78055e-05
3.03123e-05
0.000354315
-3.67195e-05
-3.24812e-05
0.000269213
-1.33305e-05
-4.38568e-05
0.000141142
1.23861e-05
-5.37516e-06
-3.39846e-06
4.20778e-05
7.2179e-05
-0.000140223
7.45249e-05
0.000171297
-0.00025225
0.000107611
-0.000326665
0.000139854
0.00026347
-0.000411514
0.000194129
0.000364184
-0.000372875
0.000219642
0.000439167
-0.000283202
0.000212059
0.000479162
-0.000152913
0.000160863
0.000471088
9.85034e-06
7.06051e-05
0.000402864
0.000186863
-3.0258e-05
0.00027863
0.000342811
-0.000107215
0.000122315
0.000441699
-0.000147151
-3.04334e-05
0.000460333
-0.000157487
-0.000147077
0.00039401
-0.000147892
-0.000208245
0.00025859
-0.000121556
-0.000210246
8.55536e-05
-7.89309e-05
-0.00016118
-9.01013e-05
-2.29187e-05
-7.53528e-05
-0.00024077
4.06576e-05
3.0815e-05
-0.000349608
0.000105362
-0.000407123
0.000165522
0.000127657
-0.000496231
0.000223237
0.000236836
-0.000421164
0.000252551
0.000319552
-0.000298965
0.000246113
0.000364019
-0.00013407
0.000189167
0.000353889
6.83174e-05
8.12646e-05
0.000274753
0.000287446
-4.98487e-05
0.000130374
0.000474982
-0.000161918
-4.58202e-05
0.000574188
-0.000229973
-0.000206087
0.000556536
-0.000253946
-0.000315925
0.000433573
-0.000241944
-0.000364119
0.000242502
-0.000200597
-0.000355869
2.73761e-05
-0.000136657
-0.000303061
-0.000173644
-5.88546e-05
-0.00021898
-0.000334099
2.3588e-05
-0.000116027
-0.000440004
0.000102905
-0.000485508
0.000172249
-4.4224e-06
0.000206289
0.000100007
0.00023072
0.000173048
0.000226063
0.000201597
0.000170547
0.000172769
5.49786e-05
8.29194e-05
-9.94311e-05
-5.54301e-05
-0.00024326
-0.000211238
-0.000331564
-0.000346997
-0.000350975
-0.000437071
-0.00031444
-0.00047366
-0.000243128
-0.000461751
-0.000156109
-0.000410695
-6.73439e-05
-0.000332203
1.50797e-05
-0.000236572
8.77405e-05
0.000148424
-0.000144957
-0.000760156
0.000151558
-3.05106e-05
-0.000603743
0.000147855
5.25476e-05
-0.00038005
0.000130893
8.93244e-05
-9.38859e-05
8.58721e-05
7.31311e-05
0.000220265
9.86592e-06
1.06338e-05
0.000503151
-7.98442e-05
-8.47692e-05
0.00069234
-0.000155617
-0.00019594
0.000750235
-0.000202436
-0.00030847
0.000676111
-0.000217755
-0.000406848
0.000493899
-0.000203212
-0.000476376
0.000240814
-0.000160951
-0.000506495
-4.07892e-05
-9.79485e-05
-0.000496608
-0.000307046
-2.77289e-05
-0.000449258
-0.000523766
3.55946e-05
-0.000371665
-0.00066613
8.42318e-05
-0.000710881
0.000118015
-0.000245611
-0.000786379
7.262e-05
-0.000164537
-0.000630378
6.17591e-05
-9.37911e-05
-0.000407254
5.07687e-05
-4.56984e-05
-0.000116975
2.41818e-05
-3.4242e-05
0.000209521
-2.60679e-05
-6.9559e-05
0.000512917
-9.33494e-05
-0.000147659
0.000721865
-0.000157577
-0.000248579
0.000788557
-0.00019852
-0.000346442
0.000709223
-0.000206132
-0.000421643
0.000512969
-0.000180238
-0.00046555
0.000244183
-0.000128399
-0.000479531
-4.88907e-05
-6.51436e-05
-0.000467889
-0.000321861
-7.3986e-06
-0.000436223
-0.000540919
3.29344e-05
-0.00038799
-0.000683707
5.49306e-05
-0.000726206
6.65019e-05
-0.000308579
-0.000781296
-2.36475e-05
-0.000253227
-0.000638671
-4.12176e-05
-0.000198303
-0.000428404
-4.4848e-05
-0.000152313
-0.000148719
-4.98231e-05
-0.000125912
0.000174321
-6.80235e-05
-0.000130579
0.000486463
-0.000101805
-0.000170829
0.000713909
-0.000140031
-0.000236153
0.000797433
-0.000163373
-0.00030615
0.000724768
-0.000157699
-0.000363781
0.000526874
-0.000121745
-0.000402019
0.000254538
-6.66227e-05
-0.000421787
-3.9631e-05
-1.13461e-05
-0.000425942
-0.000311307
2.52676e-05
-0.0004159
-0.000528714
3.46819e-05
-0.000392186
-0.000671408
2.243e-05
-0.000714709
5.59434e-06
-0.000325576
-0.000748387
-0.000123515
-0.000293364
-0.000628784
-0.000146909
-0.000253943
-0.000441221
-0.000143131
-0.00021162
-0.000184435
-0.000125835
-0.000172676
0.000120355
-0.000109527
-0.000147341
0.000426816
-0.000103452
-0.000146453
0.000665949
-0.00010584
-0.000171915
0.000772201
-0.000103132
-0.000213296
0.000720918
-8.07054e-05
-0.000257161
0.000537753
-3.59606e-05
-0.000295713
0.000275723
1.82696e-05
-0.000326749
-9.86963e-06
6.0018e-05
-0.00034926
-0.000274704
7.01297e-05
-0.000360791
-0.000488793
4.34726e-05
-0.000359378
-0.000632419
-7.50529e-06
-0.000682091
-5.72865e-05
-0.000293508
-0.000690843
-0.000210913
-0.000281268
-0.000601138
-0.000241283
-0.000255388
-0.000443958
-0.000231698
-0.00021692
-0.000219815
-0.000194343
-0.000168948
5.505e-05
-0.000145416
-0.000120091
0.000343481
-9.90768e-05
-8.44922e-05
0.000585768
-6.17473e-05
-7.40965e-05
0.000716359
-2.80106e-05
-8.89468e-05
0.000697616
1.37396e-05
-0.000120206
0.000543949
6.65744e-05
-0.000159334
0.000305078
0.000117506
-0.000200823
3.72576e-05
0.000143172
-0.00023964
-0.000215448
0.000124871
-0.000270079
-0.000424097
6.12235e-05
-0.000287821
-0.000569198
-2.90211e-05
-0.000630354
-0.000113359
-0.00021578
-0.000614549
-0.000272014
-0.000218494
-0.000557365
-0.000311499
-0.000204058
-0.000435283
-0.000299249
-0.000171311
-0.000249764
-0.00024688
-0.000121085
-1.22193e-05
-0.000171504
-5.97784e-05
0.000248892
-9.02461e-05
-1.26042e-06
0.000484592
-1.54894e-05
3.71908e-05
0.000634025
4.99032e-05
4.64669e-05
0.00065293
0.000112156
2.82144e-05
0.000539829
0.000172853
-9.41783e-06
0.000335801
0.000219562
-5.78754e-05
9.48478e-05
0.000229308
-0.000108414
-0.000139938
0.000184734
-0.000152568
-0.000340272
8.7908e-05
-0.000183952
-0.000486867
-3.72801e-05
-0.000563868
-0.000154536
-0.000101781
-0.000528032
-0.000296977
-0.000112793
-0.000501795
-0.000347108
-0.000106992
-0.000415668
-0.000336133
-8.20253e-05
-0.000270164
-0.000276191
-3.71111e-05
-7.2453e-05
-0.000184411
2.39774e-05
0.000156131
-7.88482e-05
9.01759e-05
0.000376473
2.48311e-05
0.000144356
0.000535846
0.000117617
0.00017119
0.000588065
0.000198498
0.000165464
0.000519654
0.00026634
0.0001324
0.000358868
0.000309189
8.23856e-05
0.000152899
0.000305918
2.71586e-05
-5.79847e-05
0.000241381
-2.28497e-05
-0.000246407
0.000120338
-5.98402e-05
-0.000393653
-3.04081e-05
-0.000488373
-0.000173322
3.43331e-05
-0.000442158
-0.000281851
2.31699e-05
-0.000441617
-0.000341729
2.43191e-05
-0.000387644
-0.000335892
4.03833e-05
-0.000278387
-0.000277474
7.34586e-05
-0.000117926
-0.000182343
0.000122581
7.7544e-05
-6.71352e-05
0.000180304
0.000276729
5.18151e-05
0.000233832
0.000435807
0.000162041
0.00026662
0.000511301
0.000256253
0.000268777
0.000483129
0.000329266
0.000241772
0.000367093
0.000369184
0.0001961
0.000200229
0.000357825
0.000145113
1.74554e-05
0.000283148
9.98653e-05
-0.000155731
0.000151601
6.78267e-05
-0.000301827
-9.77575e-06
-0.000413002
-0.00016513
0.000174101
-0.000369477
-0.000230068
0.000171957
-0.000386459
-0.000294919
0.000173739
-0.000355578
-0.00029684
0.00018136
-0.000273204
-0.000249325
0.000198053
-0.000142305
-0.00016509
0.000225561
2.41404e-05
-5.67678e-05
0.00026107
0.000200816
6.14272e-05
0.00029679
0.000351325
0.000175559
0.000319856
0.000437696
0.000274238
0.000319979
0.000438251
0.000348208
0.000296621
0.000359571
0.000385337
0.000259533
0.000228161
0.000371139
0.000221913
7.24172e-05
0.000297588
0.000193567
-8.47742e-05
0.000172012
0.000179398
-0.000227607
1.86512e-05
-0.000349938
-0.000130117
0.000295935
-0.000322927
-0.00015235
0.000311873
-0.000346986
-0.000213365
0.000320584
-0.000325089
-0.000223236
0.000322268
-0.000255035
-0.00019424
0.000320762
-0.000141293
-0.000133858
0.000320255
4.37954e-06
-4.80452e-05
0.000322644
0.000160927
5.35411e-05
0.00032602
0.000298191
0.000157587
0.00032378
0.000384107
0.000250214
0.000309565
0.000398395
0.000319025
0.000284107
0.000342166
0.000352008
0.000256798
0.000233708
0.000338935
0.000239205
9.61835e-05
0.000276516
0.000238186
-4.93941e-05
0.000172613
0.000253813
-0.000188082
4.67103e-05
-0.000312389
-7.47676e-05
0.000378228
-0.000312428
-6.38408e-05
0.000419282
-0.000332208
-0.000110332
0.000441436
-0.000302311
-0.000125417
0.000441944
-0.000226628
-0.000118924
0.000423754
-0.000113937
-9.16638e-05
0.000392612
2.27868e-05
-4.05844e-05
0.000355104
0.000164937
3.14633e-05
0.000316098
0.000287378
0.00011341
0.000277059
0.000363588
0.00019014
0.00023862
0.000375874
0.000247407
0.000205482
0.00032303
0.000274303
0.000187123
0.000218917
0.000265217
0.000192221
8.46299e-05
0.000221417
0.000223335
-5.84876e-05
0.000150747
0.000274904
-0.000194224
6.70513e-05
-0.000311358
-1.09268e-05
0.000405241
-0.000341687
2.10945e-05
0.000474089
-0.000345585
-2.72293e-06
0.000514569
-0.000291982
-1.86714e-05
0.000520098
-0.000192972
-3.41855e-05
0.000490015
-6.38084e-05
-4.39492e-05
0.000429898
7.84133e-05
-3.46607e-05
0.000350766
0.000214411
-4.0744e-07
0.00026549
0.000322656
5.12299e-05
0.000185075
0.000381495
0.000104935
0.000118794
0.00037647
0.00014617
7.61998e-05
0.000307099
0.000166473
6.61631e-05
0.000187462
0.000164679
9.2973e-05
4.04446e-05
0.000144947
0.000153857
-0.000109934
0.000113461
0.000237992
-0.000244531
7.80109e-05
-0.000348216
4.88394e-05
0.00037294
-0.000404573
9.30704e-05
0.000466087
-0.00038281
9.2677e-05
0.000525939
-0.000295494
7.92503e-05
0.000541651
-0.000160332
4.59613e-05
0.000506565
1.38286e-06
1.36029e-06
0.000423099
0.000164309
-3.20584e-05
0.000306358
0.000303789
-3.82325e-05
0.000178236
0.000399448
-2.0147e-05
6.0174e-05
0.000434113
7.63866e-06
-2.99091e-05
0.000397692
3.2142e-05
-7.87411e-05
0.00029412
4.84801e-05
-8.0025e-05
0.000142598
5.85334e-05
-3.51244e-05
-2.86103e-05
6.62321e-05
4.73264e-05
-0.000191836
7.39762e-05
0.000153073
-0.000325715
8.30483e-05
-0.00041387
9.59117e-05
0.000289559
-0.000487753
0.000145956
0.000398375
-0.000433896
0.000161913
0.000473677
-0.000310264
0.000151527
0.000501652
-0.000134183
0.000106739
0.000468403
7.03836e-05
3.48537e-05
0.000370174
0.000268451
-3.61718e-05
0.00022387
0.000423041
-8.01629e-05
6.15147e-05
0.000508653
-9.40012e-05
-8.35764e-05
0.000511607
-8.98902e-05
-0.000186275
0.00043021
-7.77113e-05
-0.000233601
0.000279006
-5.91163e-05
-0.000224673
8.69401e-05
-3.22007e-05
-0.000167313
-0.000111939
3.04877e-06
-7.42687e-05
-0.000287931
4.37096e-05
3.94813e-05
-0.000419748
8.56456e-05
-0.000492992
0.000125919
0.000172994
-0.000578296
0.000173496
0.00028671
-0.000489435
0.000194374
0.000368248
-0.000331157
0.000185468
0.0004033
-0.000116212
0.000136143
0.000373697
0.000133089
4.8162e-05
0.000268898
0.00037527
-5.18675e-05
0.00010416
0.000555904
-0.000130043
-7.80081e-05
0.000633097
-0.000172249
-0.000231801
0.000595061
-0.000183607
-0.000329945
0.000458149
-0.000171738
-0.000366367
0.00025523
-0.000140399
-0.000347868
2.46175e-05
-9.28328e-05
-0.000285976
-0.000198018
-3.46672e-05
-0.000193509
-0.000383803
2.69925e-05
-8.31276e-05
-0.000513001
8.57771e-05
-0.000573467
0.000136887
5.8332e-05
0.000164721
0.000162674
0.000181213
0.000231449
0.000173668
0.000250925
0.000127392
0.000208792
3.5733e-05
0.000103659
-8.22072e-05
-4.66206e-05
-0.000187414
-0.000206767
-0.000249789
-0.00033995
-0.000263134
-0.00042411
-0.000236692
-0.000453834
-0.00018335
-0.000434601
-0.000115633
-0.000375487
-4.46991e-05
-0.000288484
2.11648e-05
-0.000185252
7.78002e-05
0.000123883
-2.09963e-05
-0.000742877
0.000112216
7.33228e-05
-0.00059503
0.000114859
0.000133876
-0.000363836
0.000106658
0.000149945
-6.43719e-05
7.83104e-05
0.000116487
0.00025867
2.72651e-05
4.05103e-05
0.000536328
-3.47587e-05
-6.13922e-05
0.000705985
-8.97442e-05
-0.000171547
0.000741667
-0.00012864
-0.000274743
0.000653787
-0.000149208
-0.00035714
0.000470044
-0.000148692
-0.000406764
0.000223875
-0.000124284
-0.000415692
-4.93595e-05
-7.90311e-05
-0.000385555
-0.000311894
-2.40475e-05
-0.000322401
-0.000530476
2.74009e-05
-0.000236901
-0.000677171
6.64493e-05
-0.000729326
9.13433e-05
-0.000120948
-0.000769287
2.70063e-05
-5.97802e-05
-0.00062093
2.64918e-05
-7.19107e-06
-0.000394686
2.90293e-05
2.88329e-05
-9.83676e-05
2.21536e-05
3.36095e-05
0.000231782
-3.95602e-06
-6.25358e-06
0.000530647
-4.78056e-05
-8.76697e-05
0.000725248
-9.54232e-05
-0.000188422
0.000774581
-0.000130682
-0.000281406
0.0006844
-0.00014376
-0.000347375
0.000487367
-0.000131593
-0.000378235
0.000224034
-9.76984e-05
-0.000375977
-6.3902e-05
-5.28588e-05
-0.000347724
-0.000335864
-1.16817e-05
-0.000303259
-0.000556954
1.49471e-05
-0.00024999
-0.000701311
2.58016e-05
-0.000747801
2.79578e-05
-0.000188912
-0.000763902
-6.57689e-05
-0.000152488
-0.0006257
-7.28721e-05
-0.000113652
-0.000416116
-6.22545e-05
-7.58492e-05
-0.000138071
-4.79218e-05
-5.00403e-05
0.000181522
-4.35732e-05
-5.24844e-05
0.000487266
-5.59802e-05
-9.21559e-05
0.000704511
-7.96231e-05
-0.00015859
0.000776532
-9.88894e-05
-0.000228604
0.000696524
-9.98091e-05
-0.00028261
0.000497808
-7.81795e-05
-0.000312079
0.000227915
-4.10337e-05
-0.000318237
-6.52682e-05
-3.82249e-06
-0.000307232
-0.000338401
1.67999e-05
-0.000285679
-0.000556536
1.27109e-05
-0.000258057
-0.000696048
-1.04541e-05
-0.000738045
-3.65701e-05
-0.000222162
-0.000730875
-0.0001633
-0.000207128
-0.000610587
-0.000177057
-0.000181839
-0.000425467
-0.000159069
-0.000146017
-0.0001761
-0.000123629
-0.000105758
0.000118572
-8.68365e-05
-7.543e-05
0.000414838
-6.13524e-05
-7.1567e-05
0.000645095
-5.02872e-05
-9.82463e-05
0.000744118
-4.40383e-05
-0.000142341
0.000688171
-2.82578e-05
-0.000186002
0.000503091
2.41661e-06
-0.000218441
0.000239364
3.92593e-05
-0.000237545
-4.97994e-05
6.36532e-05
-0.000245876
-0.000317962
5.8022e-05
-0.000246561
-0.000530097
1.77182e-05
-0.000241556
-0.000664245
-4.43131e-05
-0.000705017
-0.00010295
-0.000218101
-0.000673073
-0.000252694
-0.000220305
-0.000576389
-0.000273277
-0.000206564
-0.000421627
-0.000249278
-0.000174052
-0.000208231
-0.000194725
-0.00012543
5.18315e-05
-0.000127297
-7.22138e-05
0.000326105
-6.35606e-05
-3.33744e-05
0.000558179
-1.36702e-05
-2.38236e-05
0.00068254
2.4017e-05
-4.2003e-05
0.000660055
6.00349e-05
-7.45462e-05
0.000502283
9.99255e-05
-0.000109045
0.000257045
0.000134324
-0.000139684
-1.88949e-05
0.000142906
-0.00016504
-0.00027613
0.000108396
-0.000184816
-0.000479316
3.02187e-05
-0.000198666
-0.000607869
-7.15476e-05
-0.0006509
-0.000164063
-0.000177136
-0.000596115
-0.000320122
-0.000191002
-0.000526079
-0.000347943
-0.000186629
-0.00040517
-0.000320079
-0.000159781
-0.00023149
-0.00025047
-0.000110761
-1.09924e-05
-0.000157699
-4.76466e-05
0.000233297
-6.05529e-05
1.25462e-05
0.000456465
2.60311e-05
5.02159e-05
0.000598592
9.61806e-05
5.63093e-05
0.000612076
0.000154041
3.66981e-05
0.000491811
0.000202936
3.14855e-06
0.000276717
0.000233439
-3.53611e-05
2.35364e-05
0.000225386
-7.3167e-05
-0.00021668
0.00016309
-0.000106759
-0.000407966
5.01493e-05
-0.000133658
-0.000530961
-8.72897e-05
-0.00057977
-0.000211038
-0.000103348
-0.000508343
-0.000354311
-0.00012205
-0.000465129
-0.000389356
-0.000124388
-0.000378575
-0.00036039
-0.000105647
-0.000244476
-0.000281945
-6.43312e-05
-6.3964e-05
-0.000172755
-4.8184e-06
0.000147024
-5.20879e-05
6.05964e-05
0.000353083
6.27987e-05
0.000113209
0.000502865
0.000160732
0.00013776
0.000547296
0.000238728
0.000131524
0.000468523
0.000295863
0.000102518
0.000292641
0.000322272
6.15553e-05
7.10207e-05
0.000299396
1.78947e-05
-0.000146082
0.000214443
-2.19997e-05
-0.000322737
7.50037e-05
-5.39646e-05
-0.000440696
-8.87076e-05
-0.000498163
-0.000235984
-4.12671e-06
-0.00042071
-0.000348629
-1.98187e-05
-0.00040131
-0.000389856
-2.55559e-05
-0.000345567
-0.000363162
-1.67573e-05
-0.000246491
-0.000284258
9.75001e-06
-0.000101955
-0.00017086
5.3631e-05
7.67151e-05
-4.07071e-05
0.000108024
0.000261331
8.9174e-05
0.000159227
0.000408956
0.000204748
0.000191079
0.000474383
0.000297314
0.000194573
0.00043352
0.000360776
0.000172393
0.00030004
0.000383965
0.000134876
0.00011562
0.000350743
9.36213e-05
-7.39666e-05
0.000252287
5.72016e-05
-0.000234243
9.95267e-05
3.04777e-05
-0.000348028
-7.57206e-05
-0.000415906
-0.000233637
0.000108727
-0.000346029
-0.000303086
0.00010436
-0.000344074
-0.000347788
9.95518e-05
-0.000310627
-0.000326972
9.77105e-05
-0.000236793
-0.000257181
0.000103859
-0.000119728
-0.000153466
0.00012194
3.16002e-05
-2.97333e-05
0.000151242
0.000194107
9.93486e-05
0.000184405
0.000332208
0.000219143
0.00020877
0.000407023
0.000317233
0.000213552
0.000393974
0.000382972
0.000197335
0.000297906
0.000403688
0.000168411
0.000149551
0.000366132
0.000138621
-1.25929e-05
0.000266005
0.000117004
-0.00015718
0.000116566
0.000107557
-0.00026811
-5.18189e-05
-0.000346036
-0.000202821
0.000219106
-0.000297581
-0.000225749
0.000234044
-0.00030358
-0.000268798
0.000235111
-0.000278551
-0.000256379
0.000223616
-0.000214978
-0.00020456
0.000206138
-0.000112545
-0.000123562
0.000191057
1.98532e-05
-2.12164e-05
0.000184085
0.000162729
9.18906e-05
0.000184991
0.000286845
0.000202045
0.000187184
0.000360197
0.000294846
0.000182479
0.000361049
0.000356654
0.00016847
0.000289604
0.000374319
0.00015126
0.000167534
0.000338163
0.000140831
2.58468e-05
0.000248506
0.000144588
-0.000107802
0.000119479
0.000163967
-0.000217914
-2.28657e-05
-0.000302669
-0.000148321
0.00030764
-0.00028574
-0.000131423
0.000347895
-0.000288617
-0.000165551
0.000360332
-0.000254664
-0.000161741
0.000342647
-0.000182522
-0.000133696
0.000301694
-7.82415e-05
-8.50148e-05
0.000249867
4.66359e-05
-1.55402e-05
0.000199628
0.000174866
6.95651e-05
0.00015862
0.000282926
0.000158337
0.00012786
0.000345474
0.000235623
0.000104689
0.000344932
0.000286696
8.85623e-05
0.000280212
0.000299821
8.39812e-05
0.000167606
0.000269726
9.75324e-05
3.30539e-05
0.000200659
0.00013305
-9.8345e-05
0.000105772
0.000187968
-0.000210429
4.64836e-06
-0.000297045
-8.04803e-05
0.000356883
-0.00031414
-3.717e-05
0.000424265
-0.000303245
-5.54766e-05
0.000452734
-0.000243871
-5.79328e-05
0.00043484
-0.000144022
-5.4792e-05
0.000374908
-1.95351e-05
-4.27236e-05
0.000287801
0.000111589
-1.25061e-05
0.000192947
0.000232102
3.72104e-05
0.000106764
0.000323614
9.67246e-05
3.88895e-05
0.000367216
0.000151068
-6.52891e-06
0.000350079
0.000186441
-2.69571e-05
0.000272619
0.000194494
-1.93231e-05
0.000150098
0.000174554
1.84507e-05
7.30871e-06
0.000132919
8.53793e-05
-0.000131575
7.97623e-05
0.000174182
-0.000248105
2.68846e-05
-0.000331871
-1.23716e-05
0.0003572
-0.000377077
4.31121e-05
0.000447587
-0.000344158
4.32034e-05
0.000493757
-0.000248736
3.79453e-05
0.000482591
-0.000106914
2.00196e-05
0.000412257
5.49518e-05
-2.79248e-06
0.000296956
0.000207312
-1.24814e-05
0.000162717
0.000328422
-3.14135e-07
3.54999e-05
0.000403806
2.68788e-05
-6.61137e-05
0.000421207
5.52614e-05
-0.000131289
0.00037355
7.38456e-05
-0.000154901
0.000265814
7.88985e-05
-0.000136132
0.0001167
7.3162e-05
-7.77467e-05
-4.70369e-05
6.2192e-05
1.32551e-05
-0.000199495
5.08943e-05
0.00012609
-0.000321265
4.33738e-05
-0.000398855
4.4681e-05
0.00030981
-0.000461662
0.000100862
0.000413845
-0.000401749
0.00011547
0.00047476
-0.000268116
0.000109992
0.000475912
-7.94399e-05
7.81125e-05
0.000406517
0.00013108
2.81209e-05
0.000274952
0.000319879
-1.71735e-05
0.000111165
0.000452689
-4.06427e-05
-4.82428e-05
0.000513695
-4.44825e-05
-0.000174508
0.000497463
-3.98816e-05
-0.000251256
0.000406481
-3.38937e-05
-0.000273437
0.00025531
-2.64323e-05
-0.000244335
6.97531e-05
-1.43558e-05
-0.000172191
-0.000120183
4.05154e-06
-6.82322e-05
-0.000287771
2.80267e-05
5.4179e-05
-0.000413139
5.51082e-05
-0.000482768
8.38807e-05
0.000226585
-0.000555947
0.000132488
0.000332837
-0.000466272
0.000152644
0.000400226
-0.000297625
0.000147589
0.000412486
-6.65173e-05
0.000110961
0.000352601
0.000193756
4.5371e-05
0.00021864
0.000429246
-2.72738e-05
3.88975e-05
0.000585573
-8.31854e-05
-0.000139078
0.00063431
-0.00011489
-0.000275145
0.000576871
-0.000126947
-0.000350838
0.000433993
-0.000123559
-0.000365987
0.000235526
-0.000105464
-0.000329543
1.38716e-05
-7.33957e-05
-0.000252983
-0.000200587
-3.08229e-05
-0.000148708
-0.000381629
1.65758e-05
-2.96947e-05
-0.000509437
6.30619e-05
-0.000570702
0.000103834
0.000134449
0.000137679
0.000230383
0.000152714
0.000287211
0.000146732
0.000291159
0.000112791
0.000230953
4.70844e-05
0.000109034
-3.64787e-05
-5.01996e-05
-0.000112562
-0.000207925
-0.000163061
-0.000330073
-0.000183253
-0.000399614
-0.000175326
-0.000414743
-0.000143613
-0.000382366
-9.47691e-05
-0.000311953
-3.76235e-05
-0.000215687
1.87858e-05
-0.000105925
6.80537e-05
0.000106216
0.000124169
-0.000613906
9.02749e-05
0.000190657
-0.000493071
0.000108428
0.000222652
-0.000285198
0.000113544
0.000214196
-9.42576e-06
0.000102845
0.000161934
0.000287162
7.28562e-05
7.39382e-05
0.000533347
2.90633e-05
-3.23314e-05
0.00066983
-1.87567e-05
-0.000137571
0.000679749
-6.38604e-05
-0.000226354
0.000582042
-0.000100312
-0.000286933
0.000407701
-0.000119691
-0.000310768
0.000187447
-0.000114784
-0.000293612
-5.03002e-05
-8.56633e-05
-0.000239868
-0.000276644
-4.14115e-05
-0.000159419
-0.000465545
5.70985e-06
-6.69949e-05
-0.000593702
4.59832e-05
-0.000644291
7.22356e-05
2.47026e-05
-0.00064502
3.69565e-06
6.31036e-05
-0.000522323
1.73423e-05
9.35301e-05
-0.000320697
3.41019e-05
0.000113163
-5.22328e-05
4.53277e-05
0.000109296
0.000247271
3.9802e-05
6.68803e-05
0.000514443
1.35143e-05
-1.22812e-05
0.000679824
-2.62553e-05
-0.000106025
0.000708498
-6.5688e-05
-0.000187908
0.000612472
-9.23063e-05
-0.000240185
0.000426928
-9.85418e-05
-0.000255817
0.000189161
-8.37802e-05
-0.000237243
-6.6178e-05
-5.55547e-05
-0.000193324
-0.000305934
-2.6311e-05
-0.000137395
-0.000500264
-6.26327e-06
-8.12417e-05
-0.000626266
2.21164e-06
-0.000669443
1.58952e-06
-5.23285e-05
-0.00064401
-8.69049e-05
-3.74335e-05
-0.00052733
-8.27604e-05
-1.72051e-05
-0.000343184
-5.99962e-05
1.02973e-05
-9.75649e-05
-3.00921e-05
3.53613e-05
0.000185546
-6.91161e-06
3.90485e-05
0.000456344
-1.56859e-06
7.59844e-06
0.000646116
-1.44651e-05
-5.10283e-05
0.000702409
-3.41739e-05
-0.000113939
0.000621181
-4.56071e-05
-0.000160314
0.000435668
-4.05451e-05
-0.000180296
0.000189847
-2.17375e-05
-0.00017473
-7.4388e-05
-1.17897e-06
-0.000151756
-0.000318596
6.48807e-06
-0.000122549
-0.000510548
-6.21215e-06
-9.5886e-05
-0.000628876
-3.45065e-05
-0.000663182
-6.62624e-05
-0.00010932
-0.000614088