/*--------------------------------*- C++ -*----------------------------------*\
| =========                 |                                                 |
| \\      /  F ield         | OpenFOAM: The Open Source CFD Toolbox           |
|  \\    /   O peration     | Version:  3.0.0                                 |
|   \\  /    A nd           | Web:      www.OpenFOAM.org                      |
|    \\/     M anipulation  |                                                 |
\*---------------------------------------------------------------------------*/
FoamFile
{
    version     2.0;
    format      ascii;
    class       volVectorField;
    location    "3.75";
    object      U;
}
// * * * * * * * * * * * * * * * * * * * * * * * * * * * * * * * * * * * * * //

dimensions      [0 1 -1 0 0 0 0];

internalField   nonuniform List<vector> 
4096
(
(-0.079196 -0.169112 0.0584926)
(-0.0404205 -0.131994 0.0583285)
(-0.0129166 -0.0843322 0.0527402)
(0.00595263 -0.0258002 0.0363193)
(0.0120869 0.0389738 0.00769406)
(0.00434922 0.100243 -0.0280892)
(-0.0148125 0.145192 -0.0609742)
(-0.0414458 0.163626 -0.0820948)
(-0.0714714 0.152022 -0.0884307)
(-0.100541 0.113428 -0.0811991)
(-0.124201 0.0557723 -0.0634041)
(-0.139007 -0.00982094 -0.0392175)
(-0.143742 -0.0716241 -0.0134673)
(-0.138684 -0.120206 0.00978852)
(-0.125407 -0.15034 0.0286588)
(-0.102197 -0.158129 0.04188)
(-0.102181 -0.170599 0.0396977)
(-0.0716156 -0.135612 0.0356779)
(-0.0498816 -0.0882647 0.0294326)
(-0.0319025 -0.0260398 0.0163828)
(-0.0222354 0.0470435 -0.00533378)
(-0.0240438 0.11976 -0.0331342)
(-0.0379249 0.17468 -0.0597402)
(-0.0608005 0.196176 -0.0768959)
(-0.0865594 0.179297 -0.0800777)
(-0.10919 0.130661 -0.0695609)
(-0.125336 0.063757 -0.0492652)
(-0.134609 -0.00670178 -0.0251377)
(-0.137884 -0.0691923 -0.00290565)
(-0.135778 -0.116695 0.0140594)
(-0.129221 -0.146411 0.0253844)
(-0.112117 -0.154384 0.0318391)
(-0.116482 -0.178555 0.0136478)
(-0.0924143 -0.144153 0.00681529)
(-0.0759309 -0.095752 0.00115251)
(-0.0601965 -0.0311388 -0.00707287)
(-0.0491274 0.0446832 -0.0202906)
(-0.0454234 0.119867 -0.0379426)
(-0.0504445 0.176754 -0.0552975)
(-0.0630996 0.199301 -0.065299)
(-0.0792826 0.182343 -0.063152)
(-0.0946242 0.133072 -0.0491548)
(-0.107056 0.0656954 -0.0281118)
(-0.116607 -0.00495854 -0.00681307)
(-0.123552 -0.0678188 0.00908096)
(-0.127433 -0.116643 0.0172748)
(-0.128049 -0.148462 0.0190019)
(-0.116318 -0.157683 0.0175293)
(-0.116173 -0.176042 -0.0134329)
(-0.0998705 -0.146583 -0.0226608)
(-0.0883445 -0.101166 -0.0273021)
(-0.0747916 -0.0382892 -0.0301159)
(-0.0622515 0.0367054 -0.0339936)
(-0.0526903 0.112232 -0.0400474)
(-0.0478519 0.171053 -0.0461245)
(-0.048943 0.196556 -0.0472627)
(-0.0550926 0.182386 -0.0393276)
(-0.0641462 0.135567 -0.0226514)
(-0.0746703 0.070821 -0.00229078)
(-0.0861471 0.00289795 0.0147254)
(-0.0977295 -0.0581005 0.0231111)
(-0.107819 -0.106877 0.0215901)
(-0.115103 -0.140401 0.012896)
(-0.109273 -0.152116 0.00273651)
(-0.1003 -0.165705 -0.0361006)
(-0.0923748 -0.144151 -0.0480204)
(-0.0851365 -0.104822 -0.0519293)
(-0.0735861 -0.0473443 -0.0497543)
(-0.0598588 0.0230861 -0.0447419)
(-0.0453866 0.0959296 -0.0393701)
(-0.0322018 0.155443 -0.0338579)
(-0.0232534 0.185285 -0.0257255)
(-0.0205741 0.177392 -0.0121371)
(-0.0241561 0.137083 0.00653438)
(-0.0330617 0.0785124 0.0254963)
(-0.0461883 0.0159189 0.0378969)
(-0.0617178 -0.0416124 0.0388834)
(-0.0771032 -0.08963 0.0280087)
(-0.0898839 -0.124932 0.00923323)
(-0.090298 -0.140732 -0.00991845)
(-0.0707815 -0.148925 -0.0505347)
(-0.0702838 -0.136792 -0.0657489)
(-0.0665675 -0.105877 -0.0696809)
(-0.0571837 -0.0567702 -0.0638638)
(-0.0434891 0.00589078 -0.0517863)
(-0.0264965 0.0730655 -0.0369028)
(-0.00818971 0.13121 -0.0212911)
(0.00779891 0.165318 -0.00475713)
(0.0174867 0.165989 0.0139077)
(0.0188199 0.135719 0.0341835)
(0.0119737 0.0866477 0.0516989)
(-0.00162467 0.0318762 0.0601319)
(-0.0194698 -0.0205646 0.0550436)
(-0.0383329 -0.0669158 0.036462)
(-0.0547858 -0.103816 0.00916391)
(-0.0606534 -0.12503 -0.0184437)
(-0.0320156 -0.127531 -0.0546632)
(-0.0362579 -0.124817 -0.0733354)
(-0.0351432 -0.103534 -0.0782235)
(-0.0281008 -0.06457 -0.070801)
(-0.0159197 -0.0116723 -0.0545654)
(0.000736361 0.0477407 -0.0334392)
(0.0201788 0.102417 -0.0106698)
(0.0389993 0.139297 0.0120993)
(0.0526783 0.148596 0.0346403)
(0.057754 0.13003 0.055938)
(0.0533692 0.0927893 0.0722562)
(0.0408729 0.0479748 0.0780496)
(0.0230674 0.00230009 0.0692114)
(0.00341552 -0.0411421 0.0458417)
(-0.0142072 -0.0790274 0.0128831)
(-0.0231545 -0.106175 -0.0213371)
(0.0101049 -0.104462 -0.0485125)
(0.00514832 -0.109696 -0.0696594)
(0.00484622 -0.0978276 -0.0761748)
(0.00969144 -0.0692622 -0.0694708)
(0.0192036 -0.026702 -0.0526696)
(0.0329904 0.0239713 -0.0294652)
(0.0498381 0.0735763 -0.00348804)
(0.0670175 0.111029 0.022441)
(0.0805386 0.127077 0.0468383)
(0.0867179 0.119589 0.0681796)
(0.0840455 0.0946875 0.0833785)
(0.0737066 0.0608932 0.0879387)
(0.0584834 0.0232644 0.0781932)
(0.0414125 -0.0159 0.0539089)
(0.025861 -0.0536874 0.0194099)
(0.0177753 -0.0861589 -0.0178483)
(0.0491341 -0.0832297 -0.0341247)
(0.0478976 -0.0939357 -0.0553698)
(0.0476976 -0.0897265 -0.0634669)
(0.0509954 -0.0701557 -0.0595417)
(0.0573776 -0.0369999 -0.0458536)
(0.0666116 0.00519834 -0.0250848)
(0.0779379 0.0490317 -0.000360517)
(0.0895179 0.0851198 0.0251298)
(0.0985039 0.105193 0.0489379)
(0.101998 0.10621 0.0690045)
(0.0987862 0.0917997 0.0827768)
(0.0903153 0.0679825 0.0869988)
(0.0794007 0.0382861 0.0788169)
(0.0681888 0.0042348 0.057653)
(0.058366 -0.032074 0.0265487)
(0.0560133 -0.067931 -0.00854612)
(0.0789859 -0.0674173 -0.0150109)
(0.0850027 -0.0806521 -0.032971)
(0.0867887 -0.0809403 -0.0416544)
(0.0897763 -0.0673868 -0.0417643)
(0.0933961 -0.0412488 -0.0342935)
(0.0973676 -0.0060331 -0.0201405)
(0.101309 0.0323167 -0.000974435)
(0.104318 0.0658935 0.0204495)
(0.105018 0.0873911 0.0411489)
(0.102055 0.0934176 0.0585314)
(0.0954539 0.0857767 0.0703605)
(0.0874506 0.068536 0.07456)
(0.0811006 0.0444004 0.0694452)
(0.0776774 0.0147266 0.0545407)
(0.0765491 -0.0190735 0.0315563)
(0.0842115 -0.0551492 0.00447313)
(0.0948961 -0.0601015 0.00524288)
(0.109776 -0.0728416 -0.00623492)
(0.115545 -0.0735044 -0.0138762)
(0.119917 -0.0618412 -0.018221)
(0.121925 -0.0391373 -0.0189526)
(0.120894 -0.00827919 -0.0146574)
(0.116604 0.025874 -0.00463935)
(0.10916 0.0565859 0.0095796)
(0.0989955 0.0773734 0.0249447)
(0.0869196 0.0847243 0.0384276)
(0.0748478 0.0791891 0.0479586)
(0.0660264 0.0636357 0.0524157)
(0.063578 0.0408386 0.0512601)
(0.0679599 0.0129205 0.0444445)
(0.076473 -0.0184272 0.0328044)
(0.0955343 -0.0512804 0.0183684)
(0.0944824 -0.0629127 0.0242686)
(0.117556 -0.0721941 0.020787)
(0.128929 -0.0690915 0.015606)
(0.136386 -0.0549102 0.00767292)
(0.138364 -0.0314074 -0.0018706)
(0.133322 -0.00133494 -0.00926697)
(0.120887 0.0307905 -0.0107643)
(0.102273 0.0589536 -0.0059487)
(0.0801838 0.0772808 0.00251356)
(0.058115 0.0822771 0.0114099)
(0.040159 0.0739201 0.0188546)
(0.0303468 0.0548343 0.0244439)
(0.0312196 0.0287626 0.0283028)
(0.0421398 -0.000638179 0.0305091)
(0.0589787 -0.0304612 0.031152)
(0.0867162 -0.0578877 0.030632)
(0.0784704 -0.0752602 0.0411057)
(0.107385 -0.0783561 0.0447774)
(0.124814 -0.0683257 0.0422521)
(0.13636 -0.0479369 0.0315671)
(0.139719 -0.019421 0.0138138)
(0.132009 0.0140132 -0.00536044)
(0.112265 0.0470929 -0.0190773)
(0.0830626 0.0735847 -0.024486)
(0.0498162 0.0878319 -0.0234249)
(0.0190085 0.0866774 -0.0188878)
(-0.00333525 0.0705891 -0.0123963)
(-0.0131118 0.0433163 -0.00404319)
(-0.00915404 0.0104262 0.00613535)
(0.00647376 -0.0226131 0.0175226)
(0.0289143 -0.051666 0.0291379)
(0.060284 -0.0733558 0.0401016)
(0.050225 -0.0948474 0.0546942)
(0.0823262 -0.0895088 0.0626202)
(0.104741 -0.070855 0.0616844)
(0.120087 -0.0420267 0.0488963)
(0.125337 -0.00530985 0.0245846)
(0.116178 0.0350202 -0.00471792)
(0.0905711 0.0717812 -0.0294197)
(0.0523911 0.0973876 -0.0441458)
(0.0103844 0.106149 -0.0495556)
(-0.0258463 0.0956955 -0.0479176)
(-0.049311 0.0681231 -0.0403319)
(-0.0571931 0.029673 -0.0273707)
(-0.0503978 -0.0116551 -0.0102839)
(-0.0322163 -0.0488763 0.00896158)
(-0.00734662 -0.0773405 0.0283652)
(0.0233179 -0.0941798 0.0461854)
(0.0147793 -0.119133 0.0621953)
(0.0482365 -0.103695 0.0708341)
(0.0731665 -0.0756655 0.0700451)
(0.090287 -0.0375211 0.0557015)
(0.0960727 0.00852504 0.0268852)
(0.0855462 0.0570553 -0.010205)
(0.0557175 0.0983816 -0.0440888)
(0.0114971 0.122932 -0.066252)
(-0.0345966 0.124991 -0.0751712)
(-0.0706401 0.103611 -0.0725732)
(-0.0909483 0.0634872 -0.0605609)
(-0.0954588 0.0137999 -0.0416321)
(-0.08684 -0.0354173 -0.0187807)
(-0.0685174 -0.0763414 0.00514449)
(-0.0441552 -0.10442 0.0279066)
(-0.0162109 -0.117643 0.0476048)
(-0.0188171 -0.128505 0.057844)
(0.0139162 -0.10729 0.0650566)
(0.0369246 -0.0747022 0.0643278)
(0.0509425 -0.029483 0.0498136)
(0.0522299 0.0290151 0.0183021)
(0.0375294 0.0956233 -0.0258758)
(0.006722 0.153414 -0.0692951)
(-0.0341941 0.180429 -0.0972843)
(-0.0742735 0.16698 -0.103992)
(-0.104182 0.121524 -0.0930179)
(-0.120071 0.0607776 -0.0715158)
(-0.122419 -0.000469259 -0.0458115)
(-0.113566 -0.0527604 -0.0201097)
(-0.0963574 -0.0916865 0.00347937)
(-0.0739153 -0.115833 0.024182)
(-0.0486684 -0.125073 0.0411995)
(-0.0575639 -0.200287 0.0452922)
(-0.020928 -0.157039 0.0441144)
(0.00501558 -0.0967766 0.038888)
(0.0214672 -0.0233538 0.0252125)
(0.0247702 0.0526823 0.00237428)
(0.014005 0.117111 -0.0243957)
(-0.00761972 0.158147 -0.0470832)
(-0.0354022 0.170613 -0.0607321)
(-0.0652461 0.154915 -0.0646776)
(-0.0932128 0.114652 -0.0597691)
(-0.115326 0.0558286 -0.0470907)
(-0.128268 -0.0130102 -0.0288471)
(-0.130727 -0.0814506 -0.00873529)
(-0.123131 -0.138952 0.00954922)
(-0.107396 -0.177352 0.024026)
(-0.0838997 -0.189546 0.0342882)
(-0.0773816 -0.195608 0.0255413)
(-0.0514891 -0.156076 0.0218883)
(-0.0321317 -0.0993725 0.0174612)
(-0.0159874 -0.0253345 0.00815694)
(-0.00717546 0.0581841 -0.00782967)
(-0.00985245 0.135496 -0.0281811)
(-0.0253751 0.188022 -0.0470361)
(-0.0500984 0.203822 -0.0586824)
(-0.0771178 0.18245 -0.0604761)
(-0.100108 0.131578 -0.0526137)
(-0.115499 0.0627176 -0.0374042)
(-0.122659 -0.0117343 -0.0189527)
(-0.122663 -0.0806984 -0.0019068)
(-0.117024 -0.135551 0.0105725)
(-0.107438 -0.171021 0.0180951)
(-0.0907441 -0.181532 0.0223774)
(-0.0894975 -0.20229 0.000382107)
(-0.0712078 -0.163273 -0.00520101)
(-0.0576542 -0.107057 -0.00804041)
(-0.044122 -0.0332153 -0.0118939)
(-0.033741 0.0509647 -0.0194921)
(-0.0301402 0.130669 -0.0308711)
(-0.036237 0.186808 -0.0425495)
(-0.0512308 0.205453 -0.0492063)
(-0.0699941 0.184922 -0.0472262)
(-0.0869655 0.133321 -0.0365372)
(-0.0991888 0.0630682 -0.0203572)
(-0.10636 -0.0127907 -0.00395951)
(-0.109293 -0.0828644 0.00760606)
(-0.108719 -0.138777 0.011969)
(-0.105358 -0.175158 0.0104634)
(-0.0937673 -0.185676 0.00727765)
(-0.0895341 -0.197671 -0.0254989)
(-0.07888 -0.163327 -0.0327325)
(-0.0705149 -0.111662 -0.0337786)
(-0.0597345 -0.0421715 -0.0319027)
(-0.0485317 0.039019 -0.030497)
(-0.0394133 0.118877 -0.0314123)
(-0.0357039 0.178823 -0.0336098)
(-0.0394949 0.202641 -0.0332701)
(-0.0490628 0.185835 -0.0267067)
(-0.0605337 0.136087 -0.0135643)
(-0.0711394 0.0668848 0.00248348)
(-0.0799945 -0.0079041 0.0154214)
(-0.0869452 -0.0769316 0.0200823)
(-0.0916921 -0.132273 0.0150471)
(-0.0939975 -0.168813 0.00341099)
(-0.0874928 -0.180281 -0.00827199)
(-0.077078 -0.185671 -0.0476139)
(-0.073687 -0.158417 -0.0567623)
(-0.0696185 -0.113812 -0.056428)
(-0.0612805 -0.0516898 -0.0494218)
(-0.0497195 0.0231444 -0.0395568)
(-0.0365184 0.099992 -0.0299971)
(-0.0248782 0.162199 -0.0218644)
(-0.0187871 0.19256 -0.0134149)
(-0.0198197 0.182938 -0.00175207)
(-0.0261995 0.138847 0.0136092)
(-0.0354238 0.0738538 0.0288944)
(-0.0459264 0.00240462 0.0377389)
(-0.0565252 -0.064204 0.0350927)
(-0.0659347 -0.118437 0.0205141)
(-0.0729783 -0.155304 -0.00128624)
(-0.071537 -0.16916 -0.0219744)
(-0.0538437 -0.168088 -0.0624747)
(-0.0560994 -0.149162 -0.0741778)
(-0.0552642 -0.113221 -0.0733235)
(-0.0492588 -0.0605305 -0.0625525)
(-0.0384022 0.00538698 -0.0459041)
(-0.0235118 0.0762087 -0.027349)
(-0.00716847 0.13803 -0.00959898)
(0.00607366 0.174383 0.00701226)
(0.0123232 0.174359 0.0239215)
(0.0109 0.139626 0.0413824)
(0.00340441 0.0821934 0.055734)
(-0.00803817 0.016461 0.060645)
(-0.0212369 -0.0463397 0.0513812)
(-0.0340073 -0.0988907 0.028351)
(-0.0443563 -0.136222 -0.00246772)
(-0.0471853 -0.15374 -0.0317568)
(-0.0230005 -0.146621 -0.0678445)
(-0.0281049 -0.136154 -0.0825585)
(-0.0292739 -0.109614 -0.0822562)
(-0.02546 -0.0673259 -0.0696944)
(-0.0164962 -0.0116199 -0.0489118)
(-0.00256548 0.0512467 -0.024158)
(0.014569 0.11011 0.000941638)
(0.0310533 0.150361 0.0243909)
(0.0421487 0.160009 0.046012)
(0.0449419 0.136805 0.0653374)
(0.039613 0.0897446 0.0788715)
(0.0283503 0.0320827 0.0807259)
(0.0141704 -0.0253441 0.0666438)
(-1.27868e-05 -0.0753698 0.0376149)
(-0.0117034 -0.113084 0.000289955)
(-0.0167865 -0.135094 -0.0358335)
(0.0113207 -0.12376 -0.0630838)
(0.00702463 -0.120841 -0.0804921)
(0.00528754 -0.103349 -0.0817228)
(0.00728737 -0.0711793 -0.0697087)
(0.0134174 -0.0256795 -0.0481571)
(0.0240326 0.0284771 -0.0209928)
(0.0382769 0.0824162 0.00794918)
(0.0535238 0.12383 0.0356031)
(0.0655728 0.141027 0.0603919)
(0.0704784 0.129293 0.080886)
(0.0670023 0.0940932 0.0937304)
(0.0569429 0.046332 0.0938296)
(0.0437726 -0.0042197 0.0776072)
(0.0307449 -0.050714 0.0462751)
(0.0203157 -0.0884521 0.00636572)
(0.016303 -0.115061 -0.0331434)
(0.0443668 -0.10259 -0.0493998)
(0.0447397 -0.105417 -0.0680134)
(0.0441099 -0.0953243 -0.0713042)
(0.0450267 -0.0715898 -0.0621459)
(0.0478386 -0.0349664 -0.0434444)
(0.0533323 0.0109461 -0.018133)
(0.0616456 0.0590233 0.010439)
(0.0715022 0.0990848 0.0388319)
(0.0799815 0.120648 0.0643881)
(0.0835011 0.118091 0.0847616)
(0.080275 0.0939903 0.0967299)
(0.0717338 0.0563741 0.096276)
(0.0614197 0.0133448 0.0807958)
(0.0523784 -0.0288855 0.0514973)
(0.0462756 -0.0660513 0.0139881)
(0.0475505 -0.0964068 -0.0238829)
(0.0711181 -0.0865256 -0.0297446)
(0.0793026 -0.0926064 -0.0469095)
(0.0816708 -0.0868743 -0.052006)
(0.0826787 -0.0684438 -0.047476)
(0.082324 -0.0380707 -0.034894)
(0.0816594 0.00122386 -0.0154877)
(0.0818043 0.0436125 0.00857592)
(0.0829107 0.0806588 0.034064)
(0.0837083 0.10341 0.0576318)
(0.0819804 0.106374 0.0762044)
(0.0765672 0.0902912 0.0867464)
(0.069011 0.0606657 0.0864838)
(0.0626857 0.0239388 0.0740661)
(0.0599348 -0.0143738 0.0507339)
(0.0609619 -0.0504599 0.0207072)
(0.0713551 -0.0826103 -0.00985827)
(0.0870459 -0.0787596 -0.00790466)
(0.104561 -0.0851875 -0.0205603)
(0.11178 -0.079647 -0.0264025)
(0.114454 -0.0621789 -0.0273059)
(0.11185 -0.0342986 -0.0231819)
(0.104923 0.00100706 -0.0129051)
(0.0956623 0.0388045 0.00322817)
(0.085769 0.072097 0.022679)
(0.0759395 0.093419 0.0417584)
(0.065997 0.0978592 0.056925)
(0.0563137 0.0852107 0.0654799)
(0.0489844 0.0593093 0.065913)
(0.0469743 0.0255767 0.05813)
(0.0515558 -0.0107284 0.0434412)
(0.061226 -0.0457788 0.0246518)
(0.0821709 -0.0771927 0.00586973)
(0.0894222 -0.0812392 0.0128847)
(0.115529 -0.0850017 0.00686424)
(0.128856 -0.0752191 0.00159951)
(0.134827 -0.0538816 -0.00446563)
(0.131566 -0.0240114 -0.00979301)
(0.11928 0.010748 -0.0105545)
(0.100548 0.0457829 -0.00457495)
(0.0788141 0.0752589 0.00671151)
(0.0571305 0.0930578 0.0195636)
(0.0378177 0.0949976 0.0303115)
(0.0231885 0.0806308 0.0368342)
(0.0158979 0.053213 0.038751)
(0.0180698 0.018127 0.0367817)
(0.0295983 -0.0189162 0.0319905)
(0.0474445 -0.0534518 0.0257848)
(0.0768637 -0.0820381 0.0201904)
(0.0780848 -0.093639 0.0306402)
(0.110225 -0.0919486 0.0312423)
(0.129615 -0.0744512 0.0273561)
(0.139849 -0.0450847 0.01722)
(0.137713 -0.00862265 0.00298296)
(0.121825 0.0296966 -0.00912647)
(0.0947951 0.0645573 -0.0140076)
(0.0620336 0.0906864 -0.0116742)
(0.0293267 0.103074 -0.00564685)
(0.00168004 0.0985137 0.000688649)
(-0.0168116 0.0772709 0.00600536)
(-0.0234401 0.0433441 0.0106752)
(-0.0174601 0.00310066 0.0153931)
(-0.000518974 -0.0368528 0.020385)
(0.0232958 -0.0712646 0.0255801)
(0.056628 -0.0960069 0.0311702)
(0.0553733 -0.11388 0.0439632)
(0.0903422 -0.104408 0.0489825)
(0.114209 -0.0773848 0.0462945)
(0.128425 -0.0375804 0.0334913)
(0.128723 0.00896447 0.0122618)
(0.111502 0.0545144 -0.00976333)
(0.0783285 0.0916583 -0.0246563)
(0.036478 0.114909 -0.0306807)
(-0.00483449 0.120313 -0.0307508)
(-0.0377818 0.106036 -0.0275481)
(-0.0574075 0.0740348 -0.0216737)
(-0.0620774 0.0302507 -0.0128395)
(-0.0529086 -0.0173 -0.00131856)
(-0.032848 -0.0610634 0.0118117)
(-0.00620073 -0.0953428 0.0252449)
(0.0266087 -0.116165 0.0379261)
(0.0253499 -0.140239 0.0507764)
(0.060671 -0.120947 0.0569602)
(0.086272 -0.083523 0.0547272)
(0.102359 -0.032676 0.040746)
(0.10447 0.0247981 0.0152816)
(0.0873586 0.0787592 -0.0143005)
(0.0506471 0.118958 -0.0380266)
(0.00291321 0.139158 -0.0512385)
(-0.042578 0.136602 -0.0550373)
(-0.075775 0.111376 -0.0516276)
(-0.0928628 0.067731 -0.0422937)
(-0.0945666 0.0137549 -0.0281852)
(-0.0835545 -0.0411687 -0.0110348)
(-0.063052 -0.0887776 0.00712431)
(-0.036703 -0.123137 0.0245238)
(-0.00687552 -0.1406 0.0397425)
(-0.00361514 -0.147616 0.046997)
(0.0298371 -0.123709 0.052004)
(0.0527271 -0.0828476 0.0502591)
(0.0652825 -0.0251726 0.036989)
(0.0637219 0.0459528 0.010145)
(0.0447664 0.119048 -0.024737)
(0.00976327 0.174161 -0.0559993)
(-0.0332335 0.193849 -0.0743072)
(-0.0730711 0.174508 -0.0777261)
(-0.101593 0.126005 -0.0693362)
(-0.11582 0.0629743 -0.0534008)
(-0.116408 -0.00172977 -0.0338048)
(-0.105589 -0.0590345 -0.013667)
(-0.0862068 -0.1037 0.00496136)
(-0.0616083 -0.132961 0.0212021)
(-0.0349536 -0.145342 0.0346326)
(-0.0219666 -0.196549 0.0325021)
(0.00827039 -0.155637 0.0320099)
(0.0286967 -0.0927314 0.0285624)
(0.0395971 -0.0149354 0.0191305)
(0.0379793 0.0636746 0.00301125)
(0.0231166 0.126379 -0.0159158)
(-0.00134687 0.162206 -0.0319024)
(-0.0299578 0.169081 -0.0420688)
(-0.0582957 0.149947 -0.0460412)
(-0.0828013 0.109239 -0.0437687)
(-0.100163 0.0522689 -0.0351424)
(-0.107731 -0.0141065 -0.021394)
(-0.104725 -0.0812514 -0.00565248)
(-0.0922644 -0.139412 0.00857272)
(-0.0730555 -0.179711 0.0192327)
(-0.0494222 -0.194687 0.0262853)
(-0.0415514 -0.191172 0.0114948)
(-0.0224861 -0.153776 0.0098398)
(-0.00787769 -0.0957964 0.00866476)
(0.00434464 -0.0192315 0.00440631)
(0.0108447 0.0661477 -0.00525278)
(0.00680971 0.142436 -0.0191768)
(-0.00984501 0.190518 -0.0329798)
(-0.0350717 0.200971 -0.0421265)
(-0.0613896 0.176327 -0.0442749)
(-0.0824916 0.125249 -0.0391235)
(-0.0949895 0.058126 -0.028086)
(-0.0983249 -0.0145462 -0.0143559)
(-0.0939313 -0.0829004 -0.00194264)
(-0.084227 -0.1383 0.00625855)
(-0.0718292 -0.174537 0.0100467)
(-0.0564698 -0.186507 0.0115168)
(-0.0547782 -0.197859 -0.0126239)
(-0.0435129 -0.16054 -0.0158211)
(-0.0342867 -0.104114 -0.0148721)
(-0.0239412 -0.0297826 -0.0135455)
(-0.014578 0.0544703 -0.0151828)
(-0.0104833 0.132967 -0.0209476)
(-0.0160954 0.18612 -0.028639)
(-0.031247 0.201092 -0.0337799)
(-0.0502782 0.178229 -0.0328772)
(-0.0668934 0.12648 -0.0253313)
(-0.0775857 0.0573147 -0.0134793)
(-0.0818055 -0.0177336 -0.00171473)
(-0.0808059 -0.0879107 0.00546352)
(-0.0764587 -0.144277 0.00590174)
(-0.0705169 -0.180551 0.00110305)
(-0.0609198 -0.191543 -0.00453859)
(-0.059443 -0.193184 -0.0377259)
(-0.0551017 -0.159465 -0.0424165)
(-0.0506109 -0.108329 -0.0394539)
(-0.0425678 -0.0401536 -0.0324755)
(-0.0319635 0.0392007 -0.0255005)
(-0.0217282 0.117008 -0.0213864)
(-0.016705 0.174743 -0.020273)
(-0.0202626 0.196365 -0.0191075)
(-0.0305611 0.178124 -0.0141638)
(-0.0426063 0.128084 -0.00446881)
(-0.0525246 0.0590151 0.00720534)
(-0.0589708 -0.0161107 0.0156581)
(-0.0622962 -0.0857952 0.0161744)
(-0.063455 -0.14106 0.00748929)
(-0.0633249 -0.176068 -0.00712081)
(-0.0588577 -0.186349 -0.0210388)
(-0.0551135 -0.181102 -0.0601454)
(-0.0565791 -0.152935 -0.0665582)
(-0.0558643 -0.109065 -0.0620171)
(-0.0499402 -0.0494416 -0.0499653)
(-0.0390249 0.0220314 -0.0348485)
(-0.0249446 0.0957011 -0.0206932)
(-0.012022 0.155586 -0.00964174)
(-0.00551211 0.184442 -0.000698922)
(-0.00729247 0.173895 0.00908997)
(-0.0145932 0.129101 0.0208835)
(-0.0235631 0.0630923 0.0317895)
(-0.0319905 -0.00986574 0.0361992)
(-0.0391844 -0.0775063 0.0294679)
(-0.0451149 -0.130815 0.0113069)
(-0.0498091 -0.164378 -0.0133158)
(-0.0500116 -0.17483 -0.0359732)
(-0.0424145 -0.163398 -0.0763595)
(-0.047784 -0.1419 -0.0849005)
(-0.0497131 -0.106479 -0.07953)
(-0.0458481 -0.0568179 -0.0636243)
(-0.0358845 0.00485016 -0.0418538)
(-0.0207662 0.0715716 -0.0189178)
(-0.00376678 0.130462 0.00162336)
(0.00972114 0.165189 0.0187022)
(0.0153458 0.16411 0.0337931)
(0.013034 0.127983 0.0476477)
(0.00568356 0.0683129 0.0574895)
(-0.00389033 -3.74004e-05 0.0577572)
(-0.013903 -0.0641122 0.0441568)
(-0.0233138 -0.114763 0.0173567)
(-0.0313687 -0.146904 -0.0162806)
(-0.0352066 -0.158457 -0.0471689)
(-0.022816 -0.141714 -0.083675)
(-0.029475 -0.12731 -0.0946246)
(-0.0327681 -0.100874 -0.089358)
(-0.0308909 -0.0616488 -0.0714032)
(-0.0231904 -0.0104562 -0.0454351)
(-0.00983854 0.0478732 -0.0163222)
(0.00712875 0.10322 0.0116375)
(0.0234108 0.141295 0.0358546)
(0.0339451 0.149278 0.055931)
(0.036143 0.123813 0.0717476)
(0.0310871 0.0733408 0.0805704)
(0.0215459 0.0120598 0.0772777)
(0.010238 -0.0468419 0.0582176)
(-0.000827805 -0.0940987 0.0249123)
(-0.0102831 -0.124902 -0.0153816)
(-0.0158043 -0.138394 -0.0526486)
(0.00152262 -0.118508 -0.0807511)
(-0.00332679 -0.110848 -0.0939289)
(-0.00656572 -0.0930549 -0.0897565)
(-0.00646304 -0.0636928 -0.0720359)
(-0.00215534 -0.0225085 -0.0451295)
(0.00694242 0.027162 -0.0135083)
(0.0201318 0.0773355 0.0184704)
(0.034715 0.116008 0.0473613)
(0.0463332 0.130879 0.0711712)
(0.0511625 0.116116 0.0885666)
(0.0483632 0.0766127 0.0966532)
(0.0399894 0.0244694 0.0909929)
(0.0292625 -0.0277791 0.0688431)
(0.0188891 -0.0709973 0.0323978)
(0.0105489 -0.100634 -0.010831)
(0.00634938 -0.116679 -0.0511424)
(0.0276381 -0.0968835 -0.0680537)
(0.027791 -0.094743 -0.0825277)
(0.0261426 -0.0840751 -0.0802873)
(0.0249175 -0.0627589 -0.0652595)
(0.0250325 -0.0299768 -0.0410362)
(0.0278603 0.0118247 -0.0110607)
(0.0341292 0.056198 0.0208776)
(0.0428838 0.0931807 0.0510426)
(0.0512273 0.111939 0.0763783)
(0.0555079 0.105934 0.0943862)
(0.0538017 0.0772139 0.101907)
(0.0472661 0.0349838 0.0953288)
(0.0390612 -0.00985489 0.0730132)
(0.03206 -0.0487676 0.0376127)
(0.0277564 -0.0774866 -0.00382134)
(0.0286699 -0.0962794 -0.0425281)
(0.0517108 -0.0803197 -0.0480405)
(0.0595417 -0.0815817 -0.061986)
(0.0611106 -0.0751204 -0.0620312)
(0.0593751 -0.0586424 -0.0518256)
(0.0550326 -0.0315001 -0.0336283)
(0.0502146 0.00418062 -0.00921954)
(0.0471595 0.0430368 0.018712)
(0.0467355 0.0768285 0.0465925)
(0.0478496 0.0964846 0.070742)
(0.0480291 0.0959368 0.087809)
(0.0454565 0.0755617 0.0945318)
(0.0407788 0.0418473 0.0882809)
(0.0366676 0.00361135 0.0686401)
(0.0355063 -0.0315989 0.0384848)
(0.0379995 -0.0597887 0.00376383)
(0.0476557 -0.0808564 -0.0282704)
(0.0695121 -0.0721013 -0.0246126)
(0.086457 -0.0739944 -0.0356379)
(0.0927881 -0.0675615 -0.037607)
(0.0918236 -0.0514421 -0.0334768)
(0.0835707 -0.0261087 -0.023733)
(0.0706627 0.00602884 -0.00792957)
(0.0568826 0.0403698 0.0128024)
(0.0450687 0.0701928 0.0353485)
(0.036168 0.0881714 0.0557151)
(0.0294883 0.0892213 0.0701087)
(0.0242326 0.0730388 0.0755461)
(0.0210475 0.0442138 0.0705645)
(0.0218749 0.00981996 0.0558741)
(0.02807 -0.0235035 0.0342514)
(0.0390728 -0.0518013 0.0101037)
(0.0592975 -0.074035 -0.0112821)
(0.0775908 -0.0742425 -0.0018293)
(0.103166 -0.0738768 -0.00791618)
(0.11527 -0.0628643 -0.0108755)
(0.116671 -0.0419689 -0.0128699)
(0.106037 -0.0138353 -0.0126287)
(0.0858326 0.018025 -0.00715399)
(0.0612673 0.0493892 0.00437209)
(0.0373811 0.0749565 0.0195061)
(0.0174147 0.0890742 0.0341697)
(0.00276138 0.0877925 0.0445959)
(-0.00596284 0.0708326 0.0485399)
(-0.00791566 0.0419494 0.045739)
(-0.00208916 0.0073604 0.0375889)
(0.0115262 -0.026646 0.0262808)
(0.0309401 -0.0558143 0.0144216)
(0.0604615 -0.0779126 0.00510705)
(0.0744446 -0.0864762 0.0173538)
(0.106223 -0.0813869 0.0166872)
(0.123932 -0.0621013 0.0136879)
(0.129022 -0.0318318 0.00665875)
(0.118301 0.00396829 -0.00206248)
(0.0929333 0.0395055 -0.00712572)
(0.0590819 0.0700818 -0.00543734)
(0.0242223 0.0915085 0.00143365)
(-0.00588401 0.0997263 0.00956342)
(-0.0277214 0.0921399 0.015707)
(-0.0393645 0.0693158 0.0186991)
(-0.0399929 0.0353894 0.0191651)
(-0.0297513 -0.00326663 0.0184086)
(-0.0100929 -0.0402317 0.0174567)
(0.0157363 -0.0707709 0.0170678)
(0.0505142 -0.0917029 0.0182842)
(0.0608975 -0.10687 0.0311491)
(0.095395 -0.0951579 0.0344924)
(0.117071 -0.0657333 0.0319122)
(0.126166 -0.0233641 0.0216744)
(0.117865 0.0239419 0.00595683)
(0.0906761 0.0668896 -0.0084593)
(0.0503213 0.0988524 -0.0160962)
(0.00670563 0.116318 -0.0172045)
(-0.0312659 0.116967 -0.0151297)
(-0.057886 0.0999299 -0.012218)
(-0.0705917 0.0673963 -0.00869274)
(-0.0693418 0.0248758 -0.00383323)
(-0.0557452 -0.0203986 0.00268951)
(-0.0324978 -0.0615935 0.010435)
(-0.00344638 -0.0935349 0.0186607)
(0.0317893 -0.112688 0.0268827)
(0.0397174 -0.13399 0.038408)
(0.0738534 -0.113895 0.0431304)
(0.0967956 -0.0736905 0.0408763)
(0.10833 -0.0188907 0.029543)
(0.103354 0.0408272 0.00981645)
(0.077644 0.0926429 -0.0118489)
(0.0344984 0.126955 -0.0280654)
(-0.0144748 0.140448 -0.0364163)
(-0.0565121 0.132826 -0.0384987)
(-0.0840332 0.105372 -0.0360016)
(-0.0952851 0.0622254 -0.029509)
(-0.0919275 0.0103525 -0.0194491)
(-0.0767649 -0.0422125 -0.00689777)
(-0.0529088 -0.0881125 0.00655934)
(-0.0240149 -0.121636 0.0194189)
(0.00825466 -0.138996 0.0305768)
(0.0169263 -0.142435 0.0377244)
(0.0483886 -0.119064 0.041302)
(0.0687815 -0.0758969 0.0392001)
(0.0779275 -0.014031 0.0286933)
(0.0719414 0.0604903 0.0085076)
(0.0479353 0.132318 -0.0169041)
(0.00909817 0.180808 -0.039229)
(-0.0346468 0.19259 -0.052611)
(-0.0723085 0.168571 -0.0560543)
(-0.0972008 0.119597 -0.0511884)
(-0.107565 0.0586524 -0.0401766)
(-0.104596 -0.0034692 -0.0253882)
(-0.0906442 -0.0589826 -0.00932744)
(-0.0685975 -0.102963 0.00582187)
(-0.0419358 -0.132323 0.0187743)
(-0.0137033 -0.145254 0.0290181)
(0.0188839 -0.160559 0.0244963)
(0.0420458 -0.127794 0.0268178)
(0.0550513 -0.0716172 0.0262668)
(0.0589461 7.79632e-05 0.0213472)
(0.0516236 0.0722278 0.0112932)
(0.0326275 0.127323 -0.00164491)
(0.00591208 0.155129 -0.01399)
(-0.0225954 0.155592 -0.023949)
(-0.0482604 0.133565 -0.0306629)
(-0.0678847 0.0945198 -0.0327644)
(-0.0789489 0.0436984 -0.0289385)
(-0.0797327 -0.0133506 -0.0195376)
(-0.0701957 -0.0702655 -0.00713118)
(-0.052278 -0.119803 0.00497487)
(-0.0297488 -0.154899 0.0143728)
(-0.00522834 -0.169792 0.0201521)
(-0.000808027 -0.159778 0.00239955)
(0.0118988 -0.128926 0.00387948)
(0.0205491 -0.0767922 0.00636644)
(0.0276417 -0.00650813 0.00712211)
(0.0308983 0.0717606 0.00339355)
(0.0254659 0.140012 -0.00514459)
(0.00876735 0.179874 -0.015792)
(-0.0152314 0.184107 -0.0247916)
(-0.039091 0.157445 -0.0294259)
(-0.0568921 0.109299 -0.0284135)
(-0.0656366 0.0490605 -0.0221252)
(-0.0648908 -0.0148207 -0.012881)
(-0.0562564 -0.0745906 -0.00414996)
(-0.0428126 -0.123152 0.00134055)
(-0.0282625 -0.155035 0.00317446)
(-0.0139288 -0.166566 0.0027661)
(-0.01629 -0.166711 -0.0210976)
(-0.0115556 -0.13556 -0.0215149)
(-0.00756659 -0.0855923 -0.017047)
(-0.00112156 -0.0190211 -0.0110418)
(0.00681268 0.0566707 -0.00714537)
(0.0118182 0.126816 -0.00772218)
(0.00831226 0.172935 -0.0121364)
(-0.00466203 0.183355 -0.0168828)
(-0.0217937 0.159619 -0.0182523)
(-0.0365894 0.111091 -0.014708)
(-0.0451709 0.048352 -0.00752393)
(-0.0466562 -0.0188102 -0.000222913)
(-0.0424329 -0.0812669 0.00316843)
(-0.0352486 -0.131052 0.000625161)
(-0.0280461 -0.162464 -0.00645772)
(-0.0210053 -0.172245 -0.0142856)
(-0.0272902 -0.162912 -0.04599)
(-0.0291324 -0.134071 -0.0483934)
(-0.0292384 -0.0895167 -0.0422032)
(-0.0242395 -0.0302076 -0.0310526)
(-0.0141416 0.0390276 -0.019174)
(-0.00197143 0.107327 -0.0101868)
(0.00632363 0.158094 -0.00556029)
(0.00581557 0.176286 -0.00343746)
(-0.00254591 0.15827 -0.00023665)
(-0.0134364 0.111747 0.00584848)
(-0.0220949 0.0485404 0.0130951)
(-0.026573 -0.0196702 0.0171432)
(-0.0273847 -0.0822857 0.0137081)
(-0.0264698 -0.130736 0.00168034)
(-0.0258846 -0.159767 -0.0155703)
(-0.0249277 -0.167315 -0.0318189)
(-0.0330741 -0.151475 -0.0693626)
(-0.0398514 -0.126515 -0.0736227)
(-0.0431044 -0.0890457 -0.0659563)
(-0.0395853 -0.0389443 -0.0501103)
(-0.0288282 0.021255 -0.0306904)
(-0.0128025 0.0840857 -0.0121388)
(0.00340413 0.136045 0.00248669)
(0.0132825 0.161375 0.0130031)
(0.0138278 0.151444 0.0218184)
(0.00777825 0.110186 0.0305837)
(-0.000123266 0.0494109 0.0373574)
(-0.00692477 -0.0174083 0.0373396)
(-0.0120736 -0.0781356 0.026333)
(-0.0164954 -0.123721 0.00434265)
(-0.0213383 -0.149569 -0.0232987)
(-0.0253798 -0.155113 -0.0481776)
(-0.0330627 -0.134068 -0.0876918)
(-0.0426152 -0.114149 -0.0935739)
(-0.0478936 -0.0847942 -0.0847719)
(-0.0459407 -0.0448808 -0.0650823)
(-0.0360864 0.00496239 -0.0393482)
(-0.0195189 0.0599403 -0.0124674)
(-1.66895e-05 0.109653 0.0114812)
(0.0163553 0.139678 0.0305178)
(0.0244197 0.138461 0.0452895)
(0.0237614 0.105277 0.0566451)
(0.0178053 0.0501428 0.0625101)
(0.00994815 -0.0125352 0.0581131)
(0.00181816 -0.0693373 0.0397277)
(-0.00638137 -0.110839 0.00855286)
(-0.0149243 -0.133157 -0.0283808)
(-0.0224418 -0.137251 -0.061044)
(-0.0269125 -0.112366 -0.0978905)
(-0.0367117 -0.0983084 -0.105068)
(-0.0428022 -0.0775883 -0.0956115)
(-0.0425525 -0.0480232 -0.0734532)
(-0.0351663 -0.00865586 -0.0435139)
(-0.0210974 0.0376471 -0.0107752)
(-0.0026801 0.0828997 0.0202459)
(0.0155259 0.114717 0.0463894)
(0.0281325 0.120889 0.0664924)
(0.0322955 0.0970662 0.080122)
(0.0292004 0.050285 0.0849183)
(0.0217938 -0.00554186 0.0764945)
(0.0125025 -0.0564583 0.0519756)
(0.00260797 -0.092938 0.0137357)
(-0.00738841 -0.111774 -0.0299909)
(-0.0162013 -0.115232 -0.0683503)
(-0.0146415 -0.0888896 -0.097898)
(-0.0220118 -0.080911 -0.105983)