/*--------------------------------*- C++ -*----------------------------------*\
| =========                 |                                                 |
| \\      /  F ield         | OpenFOAM: The Open Source CFD Toolbox           |
|  \\    /   O peration     | Version:  3.0.0                                 |
|   \\  /    A nd           | Web:      www.OpenFOAM.org                      |
|    \\/     M anipulation  |                                                 |
\*---------------------------------------------------------------------------*/
FoamFile
{
    version     2.0;
    format      ascii;
    class       volScalarField;
    location    "4";
    object      p;
}
// * * * * * * * * * * * * * * * * * * * * * * * * * * * * * * * * * * * * * //

dimensions      [0 2 -2 0 0 0 0];

internalField   nonuniform List<scalar> 
4096
(
0.0094006
-0.00505772
-0.0170921
-0.023624
-0.02106
-0.00904499
0.00734712
0.0205079
0.0266865
0.0270109
0.0248887
0.0230785
0.0220915
0.0212364
0.0184643
0.0131487
-0.0063111
-0.0166509
-0.0229162
-0.0243583
-0.0198034
-0.0103417
0.000120463
0.00783365
0.0114621
0.0120537
0.0114502
0.010767
0.0100887
0.0083768
0.00440697
-0.000824665
-0.00225771
-0.010173
-0.0148754
-0.0159019
-0.012099
-0.00392325
0.00451328
0.00889777
0.0080942
0.00446279
0.00131581
0.000433712
0.00145581
0.00262219
0.00215377
0.00114304
0.00151148
-0.00304052
-0.00531986
-0.00561491
-0.00260931
0.00290094
0.00742603
0.00737211
0.0023825
-0.00436208
-0.00900659
-0.00967583
-0.00703406
-0.00329009
-0.000438
0.00264414
0.00413814
0.00362124
0.00406732
0.00486218
0.00682334
0.00916278
0.00931592
0.00492041
-0.00355605
-0.0124547
-0.0178905
-0.0181915
-0.0142968
-0.00858539
-0.00298525
0.00336608
0.00622462
0.0093131
0.0120436
0.0136742
0.0145495
0.0139804
0.0104243
0.00284265
-0.00796772
-0.0179589
-0.0235756
-0.0234966
-0.0188737
-0.0120595
-0.00466644
0.00374247
0.00730872
0.0128342
0.0171043
0.0192571
0.0191726
0.0162737
0.00996509
0.000466802
-0.0111137
-0.0208093
-0.0257323
-0.0250782
-0.0202235
-0.0132879
-0.00541377
0.00369574
0.00742337
0.0136376
0.0186102
0.0209482
0.0201243
0.0156384
0.00760958
-0.00286398
-0.0136596
-0.0218342
-0.0252057
-0.0235838
-0.018614
-0.0122684
-0.00516969
0.00346085
0.00715109
0.012059
0.0168442
0.0190089
0.0176863
0.0124397
0.00382538
-0.00635978
-0.0156296
-0.0215931
-0.0229369
-0.0200866
-0.0148979
-0.00935811
-0.00386973
0.00362764
0.00692766
0.00900402
0.0127669
0.0143329
0.0127335
0.00759313
-0.000388353
-0.00918122
-0.0162755
-0.0197462
-0.0190315
-0.0150488
-0.00970439
-0.00500123
-0.00144658
0.00467426
0.00690208
0.00537386
0.00730618
0.00788752
0.0062586
0.00217181
-0.0038829
-0.0101601
-0.0144729
-0.0154076
-0.0129182
-0.00823177
-0.0031397
0.000501461
0.00202716
0.00645876
0.00668295
0.00183429
0.00127923
0.000429836
-0.00102151
-0.00306726
-0.00587142
-0.00852194
-0.00957826
-0.00815918
-0.00441569
0.000312123
0.0045111
0.00666838
0.00614952
0.0082129
0.00562348
-0.00198672
-0.00536296
-0.00765732
-0.00848074
-0.00769775
-0.00610106
-0.00425411
-0.00187343
0.00148803
0.00561215
0.00955194
0.0122012
0.0125268
0.0100193
0.0089838
0.00261233
-0.00701035
-0.0127968
-0.0160542
-0.0158499
-0.01188
-0.00573483
0.000537764
0.00600268
0.0107122
0.0146474
0.0173352
0.0181432
0.0164605
0.0120079
0.00747282
-0.00138028
-0.0124595
-0.0198664
-0.023293
-0.0216493
-0.0150519
-0.00578448
0.003127
0.0103677
0.0157745
0.0193858
0.0210602
0.0205409
0.0175271
0.0117352
0.00434481
0.0124743
-0.00200868
-0.0150771
-0.0227629
-0.0207868
-0.00820122
0.00900199
0.0220792
0.027077
0.0260973
0.0233991
0.0218346
0.0219554
0.0222963
0.0205424
0.0154315
0.00115356
-0.0146537
-0.0261882
-0.0304042
-0.0250059
-0.011895
0.00293118
0.0137371
0.0189894
0.020443
0.0206531
0.0212445
0.0212265
0.0200237
0.0156442
0.00757021
-0.016669
-0.026919
-0.0319283
-0.031195
-0.0250616
-0.0160172
-0.00741031
-0.00108524
0.00301084
0.00580035
0.00789523
0.00894426
0.00881555
0.00578196
-0.000527227
-0.0089182
-0.0109544
-0.018654
-0.0225864
-0.022307
-0.0171032
-0.00930566
-0.00251842
0.000682179
0.0005497
-0.000737314
-0.00118209
-0.000251536
0.000950211
0.000982988
-0.00142221
-0.00538175
-0.00502047
-0.0092256
-0.0110288
-0.0102416
-0.00645872
-0.00136449
0.00180964
0.000875112
-0.00334527
-0.00795041
-0.0103295
-0.00962976
-0.0068162
-0.00381996
-0.0023403
-0.00180828
0.000977696
0.000253991
0.000720512
0.00210832
0.00449218
0.00645035
0.00557152
0.00050231
-0.00734817
-0.0145946
-0.0183594
-0.0176515
-0.0134372
-0.00788122
-0.00294633
0.00150126
0.00659204
0.0088815
0.0110888
0.0127729
0.0137639
0.0129087
0.00866431
0.00046074
-0.00999563
-0.018936
-0.0235384
-0.0227209
-0.0174606
-0.0100204
-0.00246615
0.00481759
0.0110934
0.0152938
0.0184535
0.0200335
0.0196782
0.0165409
0.0099023
1.67628e-05
-0.011271
-0.0205881
-0.025166
-0.0240624
-0.0182744
-0.00999199
-0.00113648
0.00763304
0.0140054
0.0186801
0.0220356
0.0231579
0.021589
0.0168224
0.00886534
-0.0013344
-0.0118283
-0.0199281
-0.0234645
-0.0218349
-0.0160611
-0.00806028
0.000631265
0.00970327
0.015291
0.0189708
0.0219386
0.0223919
0.019874
0.0142279
0.00601157
-0.00331376
-0.0118033
-0.0175413
-0.0192978
-0.0170058
-0.0116666
-0.00482386
0.00246923
0.0110804
0.0150823
0.0166232
0.0187896
0.0185289
0.0155166
0.00988046
0.00244926
-0.00506611
-0.0108628
-0.0137621
-0.0135089
-0.0106238
-0.00603828
-0.000869725
0.00429892
0.0119811
0.0135102
0.0122434
0.0131808
0.0122961
0.0094713
0.00491048
-0.000607767
-0.00554097
-0.0083796
-0.00855894
-0.00657348
-0.00336745
0.000234052
0.00349837
0.0061445
0.0122804
0.0105688
0.0061166
0.00532954
0.00402342
0.00224958
1.62787e-06
-0.00247777
-0.00418972
-0.00408998
-0.00200878
0.00109563
0.00424651
0.0067337
0.00807839
0.00811223
0.0116875
0.00614067
-0.00137661
-0.00438517
-0.00598395
-0.00596102
-0.00476207
-0.00314273
-0.00115275
0.00160718
0.00515487
0.00874539
0.0114946
0.012819
0.0123215
0.00976995
0.00964077
-0.000534266
-0.0105359
-0.0155504
-0.0170927
-0.0149261
-0.010031
-0.00423379
0.00129598
0.00634619
0.010961
0.0147621
0.0170581
0.017241
0.0148264
0.00969427
0.00509925
-0.00801755
-0.0198162
-0.0261808
-0.0272554
-0.023186
-0.0157179
-0.00754379
-9.32711e-05
0.00650194
0.0122625
0.0167233
0.019077
0.0186151
0.0148373
0.00765259
-0.000911058
0.00554353
-0.0109258
-0.0239104
-0.0293629
-0.0242811
-0.0105684
0.00461561
0.0147198
0.0185661
0.0188228
0.0185484
0.0191937
0.0206611
0.0209902
0.0179682
0.0106869
-0.00739701
-0.0222758
-0.0321911
-0.033873
-0.0261978
-0.0123411
0.0013603
0.0104334
0.0145922
0.0159547
0.0166646
0.0176579
0.0178757
0.0161554
0.010666
0.00140626
-0.0235175
-0.0332884
-0.0372468
-0.0350854
-0.0279106
-0.0187384
-0.0105326
-0.00451396
-0.000334734
0.00286936
0.00550736
0.00708416
0.00664717
0.00281516
-0.00475658
-0.0146979
-0.0177371
-0.025073
-0.0281495
-0.0264104
-0.0202531
-0.0122247
-0.00580266
-0.0028421
-0.00260342
-0.00300503
-0.00247689
-0.000993779
0.00013395
-0.000807914
-0.00478893
-0.01089
-0.0101428
-0.0143171
-0.0156322
-0.0138514
-0.00928285
-0.00402442
-0.00111728
-0.00206267
-0.00559653
-0.00900556
-0.0101878
-0.00879052
-0.00610435
-0.0041193
-0.0042479
-0.00597668
-0.00163345
-0.00263585
-0.00212952
-0.000325044
0.00237101
0.00429067
0.00325549
-0.00156554
-0.00842275
-0.0142443
-0.0166945
-0.0152464
-0.0111148
-0.00642819
-0.00290885
-0.000481048
0.00712994
0.00861098
0.0102836
0.0117199
0.012496
0.011412
0.00717951
-0.000611366
-0.00975481
-0.017177
-0.0204306
-0.0188629
-0.0135875
-0.00674511
-0.000244617
0.00547649
0.0146786
0.0175602
0.0195625
0.0202254
0.0191848
0.0157147
0.0092695
0.00019993
-0.00962907
-0.0173531
-0.0206707
-0.0189322
-0.0131
-0.00510756
0.00317395
0.0108899
0.0198804
0.0229721
0.0246023
0.0242525
0.02168
0.0166112
0.00918067
0.000232756
-0.0085951
-0.0151413
-0.0176869
-0.0157585
-0.0100889
-0.00215127
0.00650534
0.0149543
0.0222491
0.0244836
0.0253599
0.0240191
0.0203824
0.0145808
0.00723492
-0.000472215
-0.00713397
-0.0114653
-0.0126528
-0.0105769
-0.0056806
0.00119008
0.00900152
0.017286
0.0218598
0.0224441
0.0224972
0.0204396
0.0164136
0.0108128
0.00447984
-0.00127469
-0.00530423
-0.00712377
-0.00684545
-0.00475932
-0.00100754
0.00415675
0.0102333
0.0179846
0.0190974
0.0174885
0.016743
0.0144109
0.0108555
0.00650682
0.0020729
-0.00129141
-0.00274282
-0.0023742
-0.000952144
0.000952273
0.00343064
0.00667308
0.0105276
0.0172514
0.014345
0.0101454
0.00844454
0.00630438
0.00419695
0.00224221
0.000583332
-8.94254e-05
0.00074358
0.00270844
0.00479891
0.00639627
0.00770466
0.00905327
0.0103827
0.0151193
0.007828
0.000837733
-0.0021883
-0.00381553
-0.00360743
-0.00208683
-0.000127704
0.00212907
0.0048651
0.00778641
0.0101306
0.011409
0.0117472
0.0113021
0.00989763
0.0113374
-0.000912959
-0.0103947
-0.0147676
-0.0156271
-0.0127827
-0.0075504
-0.00188228
0.00318911
0.00759225
0.0113187
0.0139846
0.0151664
0.0146889
0.0123526
0.00800261
0.00503153
-0.01056
-0.0219524
-0.0273593
-0.0273753
-0.0224135
-0.0146908
-0.00686483
-2.35084e-05
0.00588561
0.0108917
0.0145507
0.0162152
0.015361
0.0115348
0.00460242
-0.00277055
-0.00206842
-0.0180586
-0.029426
-0.0325071
-0.0252342
-0.0108506
0.00324252
0.0117525
0.0146669
0.0149022
0.0150998
0.0162127
0.0177609
0.0176447
0.0137555
0.0062243
-0.0161484
-0.0294253
-0.0362926
-0.0348646
-0.0258703
-0.0127953
-0.00150711
0.00523534
0.00831538
0.00986531
0.0113376
0.0128017
0.0130752
0.0104832
0.00372632
-0.00574127
-0.0275496
-0.0367266
-0.039737
-0.0368504
-0.029123
-0.0203015
-0.0129142
-0.00764396
-0.00381878
-0.000554497
0.00240725
0.00439252
0.00402124
-9.15385e-05
-0.00822417
-0.0182711
-0.0226276
-0.0294783
-0.0316111
-0.0287696
-0.0219494
-0.0140526
-0.00829377
-0.00586095
-0.00553127
-0.00530855
-0.00402731
-0.00208633
-0.00109729
-0.00283814
-0.00799515
-0.0151501
-0.0145458
-0.0184134
-0.019055
-0.0163758
-0.0111755
-0.00587775
-0.0032373
-0.00419216
-0.00714158
-0.00956272
-0.00984514
-0.00808602
-0.00581861
-0.00496969
-0.00656584
-0.00981494
-0.00450285
-0.0055402
-0.0047903
-0.00253115
0.000486976
0.00250706
0.0016112
-0.00260227
-0.00838088
-0.0129104
-0.0144344
-0.0127906
-0.00929464
-0.00586946
-0.00383489
-0.00295528
0.00631904
0.00725809
0.00867167
0.0100359
0.0107749
0.00974923
0.00590158
-0.000738554
-0.00835973
-0.0142997
-0.0166457
-0.0150344
-0.0104879
-0.00482672
0.000382825
0.00483486
0.0159666
0.0177442
0.0189432
0.0190192
0.017645
0.0142547
0.00851594
0.000845226
-0.00720714
-0.0133876
-0.0159244
-0.0143039
-0.00919887
-0.00210426
0.00527435
0.0121185
0.0228221
0.024362
0.0246493
0.0233079
0.020272
0.0154556
0.00905189
0.00174892
-0.00526694
-0.010468
-0.012562
-0.0110013
-0.00600958
0.00144071
0.00972582
0.017615
0.0260377
0.0265509
0.025638
0.0230853
0.0190649
0.0138113
0.00784245
0.0019551
-0.00303682
-0.00644194
-0.00768906
-0.00632742
-0.00209432
0.00469931
0.0127295
0.0206074
0.0255825
0.0246738
0.0226854
0.019413
0.01523
0.010491
0.00579445
0.00188773
-0.000770647
-0.00221329
-0.00258114
-0.00158777
0.00147263
0.00690223
0.0138102
0.0211124
0.0220541
0.0194659
0.0167932
0.0134578
0.00998459
0.00667358
0.00387779
0.00214105
0.0016135
0.0018001
0.00207075
0.00260714
0.00439445
0.00812518
0.0132218
0.0195773
0.0161048
0.0115847
0.00854454
0.00580448
0.00394347
0.00290039
0.00250402
0.00293791
0.00414683
0.00545579
0.00613783
0.00631693
0.00700448
0.00892734
0.0116666
0.0164787
0.0083022
0.00152166
-0.00190809
-0.00355756
-0.00302638
-0.0010172
0.00143774
0.00399083
0.00652095
0.00855394
0.00956334
0.00965076
0.00955294
0.0096808
0.00959447
0.011804
-0.00137797
-0.0104081
-0.0143539
-0.0146672
-0.011526
-0.00632839
-0.0010564
0.00345695
0.00718495
0.0100207
0.0116722
0.0120668
0.0114159
0.00967258
0.00644456
0.004931
-0.0118299
-0.0227834
-0.0273188
-0.0266959
-0.0213644
-0.0140417
-0.00703219
-0.00103458
0.00410811
0.00835037
0.0112961
0.0125253
0.0117117
0.00839698
0.00226619
-0.0033827
-0.0101884
-0.0249527
-0.0334505
-0.0337187
-0.0249126
-0.0112706
0.000561847
0.00702949
0.00917946
0.00981217
0.0108463
0.0125752
0.0139326
0.0129205
0.007806
0.000278808
-0.0220224
-0.0337636
-0.0375426
-0.0341247
-0.0248121
-0.0138885
-0.00566518
-0.00102997
0.00165618
0.00410058
0.00683562
0.00902093
0.00924878
0.00576052
-0.00228521
-0.0111339
-0.0287926
-0.0376834
-0.0397388
-0.0361881
-0.0288026
-0.0207652
-0.0144514
-0.0101176
-0.0067763
-0.00349955
-0.000202463
0.00224648
0.0021835
-0.00189064
-0.0102195
-0.0193267
-0.0252407
-0.0315957
-0.0326389
-0.0289106
-0.0218517
-0.0144902
-0.00970036
-0.00800026
-0.00778
-0.00710549
-0.00523388
-0.00294668
-0.00209392
-0.00444831
-0.0104174
-0.0175537
-0.0175981
-0.0208606
-0.0205411
-0.0169744
-0.011395
-0.00630485
-0.00415689
-0.00532939
-0.00795468
-0.0097164
-0.00944199
-0.00763409
-0.00596055
-0.00617702
-0.00887907
-0.0126623
-0.0071631
-0.00768599
-0.00627999
-0.00339734
-4.59666e-05
0.0020463
0.00117343
-0.00265506
-0.00762324
-0.0113558
-0.0124968
-0.0111846
-0.00866796
-0.00653651
-0.00562222
-0.0054135
0.00450325
0.00566663
0.00737138
0.00902752
0.0099715
0.00914131
0.00571901
-2.82205e-05
-0.00649376
-0.0115277
-0.0136955
-0.012789
-0.00940954
-0.00506606
-0.000805303
0.00322105
0.0151623
0.0166419
0.0177729
0.0178329
0.0165696
0.0135474
0.00856941
0.00208469
-0.00467022
-0.0100381
-0.0126786
-0.012011
-0.0081723
-0.00211004
0.00468369
0.011493
0.0228876
0.0235238
0.0233621
0.0217888
0.0189127
0.0147486
0.00944815
0.00349039
-0.00235306
-0.00709185
-0.00969003
-0.0092841
-0.00540334
0.00147632
0.00961661
0.0178104
0.0265394
0.0256642
0.0239027
0.0210337
0.0173822
0.0131783
0.0086654
0.00420093
8.47136e-05
-0.00337847
-0.0055886
-0.00552331
-0.00211987
0.00462768
0.0129604
0.0211384
0.0260394
0.0234839
0.0202934
0.0167214
0.0131793
0.00989286
0.00693865
0.00445788
0.00234087
0.000332879
-0.00137727
-0.00171748
0.000807762
0.00666431
0.0142244
0.0213694
0.022187
0.0179911
0.0138682
0.0103045
0.00770053
0.00599911
0.00500322
0.00457318
0.00430198
0.00359409
0.00236899
0.00166666
0.00316902
0.00761198
0.0135977
0.0191026
0.0156063
0.0100327
0.00563074
0.00274779
0.00171862
0.00206841
0.00315947
0.0045907
0.00583144
0.0061965
0.00551095
0.00469153
0.00528948
0.00800868
0.0117324
0.0155392
0.00744264
0.000210448
-0.00406892
-0.00573417
-0.00468217
-0.00196209
0.00120874
0.00421142
0.00661485
0.00791263
0.00796097
0.00742107
0.00739274
0.00824584
0.00910149
0.0107158
-0.00208038
-0.0110851
-0.0152336
-0.0154586
-0.0121858
-0.00717272
-0.00216751
0.00215369
0.00563389
0.00803772
0.00920152
0.00935983
0.00896997
0.00794114
0.00555945
0.00433454
-0.0122416
-0.0232164
-0.0271546
-0.026197
-0.0211747
-0.0145685
-0.00829742
-0.00280421
0.0019716
0.00585535
0.00851736
0.00974315
0.00930479
0.00664686
0.00120099
-0.00330272
-0.0162219
-0.0296446
-0.0351318
-0.0330546
-0.0239683
-0.0122962
-0.00324366
0.00146289
0.00354557
0.00526055
0.00755145
0.00997615
0.0110575
0.00895446
0.00242655
-0.00485115
-0.0230255
-0.0336742
-0.0354404
-0.0313679
-0.0234374
-0.0153779
-0.00976655
-0.00614264
-0.00278534
0.00117678
0.00525285
0.00814192
0.00821829
0.00401159
-0.00485871
-0.0126134
-0.027474
-0.0363877
-0.0375669
-0.0338221
-0.0269445
-0.0197952
-0.014464
-0.0109014
-0.00790598
-0.00454677
-0.000880558
0.00193169
0.00213992
-0.00185465
-0.0102852
-0.0180707
-0.0250738
-0.03101
-0.0308837
-0.0265085
-0.0196061
-0.0130809
-0.00933891
-0.00835277
-0.00825723
-0.00730437
-0.00510953
-0.002693
-0.00206134
-0.00488716
-0.0113413
-0.0176299
-0.0183305
-0.0208236
-0.0193386
-0.014999
-0.00932354
-0.00475617
-0.00330968
-0.00487922
-0.00745161
-0.00893279
-0.00854315
-0.007017
-0.00599507
-0.00701556
-0.0103107
-0.0136693
-0.00846556
-0.00806915
-0.0056153
-0.00201992
0.00159831
0.00350263
0.00240498
-0.00142437
-0.00615391
-0.00971516
-0.011078
-0.0104937
-0.00900671
-0.00780486
-0.00736168
-0.00685283
0.00293155
0.00512678
0.00754767
0.00977378
0.011047
0.0103418
0.00705981
0.00162047
-0.00449341
-0.00951249
-0.0122831
-0.0125033
-0.0104537
-0.0069591
-0.00297379
0.00177232
0.0134897
0.0156011
0.0173567
0.0179103
0.0170782
0.0144715
0.00994174
0.0039178
-0.00256905
-0.00823022
-0.0119001
-0.0127059
-0.0101592
-0.00469723
0.00227876
0.0100415
0.0211881
0.0218543
0.0221867
0.0211103
0.0188638
0.0154517
0.0108794
0.00541054
-0.000451292
-0.00594138
-0.00997732
-0.0111902
-0.00838892
-0.00166037
0.00694588
0.0164975
0.0247226
0.0231972
0.0217511
0.0194414
0.0167017
0.0136268
0.0101212
0.00612813
0.00165391
-0.00301969
-0.00695318
-0.00845366
-0.00572542
0.00127996
0.0102421
0.0198241
0.0239264
0.0201627
0.0169872
0.0140362
0.011699
0.0098814
0.00818473
0.00619822
0.00351298
3.34245e-05
-0.0034528
-0.0050793
-0.00280842
0.00362845
0.0117921
0.0197754
0.0196543
0.0140093
0.00948556
0.00650425
0.00524178
0.00520549
0.00562149
0.00576681
0.00495584
0.00285619
0.000105249
-0.00148682
0.000120265
0.00530521
0.0117611
0.0170984
0.0131253
0.00597686
0.000738406
-0.00175023
-0.00157583
0.000303367
0.00274375
0.0048273
0.00577079
0.00514743
0.00343277
0.00216664
0.00309687
0.00655742
0.0105876
0.0130127
0.00533863
-0.00308434
-0.00837841
-0.00995476
-0.00820773
-0.00454666
-0.000436576
0.00318257
0.00564073
0.00654652
0.00618171
0.00560928
0.00602358
0.00751313
0.0085627
0.0083241
-0.00322663
-0.0130822
-0.0178721
-0.018252
-0.0149826
-0.00988487
-0.00456951
0.000195047
0.00398191
0.0064766
0.0077123
0.00814364
0.00825397
0.00776536
0.00553497
0.00296913
-0.012218
-0.0235973
-0.0277845
-0.0269853
-0.0223709
-0.0161545
-0.00995866
-0.00430892
0.000627438
0.00462446
0.00746195
0.00902914
0.00907494
0.00684398
0.00149044
-0.0032758
-0.01844
-0.0308249
-0.0341632
-0.0309998
-0.0228218
-0.0136059
-0.0068782
-0.00296462
-3.64922e-05
0.00325946
0.00691849
0.00982437
0.0104571
0.00726929
-0.000553846
-0.00748182
-0.0195255
-0.0294826
-0.0306313
-0.0274096
-0.0217522
-0.0161818
-0.0118371
-0.00773333
-0.00283851
0.00275442
0.00787547
0.0109413
0.0105617
0.00577078
-0.0032921
-0.0100122
-0.0241832
-0.0331225
-0.0335987
-0.0297652
-0.0234132
-0.0170509
-0.0124193
-0.00925283
-0.00630788
-0.00268876
0.00125772
0.00421493
0.00441858
0.000278669
-0.00838969
-0.0152149
-0.0222564
-0.0277741
-0.0265045
-0.0217359
-0.0153161
-0.0097962
-0.00697307
-0.00640421
-0.00623199
-0.00504141
-0.00273772
-0.000569139
-0.000353524
-0.00362937
-0.0103788
-0.0155172
-0.0164011
-0.0180655
-0.0154366
-0.0105903
-0.00519399
-0.0014306
-0.000757059
-0.00266862
-0.00521881
-0.00664815
-0.00646803
-0.00548285
-0.0051225
-0.00667491
-0.0101354
-0.0124847
-0.00764225
-0.00605028
-0.00263795
0.00150813
0.00511896
0.00660383
0.00502766
0.000924318
-0.00394907
-0.00780905
-0.00980533
-0.0100906
-0.00938252
-0.00858412
-0.00799083
-0.00663064
0.00258214
0.00599749
0.00943586
0.0122738
0.0137855
0.0130187
0.00951651
0.00381713
-0.00269176
-0.00844441
-0.0123258
-0.0137405
-0.0125047
-0.00912577
-0.00447919
0.00110394
0.0121862
0.0154152
0.0181307
0.0193966
0.0190609
0.0167064
0.0121455
0.00576603
-0.00149413
-0.00839913
-0.0136449
-0.0158858
-0.0140475
-0.00835981
-0.000464841
0.00880999
0.019056
0.0204434
0.0218146
0.0216275
0.0201586
0.0172787
0.0127985
0.00679948
-0.000262432
-0.00748988
-0.013442
-0.016133
-0.013795
-0.00653979
0.00324468
0.0147627
0.0219172
0.0205268
0.020184
0.0189443
0.01724
0.0149639
0.0116613
0.00701473
0.00102967
-0.00567845
-0.0116427
-0.0144225
-0.0118429
-0.00405397
0.0060059
0.0177224
0.020579
0.0163178
0.0141439
0.0123546
0.0112566
0.0104574
0.00912998
0.00654336
0.00232256
-0.00316411
-0.00843246
-0.010964
-0.00850115
-0.00123596
0.00765895
0.0173547
0.0159315
0.00925994
0.0053635
0.00346487
0.00351857
0.00467024
0.00569072
0.00551522
0.00349845
-0.00019368
-0.00421399
-0.0062254
-0.00417091
0.00173446
0.00839253
0.014353
0.00943453
0.000919258
-0.00432986
-0.00601895
-0.00463595
-0.00151959
0.00176422
0.00396532
0.00430292
0.00277251
0.000443122
-0.000780237
0.0007287
0.00470901
0.00845539
0.0100126
0.00242604
-0.00755464
-0.0134599
-0.0146951
-0.0121049
-0.00741364
-0.00235889
0.00181595
0.00435132
0.00510401
0.0047488
0.00455919
0.00555408
0.00736026
0.00785947
0.00552274
-0.00475173
-0.0158748
-0.021645
-0.0221602
-0.0185853
-0.0128468
-0.00667252
-0.00113299
0.00318074
0.00603306
0.00767542
0.00866158
0.00930432
0.00899197
0.00618272
0.0011467
-0.0122919
-0.024565
-0.0293697
-0.0287095
-0.0240319
-0.0174495
-0.0106543
-0.00442976
0.000897725
0.0052235
0.00850685
0.0106013
0.0110589
0.00887415
0.00287833
-0.00373915
-0.0170417
-0.028757
-0.0311009
-0.0279743
-0.0212807
-0.0141378
-0.0085965
-0.00432261
8.73613e-05
0.00501943
0.00963554
0.012543
0.0124252
0.00819731
-0.000464149
-0.00731721
-0.013472
-0.0228574
-0.0245142
-0.0229037
-0.0192653
-0.0148759
-0.0102907
-0.00442054
0.00217668
0.00881119
0.0140756
0.0165274
0.0152763
0.00999496
0.00112552
-0.0049388
-0.0197373
-0.0282859
-0.0281482
-0.0242084
-0.018291
-0.0125193
-0.00822772
-0.00496003
-0.00167431
0.00221999
0.00620492
0.00888476
0.00862436
0.00401344
-0.00496225
-0.0114967
-0.0175755
-0.0223878
-0.0202167
-0.0153842
-0.00971917
-0.00520171
-0.00293454
-0.00224647
-0.00163485
-0.00013687
0.00200915
0.00358149
0.00306632
-0.000760921
-0.0076558
-0.0118336
-0.0123687
-0.0131812
-0.009707
-0.00480915
-0.000107552
0.00270916
0.00280919
0.00096957
-0.00127795
-0.00263146
-0.00283296
-0.0025537
-0.00287506
-0.00479777
-0.00815853
-0.00944988
-0.00487647
-0.00234327
0.00177562
0.00605638
0.00925504
0.0101179
0.00811002
0.00383416
-0.00114376
-0.00538421
-0.00808866
-0.00912573
-0.00885023
-0.0080372
-0.00698983
-0.00467814
0.00382255
0.00819662
0.0122956
0.0154267
0.0168772
0.0158225
0.0119489
0.00579975
-0.00136395
-0.00807957
-0.0130694
-0.015297
-0.0141943
-0.0103087
-0.0047552
0.00179512
0.0118278
0.0160005
0.0194835
0.0212951
0.0212516
0.0188778
0.0139186
0.00670567
-0.00182722
-0.0102912
-0.017017
-0.0201115
-0.0181207
-0.0114748
-0.00228562
0.00831967
0.0172595
0.0194631
0.0218532
0.022517
0.0216373
0.0189031
0.0139196
0.00669645
-0.00217259
-0.0114082
-0.0190724
-0.0225499
-0.0198108
-0.0113194
-7.17353e-05
0.0132268
0.0189939
0.0181843
0.0191217
0.0189923
0.0180908
0.0160417
0.0121469
0.00603067
-0.00203853
-0.0108526
-0.0186572
-0.0219357
-0.0187608
-0.00968167
0.00169907
0.0154133
0.0169224
0.01289
0.0121066
0.011549
0.0113593
0.0108738
0.00900263
0.00497525
-0.00126467
-0.0087348
-0.0153526
-0.0181508
-0.0149561
-0.00661012
0.00313547
0.0146325
0.0119291
0.00505785
0.00239568
0.0016799
0.00267741
0.00428478
0.00501092
0.00374093
0.000140473
-0.00503321
-0.00986694
-0.0117868
-0.00898608
-0.00234979
0.00448233
0.0115009
0.00551128
-0.00361487
-0.00808959
-0.00879819
-0.00647374
-0.00269789
0.000711618
0.00240562
0.00183829
-0.000500056
-0.00309176
-0.00393229
-0.00173126
0.00257319
0.00582257
0.00721761
-0.000743769
-0.0116268
-0.0174551
-0.0180524
-0.0146
-0.00905962
-0.003418
0.000903671
0.0032498
0.00383236
0.00364813
0.00398466
0.00551777
0.00734314
0.00692342
0.00308193
-0.00635962
-0.0186474
-0.0249041
-0.0251264
-0.020782
-0.0140881
-0.00702053
-0.000902862
0.00367403
0.00674008
0.00877374
0.0102938
0.0113171
0.0108465
0.00700717
-0.000501928
-0.0124715
-0.0254861
-0.0307224
-0.0297051
-0.0242782
-0.0168089
-0.00920837
-0.00258569
0.00298261
0.00758699
0.011267
0.0137571
0.0143549
0.0118284
0.00475002
-0.00438506
-0.01343
-0.0244802
-0.0266483
-0.0241192
-0.0187718
-0.0127209
-0.00696996
-0.00166373
0.00434871
0.0103511
0.0150972
0.0173037
0.0160909
0.0109168
0.0019082
-0.00512159
-0.00731513
-0.0159886
-0.0185155
-0.0182291
-0.0154359
-0.010691
-0.00423295
0.00311754
0.0105523
0.017028
0.0213372
0.0224911
0.0201353
0.0144957
0.00614045
0.000417092
-0.0148989
-0.0222283
-0.0215758
-0.0176309
-0.0121466
-0.00677477
-0.00233962
0.00146006
0.00529866
0.0092826
0.0127704
0.0145418
0.0133099
0.00799509
-0.000966409
-0.00747701
-0.0121588
-0.0157622
-0.0131497
-0.00871342
-0.00402473
-0.000310159
0.00198378
0.00343046
0.00486108
0.00659065
0.00821797
0.00876861
0.00723211
0.00283919
-0.00386701
-0.00738695
-0.00741221
-0.00730483
-0.00358817
0.000751184
0.00438279
0.00637057
0.00647454
0.00530433
0.00378957
0.00261166
0.00192491
0.00138743
0.000356568
-0.0018089
-0.00484657
-0.00538537
-0.00114203
0.00196012
0.00614419
0.00993235
0.0123196
0.0125423
0.0104335
0.00653459
0.00185742
-0.00252729
-0.0057476
-0.00726629
-0.00711957
-0.00607742
-0.00454373
-0.00163145
0.00590701
0.0105606
0.0146982
0.0175804
0.0186077
0.0171769
0.0130938
0.00678382
-0.00074668
-0.00811191
-0.0137528
-0.0161609
-0.0145843
-0.00990296
-0.0036133
0.00344954
0.0120225
0.0164092
0.0201262
0.022066
0.0219966
0.0194086
0.0139877
0.00599414
-0.00363158
-0.0132685
-0.020803
-0.0238628
-0.0209271
-0.013012
-0.00282118
0.00837952
0.0156579
0.0182125
0.0212002
0.0223954
0.0217837
0.0188549
0.0130794
0.004503
-0.00607014
-0.0168529
-0.0253773
-0.0286736
-0.0247289
-0.0147321
-0.00237954
0.0117918
0.0159928
0.0157704
0.0176951
0.0184143
0.0179345
0.0156222
0.0106524
0.00279121
-0.0072888
-0.0178496
-0.0262631
-0.0292921
-0.0248457
-0.0143147
-0.00189292
0.0128108
0.0131329
0.00984179
0.0103137
0.0107584
0.0110471
0.0102555
0.00720987
0.00135394
-0.00686239
-0.0158382
-0.0230012
-0.0253809
-0.0209168
-0.0114146
-0.000965804
0.0114819
0.00796663
0.0017967
0.000461764
0.000770279
0.00226475
0.0036432
0.00335245
0.000495511
-0.00475774
-0.0110657
-0.0161505
-0.0174855
-0.0136747
-0.00630923
0.000720065
0.00840145
0.001873
-0.00677065
-0.0100552
-0.00980088
-0.00690966
-0.0031179
-0.000321824
0.000279321
-0.00143689
-0.00448386
-0.00706707
-0.00730543
-0.00438417
0.000195273
0.00308136
0.00456612
-0.00352244
-0.0142734
-0.019234
-0.0189717
-0.0148184
-0.00889404
-0.00332141
0.000504507
0.00222467
0.00245153
0.00239513
0.00320834
0.00515289
0.00686752
0.00566897
0.00113681
-0.0075053
-0.0205205
-0.026051
-0.0254374
-0.0201711
-0.0127602
-0.00532245
0.000753201
0.00507409
0.00798368
0.0101177
0.0118861
0.0130004
0.0121795
0.00742283
-0.00155694
-0.0124678
-0.0253159
-0.0301465
-0.0282314
-0.021892
-0.0136294
-0.00573615
0.000989457
0.00652976
0.0110943
0.0147537
0.0171656
0.0174754
0.0143634
0.00640207
-0.00463011
-0.0092383
-0.0192135
-0.0214657
-0.019582
-0.0150423
-0.00908714
-0.00270248
0.00427313
0.0113092
0.0173517
0.0212762
0.0222148
0.0198004
0.0139979
0.0051559
-0.00201764
-0.00288821
-0.0104554
-0.0134144
-0.0134674
-0.0102291
-0.00406876
0.00377057
0.0118433
0.0188787
0.0240148
0.026614
0.02625
0.0229412
0.0171219
0.00967389
0.00429906
-0.0101527
-0.015465
-0.0144827
-0.0108719
-0.00598724
-0.000833053
0.00412993
0.00884963
0.0131523
0.0167014
0.0189478
0.0191864
0.0167073
0.0109753
0.002595
-0.00348587
-0.00696552
-0.0089563
-0.00648906
-0.00297762
0.000621599
0.00390726
0.00685197
0.00953822
0.011845
0.0134692
0.0140593
0.0132471
0.0106414
0.00595632
7.22343e-06
-0.00289812
-0.00266398
-0.00168445
0.00152332
0.00468495
0.00711551
0.00865199
0.00939696
0.00947447
0.00892557
0.00786199
0.00653921
0.00514319
0.00355463
0.00129361
-0.00112654
-0.00117132
0.00243387
0.00562526
0.00911245
0.0118055
0.0131799
0.013047
0.011429
0.00846973
0.00450374
0.000244614
-0.00323606
-0.00495293
-0.00472174
-0.00340941
-0.00147261
0.00165086
0.0077921
0.0118957
0.0154144
0.0175458
0.017947
0.0162923
0.0124184
0.00647213
-0.000890835
-0.00834621
-0.0140053
-0.0159795
-0.0135978
-0.00823423
-0.00172275
0.00526157
0.0118971
0.0156008
0.0189925
0.0206647
0.020361
0.0175827
0.0119443
0.0036092
-0.00651431
-0.0165436
-0.0239766
-0.0261479
-0.0218473
-0.0129148
-0.00255953
0.00831558
0.0135732
0.0158302
0.0189317
0.0203337
0.0197577
0.0165288
0.0100446
0.000501871
-0.0112714
-0.0226444
-0.0309953
-0.0331685
-0.0275941
-0.0164057
-0.00388737
0.00990382
0.0124418
0.0126031
0.0150897
0.0163852
0.0160323
0.0132237
0.00709856
-0.00229061
-0.013817
-0.0251513
-0.0333143
-0.0351541
-0.0290876
-0.0173906
-0.00473019
0.00947844
0.00892859
0.00667125
0.00804369
0.00919004
0.00966336
0.00821311
0.00374674
-0.00389706
-0.0136553
-0.0233782
-0.0302581
-0.0314336
-0.0256278
-0.0151191
-0.00444666
0.00754114
0.00394398
-0.000802314
-0.00101702
7.84994e-05
0.0017074
0.00237592
0.000636933
-0.00397695
-0.0106823
-0.0176308
-0.022398
-0.0227173
-0.01779
-0.00975192
-0.00263051
0.00472027
-0.00136721
-0.00850077
-0.0105517
-0.00949518
-0.00643091
-0.00321372
-0.0016387
-0.00253381
-0.00548686
-0.00907003
-0.0113984
-0.010879
-0.00721088
-0.00232576
0.000450662
0.0017548
-0.00569704
-0.0149698
-0.0187116
-0.0176251
-0.0131537
-0.0074862
-0.00271212
2.46663e-05
0.000773978
0.000498486
0.00049154
0.0016811
0.00393799
0.00560944
0.00410857
-0.000545474
-0.00874292
-0.0197555
-0.0243713
-0.02289
-0.0171464
-0.00962783
-0.00254811
0.00287896
0.00650804
0.00889918
0.0107679
0.012421
0.013366
0.0122104
0.00708226
-0.00215227
-0.011854
-0.0230184
-0.0267023
-0.0239354
-0.0171679
-0.00891509
-0.00113064
0.00543738
0.0106724
0.0147407
0.0177733
0.01951
0.0191516
0.0154834
0.00731012
-0.00404788
-0.0055723
-0.0139249
-0.0161833
-0.0147625
-0.0104885
-0.00421014
0.00337892
0.0112718
0.0182652
0.0233271
0.0258017
0.0253603
0.022034
0.0160778
0.00798726
0.0010772
-0.000728374
-0.00669769
-0.00931455
-0.00886277
-0.00474228
0.00242403
0.0108133
0.018499
0.0242316
0.0275149
0.0283214
0.0267212
0.0229251
0.0173477
0.0109757
0.00612763
-0.00570013
-0.00877841
-0.00787492
-0.00511898
-0.00102954
0.00408637
0.00989669
0.01551
0.0198593
0.0223044
0.0227488
0.0212355
0.0176871
0.012059
0.00515769
0.00028725
-0.00243915
-0.00296881
-0.00123167
0.000946137
0.00352651
0.00683121
0.0108631
0.014801
0.0175229
0.0184114
0.0175687
0.0153713
0.0120405
0.0076646
0.00313197
0.00114514
0.00130322
0.00267039
0.00478963
0.00645543
0.00784351
0.00943183
0.0112788
0.0127127
0.0128767
0.0115697
0.00941998
0.00723483
0.00532027
0.00343976
0.00197942
0.0025276
0.0052547
0.00774167
0.0100836
0.0114305
0.0119304
0.0118762
0.0112064
0.00944596
0.0062597
0.00216056
-0.00145114
-0.0031861
-0.00275245
-0.00109262
0.00109508
0.00440217
0.00880395
0.0115862
0.0141366
0.0153434
0.0151994
0.0136378
0.0103825
0.00519826
-0.00160817
-0.00871791
-0.0139151
-0.0151234
-0.0119887
-0.00633349
-0.000209897
0.00636497
0.0107451
0.0131754
0.0159879