/*--------------------------------*- C++ -*----------------------------------*\
| =========                 |                                                 |
| \\      /  F ield         | OpenFOAM: The Open Source CFD Toolbox           |
|  \\    /   O peration     | Version:  3.0.0                                 |
|   \\  /    A nd           | Web:      www.OpenFOAM.org                      |
|    \\/     M anipulation  |                                                 |
\*---------------------------------------------------------------------------*/
FoamFile
{
    version     2.0;
    format      ascii;
    class       surfaceScalarField;
    location    "4";
    object      phi;
}
// * * * * * * * * * * * * * * * * * * * * * * * * * * * * * * * * * * * * * //

dimensions      [0 3 -1 0 0 0 0];

internalField   nonuniform List<scalar> 
11520
(
-3.28561e-05
-0.000688961
0.000278136
6.09819e-05
-0.000621435
0.000275447
0.00011483
-0.000481975
0.000236978
0.000117445
-0.000269196
0.00015161
6.69835e-05
-4.4121e-08
2.09797e-05
-2.50539e-05
0.00027973
-0.000128195
-0.000139485
0.000502616
-0.000255552
-0.000256654
0.000614208
-0.000333435
-0.000360426
0.00059982
-0.000355321
-0.000436649
0.000479082
-0.000325975
-0.000474845
0.000287724
-0.000254158
-0.000470149
6.36814e-05
-0.000152968
-0.000426556
-0.00015855
-3.85688e-05
-0.000351072
-0.00035376
7.04989e-05
-0.000254924
-0.000504082
0.0001612
-0.000591331
0.000224621
-0.000101994
-0.000712489
0.000200879
-3.59349e-05
-0.000633696
0.000187505
3.62515e-06
-0.000480132
0.000152528
9.5903e-06
-0.000250706
8.49735e-05
-2.24934e-05
3.59425e-05
-1.82864e-05
-9.24128e-05
0.000331689
-0.000142704
-0.00019186
0.00056599
-0.000257189
-0.000301051
0.000678603
-0.000330277
-0.000395284
0.000652576
-0.000346265
-0.000456026
0.000511997
-0.00030662
-0.000476211
0.00029973
-0.000224538
-0.000459041
5.9276e-05
-0.000119992
-0.000412049
-0.000173979
-1.53201e-05
-0.000344255
-0.00037518
7.34989e-05
-0.000265502
-0.00052792
0.000137839
-0.000612742
0.000175629
-0.000155406
-0.000708489
0.000110082
-0.000108875
-0.000628309
8.92939e-05
-8.09475e-05
-0.000471166
6.07697e-05
-7.57021e-05
-0.00023657
1.31161e-05
-9.568e-05
5.53357e-05
-5.85498e-05
-0.000141073
0.000358175
-0.00015015
-0.000208948
0.000601364
-0.000238633
-0.000287406
0.000719851
-0.000294305
-0.000357735
0.000691656
-0.000297921
-0.000404443
0.000542446
-0.000249775
-0.000421519
0.000320627
-0.00016599
-0.000411038
7.34037e-05
-7.03524e-05
-0.000378469
-0.000164048
1.4658e-05
-0.000329835
-0.000368537
7.46009e-05
-0.000271995
-0.000523949
0.00010666
-0.000609163
0.000116369
-0.000185498
-0.000678743
1.66749e-05
-0.000156801
-0.000607667
-8.59093e-06
-0.000138295
-0.000458132
-2.8658e-05
-0.000131423
-0.000230955
-5.31851e-05
-0.000135796
5.39121e-05
-9.11756e-05
-0.000151839
0.000352897
-0.000143311
-0.000181469
0.000599926
-0.000196672
-0.000223015
0.000729088
-0.00022762
-0.000267432
0.000711797
-0.000216863
-0.000303332
0.000569744
-0.000163224
-0.000323845
0.000352511
-8.36311e-05
-0.000327482
0.000108625
-3.44894e-06
-0.000315592
-0.000127329
5.48696e-05
-0.000290543
-0.000333321
8.0378e-05
-0.000256295
-0.000492674
7.61901e-05
-0.000583001
5.5564e-05
-0.00018509
-0.000626133
-6.42928e-05
-0.000172555
-0.000573806
-9.49764e-05
-0.000161182
-0.000442532
-0.000106484
-0.000150333
-0.000235099
-0.0001087
-0.000138082
3.00752e-05
-0.000112254
-0.000125212
0.000314592
-0.00012293
-0.000117747
0.000560023
-0.0001366
-0.000123081
0.000703383
-0.000138342
-0.000142212
0.0007095
-0.00011216
-0.000168393
0.000590876
-5.56857e-05
-0.000193879
0.000392424
1.56115e-05
-0.000213173
0.000162151
7.6148e-05
-0.000223369
-6.62692e-05
0.000104657
-0.000223066
-0.000271412
9.37932e-05
-0.000212972
-0.00043551
5.25699e-05
-0.000535988
1.25081e-06
-0.000149857
-0.00055524
-0.000123903
-0.000150148
-0.00052869
-0.000159696
-0.000144152
-0.000425002
-0.000164578
-0.000129923
-0.000247766
-0.000148326
-0.000104934
-1.25801e-05
-0.000122605
-7.01119e-05
0.000248414
-9.63504e-05
-3.33044e-05
0.000485791
-7.20109e-05
-7.71836e-06
0.000642872
-4.35361e-05
-1.956e-06
0.000680338
-1.02241e-06
-1.7145e-05
0.000598321
5.81323e-05
-4.52714e-05
0.000432789
0.000119487
-7.79465e-05
0.00022709
0.000159764
-0.000108054
1.31423e-05
0.000159504
-0.000130484
-0.000187874
0.00011479
-0.000142377
-0.000356765
3.97938e-05
-0.000471653
-3.99747e-05
-8.09789e-05
-0.000474632
-0.000153214
-8.95173e-05
-0.000477035
-0.000194668
-8.71902e-05
-0.000406556
-0.000196518
-7.17994e-05
-0.00026579
-0.000168972
-4.09024e-05
-6.67339e-05
-0.00012405
4.78383e-06
0.000164693
-7.18323e-05
5.78582e-05
0.000387807
-1.84312e-05
0.000104757
0.000553796
3.59284e-05
0.000129641
0.00062241
9.40844e-05
0.00012703
0.000584452
0.000156
0.000101108
0.000462767
0.00020946
6.13568e-05
0.000292088
0.000233429
1.77295e-05
0.000100269
0.00021072
-2.13833e-05
-9.20757e-05
0.00014019
-4.95912e-05
-0.00026469
3.96495e-05
-0.000396528
-6.24726e-05
1.38735e-05
-0.000395613
-0.00014841
2.97958e-06
-0.000425793
-0.000194401
3.80956e-06
-0.00038902
-0.000197248
1.79854e-05
-0.000285403
-0.000167668
4.74336e-05
-0.000123285
-0.000116994
9.18431e-05
7.68165e-05
-5.43846e-05
0.000145718
0.000281629
1.33833e-05
0.000197099
0.000449564
8.24671e-05
0.000231034
0.000543399
0.000150977
0.000237918
0.000547338
0.000215393
0.000218204
0.000472491
0.000264316
0.000179979
0.000342831
0.000279438
0.000133619
0.000179647
0.0002457
8.877e-05
1.2627e-06
0.000163244
5.38878e-05
-0.000172183
5.1012e-05
-0.000320451
-6.20384e-05
0.000119838
-0.000330672
-0.000111006
0.000113628
-0.000383809
-0.00015722
0.000116313
-0.000375532
-0.000164058
0.000128012
-0.000303388
-0.000141916
0.000149992
-0.000173179
-9.99894e-05
0.000182417
-1.35814e-06
-4.41953e-05
0.000222125
0.000184664
2.08449e-05
0.000261206
0.000349363
9.04692e-05
0.000288524
0.000459049
0.000159954
0.000295282
0.000495101
0.000223135
0.000280492
0.000459929
0.000269151
0.000250437
0.000367994
0.000282728
0.000213657
0.000234101
0.00025121
0.000177899
7.30718e-05
0.000174487
0.000150299
-9.69786e-05
6.92945e-05
-0.000256836
-3.7805e-05
0.000217299
-0.000292237
-4.81925e-05
0.000223249
-0.000360123
-8.69334e-05
0.00023186
-0.000369722
-9.83954e-05
0.000241572
-0.00031782
-9.14653e-05
0.000252566
-0.000209141
-7.14421e-05
0.000265198
-5.78399e-05
-3.84982e-05
0.000278937
0.000112545
7.59712e-06
0.000290992
0.000271221
6.38019e-05
0.000296234
0.000387733
0.000124047
0.000290455
0.000442455
0.000180434
0.000274487
0.000432233
0.000222773
0.000254175
0.000365066
0.000239278
0.000235728
0.000252051
0.000220638
0.000222823
0.00010597
0.000166266
0.000217404
-5.74293e-05
8.79951e-05
-0.000220083
6.76803e-06
0.000285936
-0.000288721
2.94918e-05
0.000310392
-0.000361379
7.05644e-06
0.000329142
-0.000375124
-7.76373e-06
0.000339126
-0.000328385
-2.06421e-05
0.000338419
-0.0002269
-3.22691e-05
0.000326947
-8.4588e-05
-3.48175e-05
0.00030687
7.6675e-05
-2.05545e-05
0.000281524
0.000228902
1.11038e-05
0.000253486
0.000344239
5.39094e-05
0.0002256
0.000403331
9.88909e-05
0.000202534
0.000399934
0.000136713
0.000190557
0.000339215
0.00015909
0.000193548
0.000232159
0.000160315
0.000210631
9.25496e-05
0.000139595
0.000236875
-6.41313e-05
0.000103178
-0.000220258
6.32249e-05
0.000312306
-0.000321128
0.000111265
0.0003585
-0.000386768
0.000108671
0.000390437
-0.00039091
9.35426e-05
0.000403132
-0.000335083
6.01075e-05
0.000391847
-0.00022579
1.23846e-05
0.00035523
-7.83948e-05
-3.32361e-05
0.000297855
8.26682e-05
-5.8769e-05
0.000230298
0.000229684
-5.83336e-05
0.000164533
0.000336652
-3.73895e-05
0.000111267
0.000385444
-5.29809e-06
7.96729e-05
0.000370347
2.92824e-05
7.57002e-05
0.000297533
6.15097e-05
9.98888e-05
0.000181077
8.76166e-05
0.000146559
3.82206e-05
0.000105597
0.000204885
-0.000113757
0.000116127
-0.000257441
0.000122733
0.000295819
-0.000381707
0.000187658
0.000362061
-0.000429673
0.000202627
0.000406451
-0.000413702
0.000187271
0.000422468
-0.000337255
0.000135437
0.000402296
-0.000206669
5.27165e-05
0.000341724
-4.07036e-05
-3.65181e-05
0.000248111
0.000129762
-0.000103782
0.000139971
0.000273129
-0.000136019
3.93663e-05
0.000364575
-0.00013707
-3.49851e-05
0.0003893
-0.000116034
-7.10583e-05
0.000345788
-7.96746e-05
-6.50026e-05
0.00024568
-3.22787e-05
-2.10575e-05
0.000108824
2.18956e-05
5.01847e-05
-4.32807e-05
7.77159e-05
0.000134104
-0.000191852
0.000130238
-0.000320902
0.000176173
0.000245687
-0.000457307
0.000248211
0.000326132
-0.000479643
0.000272161
0.000378611
-0.000437246
0.000254958
0.000395569
-0.000333279
0.000188902
0.000366733
-0.000172422
7.82037e-05
0.000285362
2.3203e-05
-4.86851e-05
0.000160376
0.000212461
-0.000153383
1.85187e-05
0.00035369
-0.000214716
-0.000107584
0.000421767
-0.000233494
-0.000192739
0.00040897
-0.00021758
-0.000225134
0.000323829
-0.000173229
-0.000205795
0.000187478
-0.000106185
-0.000144461
2.59428e-05
-2.43164e-05
-5.56384e-05
-0.000136365
6.25596e-05
4.48775e-05
-0.000281312
0.000144914
-0.000395684
0.000215423
0.00017446
-0.000537737
0.000281138
0.000261945
-0.000529855
0.00030436
0.0003159
-0.00045685
0.000283408
0.000328105
-0.000320815
0.00020845
0.000288249
-0.000124982
8.01352e-05
0.000188919
0.000107161
-7.45788e-05
4.03805e-05
0.000322238
-0.000210314
-0.000123361
0.000461854
-0.000295493
-0.000259759
0.000497054
-0.000323866
-0.00034111
0.000434402
-0.000302501
-0.00036096
0.000300368
-0.000241517
-0.000327189
0.000126839
-0.000152463
-0.000253711
-5.70136e-05
-4.84474e-05
-0.000155504
-0.000227916
5.75195e-05
-4.71324e-05
-0.000369513
0.000154123
-0.00047097
0.000232911
9.99432e-05
0.000268252
0.000187508
0.000285873
0.000235149
0.000264407
0.000231906
0.000189665
0.000169937
5.46935e-05
5.19022e-05
-0.000119181
-0.000103347
-0.000281732
-0.000260735
-0.00038443
-0.000383575
-0.000409485
-0.000450278
-0.000367572
-0.000458089
-0.000280466
-0.00041635
-0.000169965
-0.000338198
-5.42752e-05
-0.000237651
5.37227e-05
-0.000127679
0.000145761
0.000216761
3.28907e-05
-0.000744537
0.000211515
0.000134091
-0.000652865
0.000217368
0.000188464
-0.000474156
0.000193876
0.000186742
-0.000218445
0.000130883
0.000128688
8.04866e-05
2.98252e-05
2.65989e-05
0.000360856
-8.70156e-05
-9.9463e-05
0.000556454
-0.000188161
-0.000228913
0.000630951
-0.000254345
-0.000344165
0.00058668
-0.000280702
-0.000429918
0.000447789
-0.000268049
-0.000474502
0.000245353
-0.000219653
-0.000469867
9.38155e-06
-0.000143589
-0.000420364
-0.000224478
-5.40311e-05
-0.000332359
-0.000432728
3.45918e-05
-0.000219813
-0.000590359
0.000110545
-0.00067563
0.000166613
-4.08625e-05
-0.000760953
0.000124021
2.75246e-05
-0.000657681
0.000123933
6.82118e-05
-0.000470684
0.000108369
7.55311e-05
-0.000206944
6.61537e-05
4.31699e-05
0.000102831
-8.26927e-06
-3.2646e-05
0.000398767
-0.000104799
-0.00014366
0.00060856
-0.000198281
-0.000266771
0.00068655
-0.000262766
-0.000374267
0.000632256
-0.000284345
-0.000445566
0.000474353
-0.000261885
-0.000471156
0.000250387
-0.000203983
-0.000453495
-1.96396e-06
-0.000126308
-0.000398028
-0.000249382
-4.58837e-05
-0.000317678
-0.000462025
2.24461e-05
-0.000225021
-0.000617657
7.24795e-05
-0.000695149
0.000104264
-9.70668e-05
-0.000749222
3.38588e-05
-5.01272e-05
-0.000643859
2.85327e-05
-2.19955e-05
-0.000459014
2.09676e-05
-1.51924e-05
-0.000199532
-1.0996e-06
-3.29602e-05
0.000108749
-4.67004e-05
-8.11577e-05
0.00041103
-0.000114215
-0.000159517
0.000634288
-0.000186003
-0.000253784
0.000722883
-0.00023637
-0.000340423
0.000668377
-0.000247403
-0.000399654
0.000500961
-0.000217153
-0.000422408
0.000264517
-0.000157366
-0.000409121
1.64729e-06
-8.72508e-05
-0.000366544
-0.00025129
-2.60103e-05
-0.000303767
-0.000465083
1.4882e-05
-0.000231517
-0.000617839
3.45923e-05
-0.000689208
4.04688e-05
-0.000132127
-0.000714139
-5.67822e-05
-0.000103445
-0.00061542
-6.57118e-05
-8.5542e-05
-0.000441777
-6.37984e-05
-7.77064e-05
-0.00019683
-6.37229e-05
-8.07085e-05
9.78836e-05
-7.7308e-05
-9.95359e-05
0.000395491
-0.000108944
-0.000140045
0.000627659
-0.000149534
-0.000199256
0.000732723
-0.000178249
-0.000262264
0.000690898
-0.000176376
-0.000311794
0.000527942
-0.000140675
-0.000337336
0.00029066
-8.42318e-05
-0.000336535
2.58323e-05
-2.84346e-05
-0.000312452
-0.000227992
7.48857e-06
-0.00027115
-0.000441219
1.52122e-05
-0.000220928
-0.000592041
1.69807e-07
-0.00066145
-2.26204e-05
-0.000139983
-0.000657912
-0.000136899
-0.000126594
-0.000574781
-0.000149005
-0.000116105
-0.000421308
-0.000137442
-0.000105749
-0.000200734
-0.000115152
-9.43704e-05
7.01416e-05
-9.58901e-05
-8.62246e-05
0.000353217
-8.88023e-05
-9.09771e-05
0.000588713
-9.29005e-05
-0.000115407
0.000713852
-9.5042e-05
-0.000154543
0.000696799
-7.89251e-05
-0.000195049
0.000552745
-3.99833e-05
-0.00022502
0.000327142
9.10044e-06
-0.000238612
6.9278e-05
4.62947e-05
-0.000234808
-0.000180329
5.31893e-05
-0.000216164
-0.000391213
2.51429e-05
-0.000188229
-0.000541287
-2.61194e-05
-0.000613537
-7.85281e-05
-0.000116728
-0.000586335
-0.000195929
-0.000114184
-0.000525492
-0.00021153
-0.000108593
-0.000399522
-0.000191954
-9.61642e-05
-0.000210915
-0.000150574
-7.45531e-05
2.83159e-05
-0.00010239
-4.67227e-05
0.000288586
-5.95499e-05
-2.30488e-05
0.000520274
-2.72458e-05
-1.66219e-05
0.000664387
-4.9734e-07
-3.20395e-05
0.000680058
3.11353e-05
-6.22709e-05
0.000568751
7.23575e-05
-9.57342e-05
0.000368235
0.000111857
-0.000122894
0.000127341
0.000128861
-0.000138378
-0.000112057
0.000106715
-0.000141005
-0.000318357
4.45603e-05
-0.000133239
-0.00046893
-4.03295e-05
-0.000549117
-0.000120457
-6.21237e-05
-0.000506994
-0.000225083
-6.49246e-05
-0.000472353
-0.000245005
-6.1726e-05
-0.000378376
-0.000220864
-4.88233e-05
-0.000225847
-0.000166943
-2.33057e-05
-2.24588e-05
-9.87929e-05
1.36346e-05
0.000209425
-2.96115e-05
5.35281e-05
0.00042983
3.21191e-05
8.2069e-05
0.000587004
8.47706e-05
8.71869e-05
0.000636752
0.000132273
6.83143e-05
0.000567295
0.000176329
3.45409e-05
0.000404279
0.00020719
-2.32595e-06
0.000191173
0.000206464
-3.28661e-05
-3.08968e-05
0.0001601
-5.22079e-05
-0.000229581
7.07563e-05
-5.95915e-05
-0.000381621
-4.02761e-05
-0.000474239
-0.00014229
1.88545e-05
-0.000429663
-0.000219197
1.72788e-05
-0.000421619
-0.000243559
2.10083e-05
-0.000359928
-0.000219424
3.25806e-05
-0.000242882
-0.000162206
5.50409e-05
-7.48918e-05
-8.7021e-05
8.91992e-05
0.000126961
-6.07851e-06
0.000130089
0.000330609
7.17136e-05
0.000165954
0.000492345
0.00014126
0.000182768
0.000569915
0.000201
0.000173687
0.000543194
0.000248574
0.000143267
0.000424706
0.000274308
0.000103263
0.000248173
0.000262441
6.56609e-05
5.03996e-05
0.000202005
3.82149e-05
-0.000136925
9.80336e-05
2.4205e-05
-0.000290362
-2.62367e-05
-0.000397959
-0.000139512
0.000115091
-0.000365706
-0.000178302
0.000122191
-0.000380913
-0.000205025
0.000130064
-0.000346511
-0.000185349
0.000139096
-0.000258681
-0.000135149
0.000152187
-0.000120386
-6.75867e-05
0.00017224
5.4402e-05
8.31047e-06
0.000198551
0.000239415
8.5729e-05
0.000224361
0.000398124
0.00015888
0.000238375
0.00049296
0.000222894
0.000231932
0.000500861
0.000271911
0.000205867
0.000424224
0.000295698
0.000169912
0.000285867
0.00028099
0.000136035
0.000115696
0.000219791
0.000112855
-5.74528e-05
0.000118195
0.000104304
-0.000211044
-1.47313e-06
-0.000332709
-0.000110503
0.000209791
-0.000326956
-0.000108754
0.000233117
-0.000358524
-0.000132649
0.000249347
-0.000340837
-0.0001203
0.000255915
-0.000270299
-8.64153e-05
0.000255157
-0.000150839
-4.02303e-05
0.000251982
4.31766e-06
1.4761e-05
0.000250312
0.000172677
7.60048e-05
0.000249746
0.000323519
0.000138972
0.000244916
0.000424583
0.000197254
0.000230043
0.000453368
0.000242801
0.000205296
0.000406371
0.000265372
0.000178143
0.000297755
0.000254543
0.000158315
0.000150813
0.000205349
0.000152653
-9.26584e-06
0.000123742
0.000163317
-0.000161413
2.77e-05
-0.00029209
-5.85139e-05
0.000283782
-0.000322469
-2.23723e-05
0.000329277
-0.000360654
-3.63084e-05
0.000357907
-0.000345541
-3.16897e-05
0.000363767
-0.000276436
-2.03655e-05
0.000347566
-0.000160926
-5.98108e-06
0.000315525
-1.41181e-05
1.56594e-05
0.000276571
0.000142787
4.82903e-05
0.000237655
0.000283642
8.98962e-05
0.000201384
0.000381161
0.000133602
0.000168103
0.000415137
0.000170404
0.000140168
0.000379905
0.000191113
0.000123515
0.000284817
0.000188682
0.000124377
0.00014926
0.000161005
0.000145774
-3.9273e-06
0.00011286
0.000185793
-0.000154503
5.62488e-05
-0.000287219
7.74146e-06
0.00032243
-0.000354602
6.6677e-05
0.000391531
-0.000388978
6.78942e-05
0.000434859
-0.000361871
6.65448e-05
0.000442725
-0.000277809
5.36148e-05
0.000412593
-0.000149549
3.11384e-05
0.000350479
2.57651e-06
1.21833e-05
0.000270336
0.000155552
8.60902e-06
0.000187643
0.00028605
2.19513e-05
0.000114343
0.000371473
4.5598e-05
5.83725e-05
0.0003951
7.07095e-05
2.52616e-05
0.000352224
9.00751e-05
1.96752e-05
0.000251975
9.99386e-05
4.35275e-05
0.000113295
9.97294e-05
9.47765e-05
-4.12843e-05
9.17046e-05
0.000166419
-0.000191171
8.11528e-05
-0.000319826
7.60506e-05
0.000320737
-0.000416566
0.000145366
0.000409742
-0.000436959
0.000161603
0.00046616
-0.000387222
0.000156205
0.000477679
-0.00027575
0.000121858
0.000436957
-0.000119943
6.3833e-05
0.000347858
5.16781e-05
3.479e-06
0.000228736
0.000209237
-3.83452e-05
0.000104459
0.000329553
-5.52448e-05
-3.13115e-06
0.00039482
-5.28277e-05
-7.90218e-05
0.00039365
-3.86933e-05
-0.000114875
0.000325961
-1.75586e-05
-0.000108351
0.000204586
8.58496e-06
-6.2494e-05
5.10326e-05
3.83014e-05
1.51678e-05
-0.00011096
6.97303e-05
0.000113237
-0.000260615
0.000101613
-0.000381243
0.000134346
0.000283847
-0.00049552
0.000202865
0.00038466
-0.000493785
0.000228175
0.000448614
-0.0004158
0.000219581
0.000462681
-0.000270835
0.00016992
0.000415126
-7.81119e-05
8.39265e-05
0.000305503
0.000125104
-1.24874e-05
0.000154453
0.0002964
-8.94956e-05
-3.53893e-06
0.000407251
-0.000134422
-0.000136299
0.000444296
-0.00015021
-0.000223017
0.00040524
-0.000142451
-0.000255424
0.000299511
-0.000114372
-0.000235214
0.000147051
-6.88583e-05
-0.000170506
-2.71209e-05
-1.08711e-05
-7.34049e-05
-0.000198488
5.29859e-05
4.17302e-05
-0.000346819
0.000115983
-0.000457138
0.000173501
0.000222077
-0.000580735
0.000231606
0.000325864
-0.000550807
0.000257594
0.000389465
-0.000441622
0.000245629
0.000401098
-0.000261736
0.000187717
0.000347388
-2.91533e-05
8.48866e-05
0.000224536
0.000211495
-3.81181e-05
5.22347e-05
0.000403718
-0.00014533
-0.000126645
0.000504965
-0.000214327
-0.000270043
0.000505341
-0.000241513
-0.000354753
0.000418595
-0.000231145
-0.000376673
0.000269044
-0.00018913
-0.00034301
8.39967e-05
-0.000123072
-0.000265556
-0.000110413
-4.26087e-05
-0.000158115
-0.000290382
4.19722e-05
-3.54242e-05
-0.000436841
0.000121455
-0.000535968
0.000188987
0.000152605
0.000225505
0.000251648
0.000245767
0.000305745
0.000231576
0.000302173
0.000172394
0.000232923
6.35128e-05
0.000101398
-7.61084e-05
-6.88007e-05
-0.000205598
-0.000238885
-0.000289973
-0.000371665
-0.00031741
-0.000446527
-0.000294078
-0.000460077
-0.000233146
-0.000420157
-0.000149284
-0.00033801
-5.63978e-05
-0.000228111
3.40703e-05
-0.000104642
0.00011392
0.00017765
0.000115098
-0.000673115
0.000144524
0.000210055
-0.000572816
0.000164235
0.000257243
-0.000385181
0.000159481
0.000248367
-0.000125126
0.000123409
0.000182914
0.000166342
5.65696e-05
7.26782e-05
0.000422229
-2.66839e-05
-6.16975e-05
0.000580028
-0.000105288
-0.000198026
0.000615921
-0.000166054
-0.00031687
0.000543286
-0.000202747
-0.000402166
0.000390422
-0.000210709
-0.0004421
0.000186894
-0.000187939
-0.000429873
-3.96045e-05
-0.000138662
-0.000369263
-0.000260727
-7.39091e-05
-0.000269162
-0.000451251
-5.76113e-06
-0.000146058
-0.000588524
5.63289e-05
-0.000655212
0.000105351
3.3426e-05
-0.000693469
5.27011e-05
9.82767e-05
-0.000581323
6.75898e-05
0.000136151
-0.000388013
7.33267e-05
0.00014289
-0.000124869
5.91575e-05
0.000110232
0.000174198
1.65321e-05
3.13723e-05
0.000446367
-5.00775e-05
-8.54227e-05
0.000621906
-0.000123363
-0.000214402
0.000664579
-0.000182444
-0.000326183
0.000583893
-0.000213171
-0.000399689
0.000412631
-0.000210588
-0.000425067
0.000186914
-0.000178625
-0.000403017
-5.93817e-05
-0.00012858
-0.000340951
-0.000294213
-7.44623e-05
-0.000252726
-0.000489502
-2.75279e-05
-0.000153634
-0.000623062
7.92513e-06
-0.00067923
3.28958e-05
-3.02521e-05
-0.000685689
-3.63926e-05
1.27472e-05
-0.000569161
-2.66291e-05
3.93934e-05
-0.000380289
-1.34027e-05
4.9195e-05
-0.000126465
-9.30475e-06
3.64489e-05
0.000166092
-2.58482e-05
-8.89291e-06
0.000443489
-6.59954e-05
-8.93364e-05
0.000635228
-0.00011888
-0.0001896
0.000692152
-0.00016368
-0.000283403
0.000613362
-0.000183069
-0.000348522
0.000432533
-0.000171935
-0.00037383
0.000192396
-0.00013754
-0.000358881
-6.67089e-05
-9.48729e-05
-0.000310878
-0.000308881
-5.93451e-05
-0.000241765
-0.000504109
-3.96245e-05
-0.00016499
-0.000631127
-3.41181e-05
-0.000676669
-3.43583e-05
-7.84995e-05
-0.000653653
-0.000125683
-5.30916e-05
-0.000540388
-0.000119893
-3.54271e-05
-0.0003638
-9.79526e-05
-2.32272e-05
-0.000128577
-7.38109e-05
-1.89536e-05
0.000145829
-6.13178e-05
-3.19211e-05
0.000415963
-6.84505e-05
-7.2193e-05
0.00061744
-9.14751e-05
-0.000137331
0.000693295
-0.000114253
-0.000209373
0.000628402
-0.000119375
-0.000267104
0.000450788
-0.000101199
-0.000296967
0.000206767
-6.87399e-05
-0.000295402
-5.73787e-05
-3.93294e-05
-0.000266666
-0.00030143
-2.8699e-05
-0.000219867
-0.000493604
-4.20918e-05
-0.000166181
-0.000613439
-7.12029e-05
-0.000650698
-9.94093e-05
-0.000105466
-0.000600065
-0.000206574
-9.37227e-05
-0.000497845
-0.00020329
-8.22021e-05
-0.000341088
-0.000171675
-6.70267e-05
-0.000132343
-0.000126562
-4.8563e-05
0.00011515
-8.36756e-05
-3.46981e-05
0.0003682
-5.49044e-05
-3.89739e-05
0.000571995
-4.31791e-05
-6.93798e-05
0.000668045
-3.93867e-05
-0.000118168
0.000627052
-2.87882e-05
-0.00016763
0.000465772
-5.5045e-06
-0.000202443
0.000229496
2.11844e-05
-0.000215541
-3.09205e-05
3.29345e-05
-0.000207359
-0.000271124
1.47013e-05
-0.000183553
-0.000457506
-3.47613e-05
-0.000152531
-0.000570389
-0.000100191
-0.000603005
-0.0001572
-0.000105504
-0.000530059
-0.000268285
-0.000102572
-0.000445741
-0.000266566
-9.47496e-05
-0.000315191
-0.000225673
-7.76663e-05
-0.000138734
-0.000161265
-5.04209e-05
7.60392e-05
-9.05247e-05
-1.87911e-05
0.000304965
-2.79449e-05
3.80201e-06
0.000503669
1.84869e-05
4.01446e-06
0.000616911
5.04243e-05
-2.12398e-05
0.000606158
7.72837e-05
-6.04191e-05
0.000473375
0.000103933
-9.85859e-05
0.000257522
0.000121998
-0.000125191
1.07513e-05
0.000113794
-0.000136308
-0.000219398
6.61058e-05
-0.000133699
-0.000397485
-1.80696e-05
-0.000122567
-0.000504555
-0.000117295
-0.000537234
-0.000200941
-7.54734e-05
-0.000451077
-0.000301355
-7.56583e-05
-0.000389547
-0.000301015
-6.92539e-05
-0.000289384
-0.000253074
-5.23265e-05
-0.000148196
-0.000174408
-2.31785e-05
3.12808e-05
-8.31825e-05
1.5108e-05
0.000232062
5.00483e-06
5.23561e-05
0.00041899
7.95495e-05
7.36341e-05
0.00054376
0.000136643
6.89812e-05
0.000563984
0.000179101
4.12824e-05
0.000468572
0.000208831
2.81437e-06
0.000285165
0.000218016
-3.36357e-05
6.2504e-05
0.000191162
-6.01553e-05
-0.000150779
0.000118
-7.40636e-05
-0.000318356
5.53571e-06
-7.72895e-05
-0.000421545
-0.00012006
-0.000459575
-0.000224476
-1.62676e-05
-0.000372797
-0.00029917
-1.30579e-05
-0.000335791
-0.000300526
-5.61803e-06
-0.000266598
-0.00024965
8.74468e-06
-0.000159689
-0.000165076
3.23351e-05
-1.41875e-05
-6.51431e-05
6.51303e-05
0.000157934
3.52545e-05
0.000101574
0.000328797
0.000125463
0.000129938
0.000457671
0.000198986
0.000137584
0.00050386
0.000253477
0.000120222
0.000448002
0.000286507
8.49053e-05
0.000305171
0.000289618
4.43477e-05
0.000115737
0.000249767
9.89074e-06
-7.45893e-05
0.000160273
-1.22614e-05
-0.000229708
3.1538e-05
-2.08839e-05
-0.000331239
-0.000107921
-0.00037903
-0.00022298
6.56522e-05
-0.000306589
-0.000259765
7.93645e-05
-0.000291878
-0.000262649
9.07148e-05
-0.00024918
-0.000214117
0.000100304
-0.000170372
-0.000134055
0.000111111
-5.29675e-05
-3.96141e-05
0.000126525
9.37986e-05
5.70315e-05
0.000146519
0.00024723
0.000147302
0.000164989
0.000373459
0.000224622
0.000171505
0.000436534
0.000283705
0.000158616
0.000414419
0.000318383
0.000128345
0.000312191
0.000318948
9.10243e-05
0.000159505
0.000274543
5.8725e-05
-4.5078e-06
0.000182008
3.9822e-05
-0.000146306
5.36955e-05
3.74953e-05
-0.00024777
-8.26151e-05
-0.000308199
-0.000194236
0.000157342
-0.000264469
-0.000187579
0.000188695
-0.000265771
-0.00019011
0.000207381
-0.000239346
-0.00014882
0.000210981
-0.000176726
-8.36609e-05
0.000203072
-7.66961e-05
-8.59271e-06
0.000190858
5.17805e-05
6.89926e-05
0.000180464
0.000189375
0.000144253
0.000172786
0.000308067
0.000212043
0.00016297
0.000377624
0.00026598
0.000145085
0.000377247
0.000297858
0.000118709
0.000306291
0.000297648
9.08199e-05
0.000184967
0.00025697
7.16156e-05
4.44421e-05
0.000175604
6.91435e-05
-8.59398e-05
6.58482e-05
8.63521e-05
-0.00018878
-4.8499e-05
-0.000261008
-0.000139989
0.000241074
-0.000256101
-9.4284e-05
0.000295622
-0.000264485
-9.21427e-05
0.000325343
-0.0002397
-6.10561e-05
0.000323668
-0.000176638
-1.87781e-05
0.000293967
-7.89846e-05
2.60081e-05
0.00024726
4.15867e-05
7.25599e-05
0.00019651
0.000167417
0.000121
0.00015065
0.00027555
0.000168273
0.00011233
0.00034156
0.000207986
8.03885e-05
0.00034791
0.000231682
5.48705e-05
0.000292123
0.000230799
3.99055e-05
0.000188484
0.00020013
4.20134e-05
6.17479e-05
0.000141591
6.64066e-05
-6.29169e-05
6.54437e-05
0.000113551
-0.000168671
-1.10046e-05
-0.000249365
-6.7882e-05
0.000299441
-0.000284871
3.47423e-06
0.000378631
-0.000290939
1.51592e-05
0.000422056
-0.000252532
3.59519e-05
0.000418065
-0.000170983
5.19515e-05
0.000367727
-5.82081e-05
6.06997e-05
0.000284817
6.73763e-05
6.93035e-05
0.000189671
0.000187304
8.38674e-05
0.000100348
0.000283062
0.000103762
2.79988e-05
0.000336209
0.000123299
-2.25018e-05
0.00033376
0.000135361
-4.91977e-05
0.000274587
0.000134308
-5.01304e-05
0.000171148
0.000118207
-2.31973e-05
4.48658e-05
8.96784e-05
3.22291e-05
-8.18534e-05
5.52147e-05
0.00011245
-0.000192199
2.44602e-05
-0.000277228
8.89495e-06
0.000321932
-0.000345168
8.86101e-05
0.000421368
-0.000340589
0.000111817
0.000477938
-0.00027742
0.000124522
0.000475456
-0.000163073
0.00011643
0.000409864
-1.86959e-05
8.9913e-05
0.000295064
0.000126018
5.96379e-05
0.000158481
0.000247063
3.84796e-05
2.81509e-05
0.000329256
2.88915e-05
-7.60557e-05
0.000360916
2.66716e-05
-0.00014354
0.000335317
2.7233e-05
-0.000170594
0.000255733
2.83504e-05
-0.000157479
0.0001365
3.01179e-05
-0.000106754
-1.30691e-06
3.37487e-05
-2.3205e-05
-0.000136447
4.0775e-05
8.52218e-05
-0.000252333
5.33206e-05
-0.000337796
7.5256e-05
0.000307981
-0.000424667
0.000148334
0.000418249
-0.00040275
0.000180067
0.0004831
-0.000309967
0.000187278
0.000484551
-0.000156542
0.000161937
0.000412004
3.02432e-05
0.000107534
0.000274975
0.000207486
4.30732e-05
0.000105571
0.000338401
-1.14295e-05
-5.7667e-05
0.000406775
-4.8704e-05
-0.000185667
0.000408683
-6.99769e-05
-0.000263341
0.000347368
-7.68276e-05
-0.000287045
0.000234389
-6.9325e-05
-0.000260178
8.86689e-05
-4.7894e-05
-0.000189774
-6.7766e-05
-1.4816e-05
-8.53533e-05
-0.000214284
2.64016e-05
4.07971e-05
-0.000334462
7.19613e-05
-0.000417041
0.000119593
0.000264792
-0.000511737
0.000177583
0.000375358
-0.00046688
0.000211159
0.000440317
-0.0003435
0.000214204
0.000443583
-0.000152289
0.000180198
0.000370737
7.87005e-05
0.000109275
0.000224104
0.000296308
1.96926e-05
3.52157e-05
0.000445402
-6.34425e-05
-0.000147963
0.000500034
-0.000124407
-0.000287225
0.000464901
-0.00015847
-0.000365404
0.000359661
-0.000165259
-0.000381677
0.000207811
-0.000146279
-0.000343284
3.27202e-05
-0.000105516
-0.000260421
-0.000143841
-4.93967e-05
-0.000145295
-0.000301909
1.44705e-05
-1.21178e-05
-0.000425171
7.89882e-05
-0.000502236
0.000138364
0.000205361
0.0001792
0.000308083
0.000207159
0.000363282
0.000205266
0.000356945
0.000167917
0.000279461
9.20646e-05
0.000136359
-9.02371e-06
-4.38314e-05
-0.000108531
-0.000218771
-0.000182883
-0.000352447
-0.00022123
-0.000426816
-0.000222514
-0.000439519
-0.000191305
-0.000397726
-0.000135907
-0.000311682
-6.62887e-05
-0.000195399
7.38141e-06
-6.3986e-05
7.69721e-05
0.000136058
0.000195544
-0.000505115
8.92243e-05
0.000278123
-0.000406467
0.000124587
0.000313751
-0.000233104
0.000140956
0.000297024
-1.85577e-06
0.000133915
0.000226401
0.000250324
0.000100067
0.000113245
0.000455868
4.57689e-05
-2.24466e-05
0.000561677
-1.83982e-05
-0.00015748
0.000554888
-8.2111e-05
-0.000271485
0.000457122
-0.000134669
-0.000348649
0.000299789
-0.000165175
-0.000378159
0.000111244
-0.00016723
-0.000355519
-8.43212e-05
-0.000142376
-0.000284606
-0.00026479
-9.90617e-05
-0.000177203
-0.000410225
-4.71633e-05
-5.10817e-05
-0.000504422
5.19567e-06
-0.000538011
5.1144e-05
0.000113516
-0.000535952
-3.81797e-07
0.000170156
-0.000425125
2.96075e-05
0.000202074
-0.000246752
5.50568e-05
0.000205709
-1.27606e-05
6.64275e-05
0.000173564
0.000244902
5.40992e-05
9.67174e-05
0.000468025
1.46111e-05
-1.69637e-05
0.0005947
-4.27051e-05
-0.000141845
0.000598094
-0.000100769
-0.00024929
0.000494802
-0.000143406
-0.000319108
0.000320238
-0.000161219
-0.000341584
0.000109081
-0.000153986
-0.000316422
-0.000108485
-0.000129578
-0.000251496
-0.000305247
-9.89303e-05
-0.000161353
-0.000457696
-7.02002e-05
-6.29083e-05
-0.000549257
-4.56848e-05
-0.000572549
-2.50705e-05
4.08499e-05
-0.000537831
-8.87066e-05
7.65195e-05
-0.000421121
-6.63027e-05
9.95179e-05
-0.000247393
-3.576e-05
0.000111216
-2.47964e-05
-8.96674e-06
0.000105325
0.000223571
1.37358e-06
6.90568e-05
0.000450764
-1.24659e-05
-3.54896e-06
0.000595235
-4.68102e-05
-9.89236e-05
0.000616052
-8.62634e-05
-0.000191019
0.000517364
-0.000113535
-0.000256686
0.000334137
-0.000120168
-0.000283234
0.000107431
-0.000109342
-0.000268861
-0.000125366
-9.23653e-05
-0.000220846
-0.000331332
-8.12749e-05
-0.000152746
-0.000483979
-8.14409e-05
-7.97588e-05
-0.000567523
-8.88402e-05
-0.000578233
-9.50902e-05
-2.40507e-05
-0.000513136
-0.000178804
-5.66597e-06