/*--------------------------------*- C++ -*----------------------------------*\
| =========                 |                                                 |
| \\      /  F ield         | OpenFOAM: The Open Source CFD Toolbox           |
|  \\    /   O peration     | Version:  3.0.0                                 |
|   \\  /    A nd           | Web:      www.OpenFOAM.org                      |
|    \\/     M anipulation  |                                                 |
\*---------------------------------------------------------------------------*/
FoamFile
{
    version     2.0;
    format      ascii;
    class       volVectorField;
    location    "4";
    object      U;
}
// * * * * * * * * * * * * * * * * * * * * * * * * * * * * * * * * * * * * * //

dimensions      [0 1 -1 0 0 0 0];

internalField   nonuniform List<vector> 
4096
(
(-0.0250862 -0.182066 0.0772961)
(0.0055573 -0.164883 0.0754786)
(0.0251218 -0.128694 0.0645323)
(0.0329521 -0.0742779 0.0411448)
(0.0271082 -0.00712418 0.00505708)
(0.0082308 0.060361 -0.0374274)
(-0.0196567 0.112674 -0.0749444)
(-0.050985 0.139121 -0.098)
(-0.0806663 0.137472 -0.103498)
(-0.104587 0.111547 -0.0930659)
(-0.11955 0.0679575 -0.0703462)
(-0.123641 0.014451 -0.0400498)
(-0.116938 -0.0411318 -0.00734146)
(-0.10103 -0.0916696 0.0227598)
(-0.0786693 -0.131717 0.0470053)
(-0.0526757 -0.155901 0.0631301)
(-0.0381135 -0.177309 0.0587071)
(-0.0160924 -0.158601 0.0538683)
(-0.00233661 -0.121487 0.0432489)
(0.00395422 -0.0652151 0.0238271)
(0.00114225 0.00625008 -0.00551779)
(-0.0118968 0.0810774 -0.0412177)
(-0.0346595 0.140921 -0.074405)
(-0.0632956 0.170024 -0.0953028)
(-0.0910512 0.163986 -0.0987898)
(-0.111702 0.128878 -0.0855677)
(-0.122002 0.0755702 -0.060281)
(-0.121846 0.0151783 -0.0294023)
(-0.112985 -0.0433267 0.000613962)
(-0.0977487 -0.0935093 0.0252878)
(-0.0788391 -0.13141 0.0426083)
(-0.0571547 -0.152598 0.0520491)
(-0.0487368 -0.18332 0.0359857)
(-0.0325697 -0.162295 0.0288976)
(-0.0231165 -0.121834 0.0194775)
(-0.0186057 -0.0616856 0.00492031)
(-0.0200316 0.0131182 -0.0165619)
(-0.0281331 0.0903726 -0.0433582)
(-0.0432245 0.151719 -0.0690404)
(-0.063531 0.180924 -0.0846674)
(-0.0841109 0.173148 -0.0844396)
(-0.0997291 0.13507 -0.0688339)
(-0.107708 0.0786157 -0.0432473)
(-0.108045 0.0155492 -0.0149639)
(-0.102061 -0.0450331 0.00960604)
(-0.0913798 -0.0970169 0.0267021)
(-0.0778573 -0.136311 0.0356699)
(-0.0607941 -0.157693 0.0378357)
(-0.0532592 -0.17926 0.0123019)
(-0.0429322 -0.159117 0.00346588)
(-0.0371974 -0.11903 -0.00417425)
(-0.0338646 -0.0590194 -0.0131306)
(-0.0332646 0.0156418 -0.0256439)
(-0.0355575 0.0932601 -0.0417421)
(-0.041462 0.156125 -0.0575336)
(-0.0513928 0.18733 -0.0660403)
(-0.0634524 0.180569 -0.0617773)
(-0.0742636 0.142277 -0.0448844)
(-0.081429 0.0852291 -0.0207864)
(-0.0842547 0.021765 0.0030784)
(-0.0829876 -0.0391764 0.0205692)
(-0.0782226 -0.0918253 0.0288098)
(-0.0708954 -0.132016 0.0285043)
(-0.059137 -0.154111 0.0228759)
(-0.049871 -0.168343 -0.00863502)
(-0.0453737 -0.151894 -0.0190365)
(-0.0427392 -0.115224 -0.0248433)
(-0.0399483 -0.0588094 -0.0282288)
(-0.036867 0.0123375 -0.031741)
(-0.0333163 0.0876433 -0.0366663)
(-0.0303265 0.151023 -0.0415267)
(-0.0300794 0.185736 -0.0419554)
(-0.033685 0.18354 -0.03363)
(-0.0399113 0.149105 -0.0163325)
(-0.0466628 0.0949332 0.00509789)
(-0.0524204 0.0335498 0.0235703)
(-0.0562711 -0.026291 0.0333944)
(-0.0577401 -0.0790606 0.0325074)
(-0.0567482 -0.120377 0.0228765)
(-0.0507423 -0.144457 0.00938914)
(-0.0379935 -0.152124 -0.0237913)
(-0.038478 -0.141606 -0.0358694)
(-0.0381687 -0.111016 -0.0403232)
(-0.0357039 -0.0612164 -0.0391495)
(-0.0306816 0.00336246 -0.0350889)
(-0.0227424 0.0736764 -0.0302345)
(-0.0129587 0.135902 -0.0249465)
(-0.00430714 0.174573 -0.0173833)
(-0.000121488 0.179872 -0.00495045)
(-0.00158984 0.153453 0.0125569)
(-0.00742605 0.105973 0.0310448)
(-0.0155348 0.0494178 0.0441997)
(-0.0239391 -0.00770991 0.0469118)
(-0.0310972 -0.0599525 0.0377753)
(-0.0358697 -0.102581 0.0198122)
(-0.0354102 -0.129924 -0.000882193)
(-0.0184931 -0.132153 -0.0311089)
(-0.0222401 -0.12895 -0.0448376)
(-0.0233699 -0.106441 -0.048792)
(-0.0212432 -0.065497 -0.0449548)
(-0.015407 -0.00968377 -0.036083)
(-0.00542775 0.0535989 -0.0245626)
(0.00782439 0.112895 -0.0117955)
(0.021504 0.154691 0.00219591)
(0.0313768 0.168567 0.018327)
(0.0343992 0.153088 0.0361598)
(0.0304847 0.115829 0.052355)
(0.0215559 0.0670303 0.0614602)
(0.0102549 0.0145388 0.0588909)
(-0.00098856 -0.0361965 0.043746)
(-0.0100596 -0.0800605 0.0197035)
(-0.0138908 -0.111605 -0.00649462)
(0.00614638 -0.110955 -0.0297961)
(0.00166619 -0.115348 -0.0445339)
(0.000126989 -0.101772 -0.0488499)
(0.00193133 -0.0706463 -0.0447154)
(0.0073716 -0.0245504 -0.034621)
(0.016873 0.0306399 -0.020665)
(0.0299068 0.0855632 -0.00445064)
(0.044243 0.128731 0.0130214)
(0.0560764 0.150134 0.0312764)
(0.0617764 0.146281 0.0492662)
(0.0600134 0.121323 0.0640866)
(0.0520445 0.0827726 0.0711118)
(0.0404862 0.037014 0.066218)
(0.0280162 -0.0108324 0.0486223)
(0.017233 -0.0554364 0.0221043)
(0.0116863 -0.0915065 -0.00655862)
(0.0319133 -0.0916587 -0.0205438)
(0.0297378 -0.102838 -0.0347269)
(0.0289997 -0.0976042 -0.0398386)
(0.030734 -0.0756717 -0.0376817)
(0.0348904 -0.0387639 -0.0300976)
(0.0417739 0.00848665 -0.0182517)
(0.0512381 0.0584095 -0.00311979)
(0.0619636 0.101248 0.0141156)
(0.0712881 0.127926 0.0321671)
(0.0761819 0.133883 0.04942)
(0.0751082 0.120619 0.063235)
(0.0688926 0.0928672 0.0698458)
(0.0597341 0.0551216 0.0657243)
(0.0497199 0.0115989 0.0499501)
(0.0408826 -0.0327033 0.0256699)
(0.0373822 -0.0726328 -0.00104649)
(0.0539132 -0.0776414 -0.00539479)
(0.056853 -0.0938504 -0.0167065)
(0.0583172 -0.0948569 -0.0223663)
(0.0605987 -0.0798684 -0.0238564)
(0.063156 -0.0501171 -0.0220051)
(0.0660008 -0.00939744 -0.0164003)
(0.0693469 0.0358905 -0.00657977)
(0.0729398 0.0773707 0.00682878)
(0.0756589 0.106868 0.0222137)
(0.0759168 0.119419 0.037462)
(0.0730045 0.114746 0.0500705)
(0.0679383 0.0955021 0.0571358)
(0.062622 0.064776 0.0560391)
(0.0581768 0.0259026 0.0458876)
(0.0550622 -0.0169076 0.0287114)
(0.0576654 -0.058801 0.00901366)
(0.0676441 -0.0718854 0.0130773)
(0.0774782 -0.0906755 0.00678043)
(0.0825049 -0.0946239 0.00130633)
(0.086208 -0.0830145 -0.00462369)
(0.0874659 -0.057115 -0.0107124)
(0.0856945 -0.0203783 -0.0145211)
(0.0813282 0.0215641 -0.0133832)
(0.0753343 0.0613295 -0.00668662)
(0.0685106 0.0915022 0.00401053)
(0.0612989 0.107026 0.0162167)
(0.0544761 0.10652 0.0274826)
(0.0496094 0.0914263 0.0356537)
(0.0483594 0.0643438 0.0390811)
(0.0508919 0.0284713 0.0370788)
(0.0558243 -0.0123926 0.0305349)
(0.0669793 -0.0536874 0.0218346)
(0.0706459 -0.0758066 0.0326587)
(0.0875274 -0.0942689 0.0321069)
(0.0970378 -0.0974221 0.0273201)
(0.102933 -0.0852057 0.0169953)
(0.103467 -0.0591955 0.00209906)
(0.0971882 -0.0230246 -0.0128937)
(0.0844887 0.0176339 -0.0225321)
(0.0677122 0.0558582 -0.0243695)
(0.0500234 0.0848107 -0.0195546)
(0.0342825 0.0995908 -0.0107464)
(0.0229702 0.0984221 -0.000298057)
(0.0181622 0.0824698 0.0101616)
(0.0209318 0.0547441 0.0195183)
(0.0303642 0.0191222 0.026948)
(0.0435151 -0.020248 0.0321594)
(0.0627379 -0.0588819 0.0355062)
(0.0634854 -0.0884098 0.0514216)
(0.086099 -0.103586 0.0554034)
(0.0999646 -0.102713 0.0510978)
(0.108061 -0.0864421 0.0368425)
(0.108217 -0.0564754 0.0136004)
(0.0979158 -0.0170872 -0.0126279)
(0.0771577 0.024929 -0.0335255)
(0.0498167 0.0621728 -0.0443504)
(0.0217676 0.0880957 -0.0454627)
(-0.00154593 0.0983271 -0.0394217)
(-0.0161516 0.0917153 -0.0284359)
(-0.0199779 0.0703086 -0.0139946)
(-0.0130634 0.0383335 0.00250585)
(0.00240216 0.000770461 0.0193925)
(0.0223826 -0.0376637 0.0350475)
(0.0470856 -0.0726805 0.0482871)
(0.0488121 -0.107272 0.0668406)
(0.0751191 -0.116601 0.0728491)
(0.0921402 -0.10938 0.0681993)
(0.101518 -0.0865764 0.0507089)
(0.10095 -0.0496799 0.0207352)
(0.0871349 -0.00389612 -0.0151104)
(0.0593961 0.0417103 -0.0460412)
(0.0229151 0.0782356 -0.0648303)
(-0.0134301 0.0993281 -0.0706957)
(-0.0416284 0.101764 -0.065816)
(-0.0569312 0.0860001 -0.0523789)
(-0.0581831 0.0560052 -0.0324606)
(-0.047032 0.0177437 -0.00863369)
(-0.0268765 -0.0227629 0.0161405)
(-0.00218243 -0.0605158 0.039095)
(0.0251691 -0.0918093 0.0582226)
(0.0295885 -0.130783 0.0755196)
(0.0578131 -0.132327 0.0810416)
(0.076246 -0.116838 0.0753442)
(0.0852714 -0.0854401 0.0555867)
(0.082725 -0.0397266 0.0211293)
(0.0653252 0.0139342 -0.0219371)
(0.0320125 0.0638053 -0.0611568)
(-0.0110576 0.0988951 -0.0863328)
(-0.0520444 0.113239 -0.0945744)
(-0.0809304 0.105616 -0.0877923)
(-0.093662 0.0790229 -0.0693615)
(-0.0910782 0.0397059 -0.0431813)
(-0.0763828 -0.00498234 -0.0134152)
(-0.053459 -0.0485081 0.0160809)
(-0.0264183 -0.0859541 0.0422543)
(0.00154629 -0.114127 0.0629838)
(0.00987734 -0.13748 0.072329)
(0.038661 -0.133031 0.0761578)
(0.0565495 -0.113319 0.0701812)
(0.0629737 -0.0769547 0.0503481)
(0.0555876 -0.02264 0.0139696)
(0.0326404 0.0445307 -0.0347083)
(-0.00434319 0.107595 -0.082163)
(-0.0477585 0.145136 -0.112752)
(-0.0861692 0.147299 -0.119556)
(-0.111097 0.119797 -0.105759)
(-0.120023 0.0750754 -0.0788972)
(-0.114621 0.0244695 -0.0462612)
(-0.0982247 -0.0241474 -0.013347)
(-0.0744521 -0.0661949 0.0163408)
(-0.0469902 -0.0991166 0.0408694)
(-0.019581 -0.121373 0.0590705)
(-0.00893609 -0.198682 0.0633743)
(0.0237622 -0.1747 0.0634993)
(0.0442922 -0.12714 0.0551555)
(0.0517305 -0.0605042 0.0356485)
(0.0442918 0.0143752 0.0055488)
(0.0228383 0.0812241 -0.0285618)
(-0.00811023 0.126043 -0.0574)
(-0.0424948 0.143277 -0.0752669)
(-0.0750824 0.134505 -0.0810699)
(-0.101675 0.104255 -0.0756313)
(-0.118794 0.0579235 -0.0603646)
(-0.123903 0.00167577 -0.0377804)
(-0.116574 -0.0575835 -0.0116445)
(-0.0982247 -0.11217 0.0138389)
(-0.0718801 -0.155074 0.0353927)
(-0.0417599 -0.179536 0.050862)
(-0.0224815 -0.190137 0.0417895)
(-8.49426e-05 -0.165427 0.0398925)
(0.0141506 -0.119254 0.0331767)
(0.0208473 -0.0531295 0.018804)
(0.018304 0.0253833 -0.00426047)
(0.0044378 0.100615 -0.0326301)
(-0.0207794 0.153728 -0.0589712)
(-0.0527813 0.173288 -0.0761497)
(-0.0839917 0.159553 -0.0806974)
(-0.107754 0.119904 -0.0727477)
(-0.120299 0.0638499 -0.0549411)
(-0.120924 0.00075136 -0.0316512)
(-0.110914 -0.0610354 -0.00785916)
(-0.0928227 -0.114206 0.0124475)
(-0.0701526 -0.153315 0.027262)
(-0.0455051 -0.173307 0.0362966)
(-0.0333871 -0.194648 0.0184644)
(-0.0176054 -0.167339 0.01506)
(-0.00806905 -0.119121 0.010329)
(-0.00329079 -0.0514522 0.00129566)
(-0.00405961 0.02842 -0.0140652)
(-0.0120801 0.105663 -0.0345778)
(-0.0289434 0.161284 -0.055033)
(-0.0527838 0.182138 -0.0684253)
(-0.0776085 0.167371 -0.070204)
(-0.0971056 0.124845 -0.0602103)
(-0.10763 0.0651467 -0.0418792)
(-0.108443 -0.00142151 -0.0205839)
(-0.100735 -0.0656986 -0.00166283)
(-0.0866999 -0.120346 0.0114812)
(-0.0690999 -0.159707 0.0182944)
(-0.0492382 -0.178438 0.0204257)
(-0.0391414 -0.188857 -0.00493146)
(-0.0292796 -0.162035 -0.00939775)
(-0.0236252 -0.115426 -0.0117499)
(-0.0202421 -0.0501008 -0.0149836)
(-0.0192033 0.0277949 -0.0217827)
(-0.021458 0.105118 -0.0327388)
(-0.0290581 0.163519 -0.0449355)
(-0.0428238 0.187806 -0.0526546)
(-0.0598022 0.174594 -0.0511005)
(-0.0750268 0.131417 -0.039717)
(-0.0847981 0.0700618 -0.0222557)
(-0.0877412 0.00200445 -0.00465106)
(-0.0841863 -0.0631655 0.0077009)
(-0.0754647 -0.11792 0.0122212)
(-0.0635663 -0.156683 0.00995507)
(-0.0487645 -0.174355 0.00455625)
(-0.0382885 -0.176708 -0.0254441)
(-0.0336519 -0.15285 -0.030848)
(-0.0310279 -0.110397 -0.0308031)
(-0.028425 -0.050213 -0.0282989)
(-0.0254248 0.0227764 -0.0264821)
(-0.0224005 0.0976737 -0.0272428)
(-0.0214764 0.157907 -0.029853)
(-0.0254048 0.187203 -0.0306309)
(-0.0343821 0.17888 -0.0253883)
(-0.0453552 0.138567 -0.0131875)
(-0.0547193 0.0784399 0.00235542)
(-0.0603163 0.0109329 0.0151608)
(-0.0614343 -0.0538333 0.0200196)
(-0.0584111 -0.108197 0.0152995)
(-0.0523591 -0.146569 0.00364665)
(-0.0428747 -0.164331 -0.00949364)
(-0.0301172 -0.159946 -0.0402904)
(-0.0294596 -0.141113 -0.0468111)
(-0.0288564 -0.104942 -0.0449046)
(-0.0267002 -0.052174 -0.0376164)
(-0.0222963 0.0135109 -0.0283726)
(-0.0155624 0.0835129 -0.0198499)
(-0.00825584 0.1438 -0.0129691)
(-0.0038968 0.178495 -0.00621)
(-0.00524552 0.177953 0.00312403)
(-0.011717 0.144423 0.0159473)
(-0.0203883 0.0889699 0.0290895)
(-0.0284471 0.0244337 0.0367577)
(-0.0340384 -0.0385665 0.034189)
(-0.0364146 -0.0921021 0.0207086)
(-0.0357416 -0.130469 0.000380904)
(-0.0312331 -0.14966 -0.0199967)
(-0.0149771 -0.140116 -0.0474151)
(-0.0163963 -0.127732 -0.0552991)
(-0.0167014 -0.099425 -0.0525009)
(-0.014822 -0.055644 -0.0422335)
(-0.00999957 0.00113168 -0.0280129)
(-0.0017912 0.0643664 -0.0127745)
(0.00870785 0.122684 0.00167471)
(0.0183069 0.161789 0.0151382)
(0.0230277 0.170385 0.0285906)
(0.0210358 0.146897 0.0422958)
(0.0137431 0.0996643 0.0533937)
(0.0041323 0.0408554 0.0566877)
(-0.00491179 -0.0187093 0.0480535)
(-0.0115608 -0.0707801 0.0276809)
(-0.0150597 -0.109482 0.000654622)
(-0.0142983 -0.131394 -0.025445)
(0.00550772 -0.11941 -0.0457283)
(0.00451705 -0.114064 -0.0548973)
(0.00453663 -0.0943036 -0.0523635)
(0.00631829 -0.0600299 -0.0415169)
(0.0104665 -0.0127045 -0.0257048)
(0.0177054 0.0427625 -0.00759572)
(0.0277549 0.0972966 0.010862)
(0.0384393 0.13871 0.0285432)
(0.0459765 0.155677 0.0450796)
(0.0471567 0.143702 0.0597217)
(0.0416503 0.10754 0.0696694)
(0.0319074 0.0572709 0.0703879)
(0.0213444 0.00310967 0.0584469)
(0.0125698 -0.0465859 0.0345637)
(0.00703746 -0.0857779 0.00425402)
(0.00644018 -0.111382 -0.024747)
(0.0283068 -0.100561 -0.0354515)
(0.0306281 -0.101873 -0.0450973)
(0.0323391 -0.0900922 -0.043809)
(0.0343512 -0.0644814 -0.0349359)
(0.0368949 -0.0258418 -0.0212725)
(0.0408999 0.0220065 -0.00465271)
(0.0469715 0.0717409 0.0135009)
(0.0542758 0.113188 0.0318619)
(0.0602043 0.136052 0.0492263)
(0.061601 0.134491 0.0640307)
(0.0571467 0.110102 0.0734511)
(0.0484685 0.0700395 0.0736475)
(0.0388427 0.0229269 0.0618801)
(0.031014 -0.0233526 0.038992)
(0.0265525 -0.0628217 0.0100946)
(0.0280876 -0.0923738 -0.017608)
(0.0492765 -0.0866729 -0.0183342)
(0.057589 -0.0932651 -0.026761)
(0.0624503 -0.0874297 -0.027153)
(0.0652844 -0.0681059 -0.0224472)
(0.0657121 -0.0359908 -0.0143949)
(0.0647438 0.00561223 -0.00336543)
(0.0639045 0.0505843 0.0103636)
(0.0638746 0.090429 0.0257913)
(0.0637572 0.116212 0.0413096)
(0.0616046 0.121946 0.0548435)
(0.0563048 0.107208 0.0636759)
(0.0490126 0.0764819 0.0648057)
(0.042437 0.0364565 0.0563056)
(0.0387439 -0.00597012 0.038906)
(0.0388284 -0.0452111 0.0165511)
(0.0463307 -0.0779003 -0.0049602)
(0.0641032 -0.0807131 0.00273717)
(0.0800842 -0.0903537 -0.0024063)
(0.0893958 -0.0871277 -0.00425216)
(0.0938843 -0.0703546 -0.00507998)
(0.092314 -0.0413438 -0.00524486)
(0.0854675 -0.0035197 -0.00304508)
(0.0757465 0.0376839 0.00299809)
(0.0655402 0.0750969 0.0126112)
(0.05603 0.101117 0.0240491)
(0.0472028 0.110199 0.0349715)
(0.0390863 0.100947 0.0429468)
(0.0328702 0.0760868 0.0459176)
(0.0305394 0.0408612 0.0428095)
(0.0332129 0.00128274 0.034133)
(0.0404949 -0.0374395 0.0222901)
(0.0564384 -0.0715737 0.0110051)
(0.0699659 -0.0843806 0.0245791)
(0.093525 -0.0943946 0.02408)
(0.107866 -0.089871 0.0213712)
(0.114771 -0.0712493 0.014693)
(0.111903 -0.0410927 0.00503039)
(0.0992792 -0.00373668 -0.00351085)
(0.0799476 0.03541 -0.00714777)
(0.0582452 0.0701497 -0.0050791)
(0.0378094 0.0941166 0.00100121)
(0.0209437 0.102491 0.0086898)
(0.00918079 0.0937198 0.0160259)
(0.00392091 0.0698913 0.0217824)
(0.00627372 0.0356956 0.0254043)
(0.0160631 -0.00318472 0.0269111)
(0.0313945 -0.0415761 0.0270752)
(0.0555637 -0.0753673 0.0274051)
(0.0664861 -0.0970517 0.0442964)
(0.0958442 -0.104729 0.0480806)
(0.114625 -0.0955283 0.0448934)
(0.124007 -0.0711508 0.0330981)
(0.120654 -0.035549 0.0143249)
(0.103214 0.00517385 -0.00520501)
(0.0748919 0.0445614 -0.0190207)
(0.042139 0.076772 -0.024912)
(0.0113557 0.0965617 -0.0243162)
(-0.012801 0.100212 -0.0194634)
(-0.0274479 0.0869462 -0.0118165)
(-0.031221 0.0593831 -0.00214804)
(-0.0241497 0.0225572 0.0088455)
(-0.00778564 -0.0176778 0.0202545)
(0.0146597 -0.0560225 0.0312687)
(0.0445205 -0.0881963 0.0415298)
(0.0554072 -0.11658 0.0591849)
(0.087897 -0.119361 0.0653498)
(0.109374 -0.103196 0.0615975)
(0.120267 -0.0705125 0.0460624)
(0.116824 -0.0261984 0.0201057)
(0.0960954 0.0212389 -0.00888447)
(0.0605642 0.0629293 -0.031935)
(0.0185668 0.0926312 -0.0450387)
(-0.0203741 0.106331 -0.0489988)
(-0.0493129 0.101969 -0.0456639)
(-0.0647038 0.0804205 -0.036218)
(-0.0659228 0.0457179 -0.0216838)
(-0.0543865 0.00382228 -0.0036315)
(-0.0328852 -0.0390184 0.0158443)
(-0.00539047 -0.0774056 0.0346493)
(0.0270401 -0.107273 0.051234)
(0.0391295 -0.141678 0.066741)
(0.0724282 -0.13725 0.0729166)
(0.0944447 -0.112263 0.0683297)
(0.104998 -0.0696761 0.0506851)
(0.100682 -0.0151954 0.0203646)
(0.0777626 0.0403805 -0.0155539)
(0.0374855 0.0850239 -0.0463784)
(-0.0107043 0.11158 -0.0655218)
(-0.0541225 0.117591 -0.0721351)
(-0.0840194 0.10338 -0.0678238)
(-0.0974226 0.0720395 -0.0545791)
(-0.09527 0.0291633 -0.0347218)
(-0.0802417 -0.0185247 -0.011063)
(-0.0557089 -0.0644872 0.0134427)
(-0.0256789 -0.103222 0.0361372)
(0.00690266 -0.130816 0.0550328)
(0.0213298 -0.147748 0.0638348)
(0.0537915 -0.138503 0.0685643)
(0.0742039 -0.110293 0.063721)
(0.0817135 -0.0628709 0.0460643)
(0.0734307 0.00140023 0.0141777)
(0.0472742 0.0715325 -0.0263244)
(0.00598769 0.12777 -0.0633874)
(-0.0409568 0.153618 -0.0865916)
(-0.0818988 0.146075 -0.0927346)
(-0.109029 0.113092 -0.0841927)
(-0.119891 0.0656028 -0.0652938)
(-0.115644 0.0130053 -0.0405056)
(-0.099051 -0.0375774 -0.0138305)
(-0.0735461 -0.0814483 0.0116261)
(-0.0430799 -0.115296 0.0337199)
(-0.0118151 -0.136946 0.0510708)
(0.0126888 -0.178448 0.0448388)
(0.0439743 -0.15254 0.0480375)
(0.0629096 -0.102666 0.0443129)
(0.0685659 -0.035045 0.0315193)
(0.0592797 0.0373569 0.00995121)
(0.0356921 0.0973102 -0.0155255)
(0.00243677 0.132469 -0.0381472)
(-0.0339701 0.140346 -0.0539372)
(-0.0678686 0.124706 -0.0616728)
(-0.094823 0.0908698 -0.0609302)
(-0.111286 0.0440878 -0.051831)
(-0.114823 -0.0101668 -0.0358911)
(-0.105044 -0.0657273 -0.0162654)
(-0.0836248 -0.115672 0.00366991)
(-0.0542067 -0.153335 0.0211221)
(-0.0214749 -0.173039 0.0344535)
(-0.0025376 -0.172961 0.0217825)
(0.0184896 -0.146051 0.0236861)
(0.0318155 -0.0978098 0.0224328)
(0.0381303 -0.0308846 0.0151875)
(0.0356439 0.0457528 0.000158157)
(0.0214032 0.115082 -0.020697)
(-0.00510041 0.158816 -0.0418558)
(-0.0387144 0.168558 -0.0574042)
(-0.0712382 0.147617 -0.0639005)
(-0.0958453 0.104526 -0.0606309)
(-0.108684 0.0483068 -0.0491657)
(-0.108761 -0.0127572 -0.0328854)
(-0.0973039 -0.0711366 -0.0157502)
(-0.0772132 -0.119931 -0.00107272)
(-0.052509 -0.153826 0.00979246)
(-0.02682 -0.168939 0.0170386)
(-0.015304 -0.177902 -0.00117013)
(-0.0011688 -0.148115 -0.000468531)
(0.00763569 -0.0986366 0.000392212)
(0.0126264 -0.0318044 -0.00182472)
(0.0130566 0.0447443 -0.00979838)
(0.00626976 0.115903 -0.0236545)
(-0.010457 0.163207 -0.0396548)
(-0.0354424 0.175494 -0.051816)
(-0.0620697 0.154243 -0.0556919)
(-0.0833622 0.108343 -0.0504271)
(-0.0950901 0.0480254 -0.038432)
(-0.0960539 -0.0171779 -0.0240381)
(-0.0873547 -0.0785697 -0.0116496)
(-0.0716365 -0.128713 -0.00386816)
(-0.0523857 -0.162066 -0.000606581)
(-0.0322521 -0.174885 0.000199776)
(-0.0246004 -0.172955 -0.0240687)
(-0.0161783 -0.142931 -0.0242386)
(-0.0109942 -0.095528 -0.0209453)
(-0.00707253 -0.0323025 -0.0176797)
(-0.00438932 0.0408885 -0.0178036)
(-0.00469578 0.111539 -0.0229141)
(-0.0113419 0.162136 -0.0312947)
(-0.0258917 0.178801 -0.0381089)
(-0.0449911 0.159646 -0.0386968)
(-0.0626533 0.112956 -0.031933)
(-0.0741888 0.0503103 -0.0206334)
(-0.0776111 -0.0171793 -0.00972713)
(-0.0732476 -0.0797631 -0.00368701)
(-0.0630169 -0.129523 -0.00428911)
(-0.0497087 -0.161104 -0.0098056)
(-0.0350412 -0.171439 -0.0161733)
(-0.0290349 -0.161549 -0.044473)
(-0.0252072 -0.133426 -0.0453221)
(-0.0226827 -0.0902624 -0.0394901)
(-0.019314 -0.0329753 -0.0306388)
(-0.0146559 0.0342811 -0.0226342)
(-0.0097589 0.101756 -0.0182176)
(-0.0078399 0.154073 -0.0175994)
(-0.0124777 0.176057 -0.017802)
(-0.0236797 0.161865 -0.0147269)
(-0.0373183 0.117575 -0.00698617)
(-0.0486304 0.0552744 0.0026223)
(-0.0547935 -0.0124666 0.00892757)
(-0.055152 -0.0748029 0.00762277)
(-0.0506849 -0.123372 -0.00209827)
(-0.0433471 -0.153051 -0.0168308)
(-0.0340688 -0.161658 -0.0306442)
(-0.0273885 -0.14533 -0.0596718)
(-0.0266497 -0.121036 -0.0611913)
(-0.0257406 -0.0839082 -0.0531405)
(-0.0226781 -0.0343195 -0.0393588)
(-0.0168354 0.0251064 -0.0240588)
(-0.0087119 0.0871387 -0.0107127)
(-0.000847643 0.139108 -0.00100582)
(0.00256919 0.166174 0.00601379)
(-0.00108162 0.159266 0.0130533)
(-0.0102299 0.120862 0.021447)
(-0.0208399 0.0621388 0.0287094)
(-0.0294327 -0.00344758 0.0298969)
(-0.0342504 -0.0640416 0.0211384)
(-0.035172 -0.110804 0.00264003)
(-0.0332128 -0.138811 -0.0206963)
(-0.0287279 -0.146823 -0.0414824)
(-0.0190829 -0.12577 -0.0673475)
(-0.0195144 -0.106878 -0.0696972)
(-0.0191051 -0.0772029 -0.0602221)
(-0.0162737 -0.0364892 -0.0430389)
(-0.0103663 0.0140052 -0.0225476)
(-0.00139209 0.0691478 -0.00248763)
(0.0090485 0.118878 0.0146677)
(0.0173756 0.149831 0.0282883)
(0.0197375 0.151225 0.0393641)
(0.0151016 0.121639 0.0485015)
(0.00589641 0.0698274 0.0535083)
(-0.00428864 0.00906844 0.0500281)
(-0.0126276 -0.0481225 0.0348949)
(-0.0178257 -0.0925027 0.00927692)
(-0.0199314 -0.119276 -0.0208089)
(-0.0188591 -0.128021 -0.0471114)
(-0.00454202 -0.105028 -0.0660017)
(-0.00383645 -0.0924516 -0.0693056)
(-0.00272843 -0.070922 -0.0595842)
(-9.53734e-05 -0.0394118 -0.0412999)
(0.00462191 0.00194158 -0.0188032)
(0.0119012 0.0495776 0.00439894)
(0.0212594 0.0955814 0.0257563)
(0.0304049 0.128578 0.0438133)
(0.0356809 0.137655 0.0581401)
(0.0344123 0.11849 0.0682308)
(0.0270454 0.076464 0.0718251)
(0.0165667 0.0232501 0.0652252)
(0.00642894 -0.0287887 0.046134)
(-0.00106324 -0.0702374 0.0164865)
(-0.00506946 -0.0963449 -0.0171382)
(-0.00500906 -0.107134 -0.0463216)
(0.0144367 -0.0858109 -0.0554016)
(0.0188715 -0.0795121 -0.059407)
(0.0219618 -0.0656894 -0.0507383)
(0.0245014 -0.0425231 -0.0340541)
(0.0268206 -0.00942728 -0.0132759)
(0.0299294 0.0310406 0.00885716)
(0.0345925 0.0725451 0.0303306)
(0.0401291 0.105618 0.0495483)
(0.0440867 0.12034 0.0652316)
(0.0435709 0.111067 0.075892)
(0.0376293 0.0800741 0.0789994)
(0.0281775 0.0363269 0.0714445)
(0.0185961 -0.00911928 0.051783)
(0.0116729 -0.0471642 0.0223839)
(0.00878404 -0.0731011 -0.0103735)
(0.0112328 -0.0869136 -0.0386181)
(0.0346357 -0.0712113 -0.0369844)
(0.0452832 -0.0700408 -0.0407544)
(0.0516922 -0.0620247 -0.0341565)
(0.0544577 -0.0448799 -0.0216304)
(0.0534737 -0.017908 -0.00613817)
(0.0503097 0.0167405 0.0109192)
(0.0471218 0.0537984 0.0285443)
(0.045032 0.0854113 0.0454449)
(0.043344 0.103093 0.0599648)
(0.0401432 0.101177 0.0700232)
(0.0342245 0.0799251 0.073001)
(0.0265971 0.0455156 0.066449)
(0.0199574 0.00693092 0.0497018)
(0.0168105 -0.0276929 0.0251436)
(0.0183851 -0.053791 -0.00183371)
(0.0270114 -0.070884 -0.0246734)
(0.051938 -0.0642656 -0.0138582)
(0.070493 -0.0661404 -0.015836)
(0.0814245 -0.0605875 -0.0117049)
(0.0850763 -0.0456747 -0.00516525)
(0.080543 -0.0214559 0.00228955)
(0.0698029 0.00965523 0.011132)
(0.0565361 0.0430462 0.021794)
(0.043896 0.0722316 0.0335204)
(0.0332697 0.0902139 0.0445467)
(0.0244292 0.0919957 0.0525954)
(0.0168785 0.0769522 0.0553422)
(0.0112171 0.0492328 0.0511789)
(0.00918692 0.0158241 0.0400943)
(0.0123585 -0.0163593 0.0240739)
(0.0211109 -0.0429564 0.00692922)
(0.0386654 -0.0627398 -0.00668898)
(0.0627256 -0.0669173 0.00995177)
(0.08924 -0.0693786 0.0111603)
(0.105286 -0.062192 0.0131282)
(0.110711 -0.0447849 0.0130668)
(0.103306 -0.0189811 0.0110921)
(0.0849212 0.0116513 0.00990371)
(0.060742 0.0426919 0.0117197)
(0.0362574 0.068885 0.0164876)
(0.0152147 0.0847203 0.0225042)
(-0.000646952 0.0862005 0.0276485)
(-0.0107165 0.0726704 0.0302284)
(-0.0144899 0.047303 0.0295027)
(-0.0112273 0.0158018 0.0257667)
(-0.000628657 -0.0158617 0.0201965)
(0.0163677 -0.043427 0.0147525)
(0.0430709 -0.0648874 0.0119535)
(0.0652866 -0.078874 0.0306098)
(0.0978846 -0.0796237 0.0352919)
(0.118433 -0.0672211 0.0357215)
(0.126186 -0.0428575 0.0297911)
(0.117351 -0.0108002 0.0186952)
(0.0926668 0.0230494 0.00723007)
(0.0584167 0.0535726 -0.000314411)
(0.0226855 0.0764836 -0.00306835)
(-0.00819558 0.0878299 -0.00247691)
(-0.0305596 0.0849932 -0.000197755)
(-0.0427987 0.0681214 0.00285643)
(-0.0445447 0.0404768 0.00646674)
(-0.0360993 0.00733112 0.0106533)
(-0.0184986 -0.0258346 0.0154201)
(0.0059166 -0.0547889 0.0209097)
(0.0393283 -0.0769019 0.0277159)
(0.0601163 -0.098182 0.0452386)
(0.0956842 -0.0951436 0.0522324)
(0.118814 -0.0752793 0.0516126)
(0.1285 -0.0410597 0.041554)
(0.11986 0.0010006 0.0233015)
(0.0914822 0.0415498 0.00285042)
(0.0495079 0.0733604 -0.0134246)
(0.00455924 0.0927318 -0.0232644)
(-0.0340691 0.0975743 -0.0274377)
(-0.0608876 0.0871627 -0.0269569)
(-0.0738242 0.0631526 -0.0222432)
(-0.0730789 0.029671 -0.0136749)
(-0.0600728 -0.00781974 -0.00211243)
(-0.0370553 -0.0439457 0.0111475)
(-0.00738045 -0.07442 0.024819)
(0.0291222 -0.0963218 0.0380578)
(0.0489803 -0.123267 0.0523756)
(0.0845421 -0.114383 0.0597297)
(0.107775 -0.0856543 0.0582055)
(0.117762 -0.0405055 0.0460427)
(0.109805 0.012966 0.0235455)
(0.080552 0.0619417 -0.00355182)
(0.0344019 0.0959551 -0.0273964)
(-0.0163824 0.111374 -0.0433841)
(-0.0593641 0.108407 -0.0506917)
(-0.0875746 0.0888066 -0.049911)
(-0.0993469 0.0560771 -0.0419813)
(-0.0959407 0.0153131 -0.0283316)
(-0.0797168 -0.027763 -0.0109605)
(-0.053596 -0.0676685 0.00787212)
(-0.0213678 -0.0998274 0.026087)
(0.015097 -0.12108 0.0421225)
(0.0345884 -0.132157 0.0515935)
(0.0679481 -0.119792 0.057554)
(0.0890263 -0.0878813 0.0551961)
(0.0965531 -0.0368415 0.0424988)
(0.0868865 0.0284047 0.0185649)
(0.0577198 0.0931973 -0.0122171)
(0.0131849 0.137744 -0.0410478)
(-0.0356166 0.150535 -0.0606932)
(-0.076991 0.13374 -0.0685931)
(-0.104005 0.0969603 -0.0655198)
(-0.114715 0.0501206 -0.0536754)
(-0.110219 0.000888173 -0.0359009)
(-0.0929624 -0.0450884 -0.0152088)
(-0.0661756 -0.0839326 0.00565805)
(-0.0338999 -0.112765 0.0245914)
(0.000475059 -0.129776 0.0401515)
(0.0349696 -0.130569 0.0285296)
(0.06318 -0.10573 0.0356028)
(0.0788318 -0.0607384 0.0371714)
(0.0819285 -0.00141864 0.0318084)
(0.0709261 0.0597434 0.0191893)
(0.0462076 0.106702 0.00200386)
(0.0123454 0.129111 -0.0157529)
(-0.0240272 0.126648 -0.0312502)
(-0.0570528 0.104621 -0.0424419)
(-0.0822515 0.0691866 -0.0473501)
(-0.0962691 0.0257784 -0.0448396)
(-0.0970887 -0.0206651 -0.0355911)
(-0.0845885 -0.0651583 -0.0220733)
(-0.0608613 -0.102563 -0.00705582)
(-0.0301711 -0.128193 0.00713687)
(0.0036206 -0.138747 0.0189338)
(0.0189736 -0.132632 0.00520256)
(0.0378861 -0.105985 0.0110286)
(0.0493064 -0.0610554 0.0151894)
(0.0544235 -0.000787084 0.0150816)
(0.0516454 0.0658144 0.00833969)
(0.0377495 0.122531 -0.00492101)
(0.0118996 0.153062 -0.0213209)
(-0.020734 0.151953 -0.0360759)
(-0.0520758 0.124797 -0.0453755)
(-0.0756064 0.0808918 -0.047385)
(-0.0876256 0.028729 -0.042531)
(-0.0869798 -0.0246191 -0.0332203)
(-0.0747479 -0.0729578 -0.0226195)
(-0.0539781 -0.110852 -0.013226)
(-0.0290926 -0.134331 -0.00586596)
(-0.00366461 -0.141409 -0.000267263)
(0.0042061 -0.138984 -0.0175368)
(0.0159399 -0.109418 -0.0132273)
(0.0232186 -0.0637892 -0.00732783)
(0.0279509 -0.0046692 -0.00302771)
(0.0295882 0.0610304 -0.00350654)
(0.0250027 0.119645 -0.0102017)
(0.010595 0.154792 -0.0212716)
(-0.0126531 0.157488 -0.0320625)
(-0.0384154 0.130813 -0.0381264)
(-0.0596327 0.0842229 -0.037705)
(-0.0717106 0.0275358 -0.0320993)
(-0.072981 -0.0306287 -0.0246447)
(-0.0643235 -0.082605 -0.0188545)
(-0.0486261 -0.121984 -0.0165436)
(-0.0298966 -0.144573 -0.0169816)
(-0.0112305 -0.148887 -0.0179199)
(-0.00934515 -0.136121 -0.0404047)
(-0.00343281 -0.10575 -0.0372856)
(0.000543998 -0.0622774 -0.0293736)
(0.00480149 -0.00739743 -0.0202939)
(0.00949359 0.0540421 -0.0137623)
(0.0123642 0.111555 -0.0122687)
(0.00904482 0.150155 -0.0156234)
(-0.00313323 0.157962 -0.0204291)
(-0.0213755 0.134054 -0.0224213)
(-0.0394248 0.0867981 -0.0198488)
(-0.0518731 0.0273631 -0.0145165)
(-0.0560917 -0.0337129 -0.0103694)
(-0.0522221 -0.0872022 -0.0109913)
(-0.0425283 -0.125933 -0.0172905)
(-0.0303452 -0.146009 -0.0267304)
(-0.0180449 -0.147008 -0.0348668)
(-0.0202189 -0.126322 -0.0613958)
(-0.01866 -0.0970019 -0.0589364)
(-0.0169977 -0.0576715 -0.0486282)
(-0.0128791 -0.00912307 -0.0344098)
(-0.00592592 0.0456688 -0.0204572)
(0.00224168 0.099149 -0.0101022)
(0.00754935 0.138787 -0.00462607)
(0.00548357 0.151696 -0.00236221)
(-0.00462268 0.132838 7.60128e-05)
(-0.018532 0.0878876 0.00433223)
(-0.0307564 0.0283857 0.00843007)
(-0.0378097 -0.0333282 0.00813756)
(-0.0388733 -0.0864383 6.10398e-05)
(-0.035283 -0.123132 -0.0156212)
(-0.0295079 -0.140032 -0.0344851)
(-0.0230747 -0.138008 -0.0499536)
(-0.0266175 -0.111024 -0.0777702)
(-0.027649 -0.0846532 -0.0754807)
(-0.0272802 -0.0511561 -0.0626554)
(-0.0232 -0.0104317 -0.0435015)
(-0.015055 0.0361678 -0.0225927)
(-0.0040153 0.0835349 -0.0038593)
(0.00665971 0.121798 0.0102932)
(0.0122419 0.138702 0.0198076)
(0.00972721 0.126296 0.0266539)
(0.000657322 0.0866505 0.0320375)
(-0.0104752 0.0302754 0.0340812)
(-0.0197083 -0.0293811 0.0286991)
(-0.0251787 -0.0801549 0.0129802)
(-0.0270767 -0.113735 -0.011731)
(-0.0268759 -0.12734 -0.0393135)
(-0.025309 -0.123123 -0.0614747)
(-0.0269395 -0.091736 -0.0869997)
(-0.0285856 -0.0700713 -0.0846035)
(-0.0284834 -0.0437851 -0.0696144)
(-0.0245511 -0.0118259 -0.0465709)
(-0.0165375 0.0258838 -0.0203707)
(-0.00518153 0.0661394 0.00476934)
(0.00730452 0.101342 0.0258609)
(0.0170641 0.120689 0.0416367)
(0.0202343 0.114983 0.0524737)
(0.0158859 0.0829429 0.0587066)
(0.00664969 0.0328516 0.0584884)
(-0.00370566 -0.0219064 0.0482376)
(-0.0124133 -0.0684167 0.0258585)
(-0.0184442 -0.0981245 -0.0062113)
(-0.022221 -0.108792 -0.0405628)
(-0.0238611 -0.103605 -0.0678681)