/*--------------------------------*- C++ -*----------------------------------*\
| =========                 |                                                 |
| \\      /  F ield         | OpenFOAM: The Open Source CFD Toolbox           |
|  \\    /   O peration     | Version:  3.0.0                                 |
|   \\  /    A nd           | Web:      www.OpenFOAM.org                      |
|    \\/     M anipulation  |                                                 |
\*---------------------------------------------------------------------------*/
FoamFile
{
    version     2.0;
    format      ascii;
    class       volScalarField;
    location    "0.008";
    object      p;
}
// * * * * * * * * * * * * * * * * * * * * * * * * * * * * * * * * * * * * * //

dimensions      [1 -1 -2 0 0 0 0];

internalField   nonuniform List<scalar> 
1000
(
100000
100000
100000
100000
100000
100000
100000
100000
100000
100000
100000
100000
100000
100000
100000
100000
100000
100000
100000
100000
100000
100000
100000
100000
100000
100000
100000
100000
100000
100000
100000
100000
100000
100000
100000
100000
100000
100000
100000
100000
100000
100000
100000
100000
100000
100000
100000
100000
100000
100000
100000
100000
100000
100000
100000
100000
100000
100000
100000
100000
100000
100000
100000
100000
100000
100000
100000
100000
100000
100000
100000
100000
100000
100000
100000
100000
100000
100000
100000
100000
100000
100000
100000
100000
100000
100000
100000
100000
100000
100000
100000
100000
100000
100000
100000
100000
100000
100000
100000
100000
100000
100000
100000
100000
100000
100000
100000
100000
100000
100000
100000
100000
100000
100000
100000
100000
100000
100000
100000
100000
100000
100000
100000
100000
100000
100000
100000
100000
100000
100000
100000
100000
100000
100000
100000
100000
100000
100000
100000
100000
100000
100000
100000
100000
100000
100000
100000
99999.9
99999.9
99999.9
99999.8
99999.8
99999.7
99999.5
99999.4
99999.2
99998.9
99998.5
99997.9
99997.2
99996.3
99995.1
99993.6
99991.7
99989.2
99986
99982
99977
99970.8
99963.2
99953.8
99942.4
99928.6
99912
99892.1
99868.7
99841
99808.7
99771.1
99727.9
99678.3
99621.9
99558.2
99486.7
99406.9
99318.4
99220.9
99114.1
98997.8
98871.9
98736.1
98590.6
98435.4
98270.6
98096.3
97912.8
97720.3
97519.2
97309.7
97092.3
96867.2
96634.9
96395.8
96150.2
95898.6
95641.2
95378.6
95111
94838.8
94562.4
94282
93997.9
93710.5
93419.9
93126.5
92830.6
92532.2
92231.7
91929.2
91624.9
91318.9
91011.5
90702.8
90392.9
90081.9
89770.1
89457.3
89143.9
88829.8
88515.2
88200.2
87884.8
87569
87253.1
86937
86620.7
86304.5
85988.2
85672
85355.9
85039.9
84724.1
84408.5
84093.3
83778.3
83463.6
83149.3
82835.4
82522
82209
81896.4
81584.4
81272.9
80961.9
80651.6
80341.8
80032.6
79724
79416.1
79108.8
78802.2
78496.3
78191.1
77886.6
77582.8
77279.8
76977.5
76675.9
76375.1
76075.1
75775.9
75477.5
75179.9
74883
74587
74291.8
73997.5
73703.9
73411.2
73119.3
72828.3
72538.1
72248.8
71960.3
71672.7
71385.9
71100
70815
70530.8
70247.5
69965.1
69683.6
69402.9
69123.1
68844.2
68566.2
68289
68012.7
67737.4
67462.9
67189.2
66916.5
66644.6
66373.7
66103.6
65834.4
65566.1
65298.7
65032.1
64766.5
64501.7
64237.8
63974.8
63712.7
63451.5
63191.1
62931.6
62673.1
62415.3
62158.5
61902.6
61647.5
61393.3
61139.9
60887.5
60635.9
60385.2
60135.4
59886.4
59638.3
59391
59144.7
58899.2
58654.5
58410.7
58167.8
57925.7
57684.5
57444.2
57204.7
56966
56728.2
56491.3
56255.2
56019.9
55785.5
55552
55319.3
55087.4
54856.3
54626.1
54396.8
54168.2
53940.5
53713.6
53487.6
53262.4
53038
52814.4
52591.7
52369.8
52148.7
51928.4
51708.9
51490.3
51272.4
51055.4
50839.2
50623.8
50409.2
50195.4
49982.4
49770.2
49558.8
49348.2
49138.4
48929.4
48721.2
48513.8
48307.2
48101.4
47896.3
47692.1
47488.6
47286
47084.1
46883
46682.7
46483.1
46284.4
46086.4
45889.2
45692.8
45497.1
45302.2
45108.2
44914.8
44722.3
44530.5
44339.5
44149.3
43959.8
43771.1
43583.2
43396.1
43209.7
43024.1
42839.3
42655.2
42471.9
42289.4
42107.7
41926.7
41746.5
41567.1
41388.5
41210.6
41033.5
40857.2
40681.7
40507
40333
40159.9
39987.5
39815.9
39645.2
39475.2
39306
39137.7
38970.1
38803.4
38637.5
38472.5
38308.2
38144.9
37982.3
37820.7
37659.8
37499.9
37340.9
37182.7
37025.5
36869.1
36713.7
36559.2
36405.7
36253.2
36101.6
35951.1
35801.6
35653.1
35505.7
35359.3
35214.1
35070
34927.1
34785.3
34644.8
34505.6
34367.6
34230.9
34095.6
33961.8
33829.4
33698.4
33569.1
33441.3
33315.2
33190.9
33068.3
32947.5
32828.7
32711.9
32597.1
32484.5
32374.1
32266.1
32160.4
32057.2
31956.6
31858.7
31763.6
31671.3
31582
31495.7
31412.5
31332.6
31255.9
31182.6
31112.7
31046.4
30983.5
30924.1
30868.3
30816.1
30767.4
30722.2
30680.4
30642
30606.8
30574.8
30545.9
30519.8
30496.5
30475.8
30457.4
30441.3
30427.3
30415.1
30404.6
30395.6
30387.9
30381.5
30376
30371.5
30367.7
30364.6
30362
30359.9
30358.2
30356.8
30355.6
30354.7
30353.9
30353.3
30352.8
30352.4
30352.1
30351.8
30351.6
30351.4
30351.2
30351.1
30351
30350.9
30350.9
30350.8
30350.7
30350.7
30350.7
30350.6
30350.6
30350.6
30350.6
30350.5
30350.5
30350.5
30350.5
30350.5
30350.5
30350.5
30350.5
30350.4
30350.4
30350.4
30350.4
30350.4
30350.4
30350.4
30350.4
30350.4
30350.4
30350.3
30350.3
30350.3
30350.3
30350.3
30350.3
30350.3
30350.3
30350.3
30350.3
30350.3
30350.3
30350.3
30350.2
30350.2
30350.2
30350.2
30350.2
30350.2
30350.2
30350.2
30350.2
30350.2
30350.1
30350.1
30350.1
30350.1
30350.1
30350.1
30350.1
30350.1
30350.1
30350.1
30350.1
30350.1
30350
30350
30350
30350
30350
30350
30350
30350
30350
30349.9
30349.9
30349.9
30349.9
30349.9
30349.9
30349.9
30349.9
30349.9
30349.8
30349.8
30349.8
30349.8
30349.8
30349.8
30349.8
30349.8
30349.8
30349.8
30349.8
30349.8
30349.8
30349.8
30349.8
30349.8
30349.8
30349.8
30349.8
30349.9
30349.9
30349.9
30349.9
30349.8
30349.8
30349.8
30349.8
30349.8
30349.8
30349.8
30349.8
30349.8
30349.8
30349.8
30349.8
30349.8
30349.8
30349.8
30349.8
30349.8
30349.7
30349.7
30349.7
30349.7
30349.7
30349.7
30349.7
30349.7
30349.7
30349.7
30349.7
30349.7
30349.7
30349.7
30349.7
30349.6
30349.6
30349.6
30349.6
30349.6
30349.6
30349.6
30349.6
30349.6
30349.6
30349.6
30349.6
30349.6
30349.6
30349.6
30349.6
30349.5
30349.5
30349.5
30349.5
30349.5
30349.5
30349.5
30349.5
30349.5
30349.5
30349.5
30349.5
30349.5
30349.5
30349.5
30349.5
30349.5
30349.4
30349.4
30349.4
30349.4
30349.4
30349.4
30349.4
30349.4
30349.4
30349.4
30349.3
30349.3
30349.3
30349.2
30349.2
30349.1
30349
30349
30348.9
30348.8
30348.8
30348.7
30348.6
30348.6
30348.6
30348.6
30348.6
30348.7
30348.7
30348.8
30348.9
30349
30349.1
30349.2
30349.2
30349.3
30349.4
30349.4
30349.4
30349.4
30349.4
30349.4
30349.4
30349.4
30349.4
30349.3
30349.3
30349.3
30349.2
30349.2
30349.2
30349.2
30349.1
30349.1
30349.1
30349.1
30349.1
30349.1
30349.1
30349
30349
30349
30349
30349
30349
30349
30349
30349
30349
30348.9
30348.9
30348.9
30348.9
30348.9
30348.9
30348.9
30348.9
30348.9
30348.9
30348.9
30348.9
30348.9
30348.9
30348.9
30348.9
30348.9
30348.9
30348.8
30348.8
30348.8
30348.8
30348.8
30348.8
30348.8
30348.8
30348.8
30348.8
30348.8
30348.8
30348.8
30348.8
30348.8
30348.8
30348.8
30348.7
30348.7
30348.7
30348.7
30348.7
30348.7
30348.7
30348.7
30348.7
30348.7
30348.7
30348.7
30348.7
30348.7
30348.7
30348.7
30348.6
30348.6
30348.6
30348.6
30348.5
30348.5
30348.5
30348.5
30348.5
30348.5
30348.5
30348.5
30348.5
30348.5
30348.5
30348.5
30348.5
30348.5
30348.4
30348.4
30348.3
30348.3
30348.3
30348.3
30348.3
30348.3
30348.3
30348.3
30348.3
30348.3
30348.3
30348.3
30348.3
30348.3
30348.3
30348.2
30348.2
30348.1
30348.1
30348
30348
30348
30348
30348
30348
30348.1
30348.1
30348.1
30348.1
30348.1
30348.1
30348.1
30348
30347.9
30347.9
30347.8
30347.7
30347.7
30347.7
30347.7
30347.7
30347.7
30347.7
30347.8
30347.8
30347.8
30347.8
30347.8
30347.8
30347.8
30347.7
30347.6
30347.4
30347.3
30347.2
30347.2
30347.2
30347.2
30347.2
30347.2
30347.3
30347.3
30347.4
30347.4
30347.5
30347.5
30347.5
30347.4
30347.3
30347.1
30346.9
30346.7
30346.6
30346.5
30346.5
30346.6
30346.6
30346.7
30346.7
30346.7
30346.6
30346.4
30346.1
30345.9
30345.5
30344.8
30343.3
30340.2
30335.2
30327.7
30312.8
30294.3
30257.4
30157.5
29998
29470.3
28486.4
26175.4
21876.7
16984.1
13168.4
11112.7
10321.7
10083.9
10021.1
10005.3
10001.3
10000.3
10000.1
10000
10000
10000
10000
10000
10000
10000
10000
10000
10000
10000
10000
10000
10000
10000
10000
10000
10000
10000
10000
10000
10000
10000
10000
10000
10000
10000
10000
10000
10000
10000
10000
10000
10000
10000
10000
10000
10000
10000
10000
10000
10000
10000
10000
10000
10000
10000
10000
)
;

boundaryField
{
    sides
    {
        type            zeroGradient;
    }
    empty
    {
        type            empty;
    }
}


// ************************************************************************* //
