/*--------------------------------*- C++ -*----------------------------------*\
| =========                 |                                                 |
| \\      /  F ield         | OpenFOAM: The Open Source CFD Toolbox           |
|  \\    /   O peration     | Version:  3.0.0                                 |
|   \\  /    A nd           | Web:      www.OpenFOAM.org                      |
|    \\/     M anipulation  |                                                 |
\*---------------------------------------------------------------------------*/
FoamFile
{
    version     2.0;
    format      ascii;
    class       surfaceScalarField;
    location    "0.008";
    object      phi;
}
// * * * * * * * * * * * * * * * * * * * * * * * * * * * * * * * * * * * * * //

dimensions      [1 0 -1 0 0 0 0];

internalField   nonuniform List<scalar> 
999
(
-2.27374e-13
-2.27374e-13
5.11591e-13
6.25278e-13
1.13687e-13
2.27374e-13
5.11591e-13
7.95808e-13
3.97904e-13
3.41061e-13
4.54747e-13
-3.41061e-13
-6.82121e-13
-1.08002e-12
-1.53477e-12
-1.76215e-12
-1.93268e-12
-3.52429e-12
-3.97904e-12
-3.63798e-12
-3.75167e-12
-4.3201e-12
-5.00222e-12
-4.94538e-12
-5.17275e-12
-5.17275e-12
-5.40012e-12
-5.6275e-12
-4.94538e-12
-5.74119e-12
-5.34328e-12
-5.28644e-12
-5.74119e-12
-6.36646e-12
-6.08225e-12
-6.53699e-12
-6.42331e-12
-7.16227e-12
-8.12861e-12
-8.46967e-12
-7.7307e-12
-8.18545e-12
-8.52651e-12
-7.61702e-12
-7.84439e-12
-7.16227e-12
-7.44649e-12
-7.61702e-12
-8.46967e-12
-8.2423e-12
-7.67386e-12
-7.44649e-12
-7.95808e-12
-8.18545e-12
-8.98126e-12
-8.35598e-12
-8.35598e-12
-8.52651e-12
-9.37916e-12
-9.72022e-12
-1.00613e-11
-1.01181e-11
-9.66338e-12
-9.9476e-12
-9.83391e-12
-8.81073e-12
-8.29914e-12
-8.35598e-12
-7.50333e-12
-6.76437e-12
-7.16227e-12
-6.13909e-12
-5.51381e-12
-5.11591e-12
-4.88853e-12
-4.77485e-12
-4.14957e-12
-5.11591e-12
-5.91172e-12
-5.74119e-12
-5.6275e-12
-5.45697e-12
-5.91172e-12
-5.6275e-12
-6.19593e-12
-6.53699e-12
-7.61702e-12
-8.07177e-12
-8.69704e-12
-9.54969e-12
-1.03455e-11
-1.04592e-11
-1.03455e-11
-1.13118e-11
-1.08002e-11
-1.08571e-11
-1.0516e-11
-9.43601e-12
-9.43601e-12
-9.77707e-12
-9.20863e-12
-8.29914e-12
-7.67386e-12
-6.65068e-12
-5.40012e-12
-6.25278e-13
4.94538e-12
1.43814e-11
2.99565e-11
5.48539e-11
9.68043e-11
1.64675e-10
2.75065e-10
4.53781e-10
7.43796e-10
1.21327e-09
1.96832e-09
3.17897e-09
5.11142e-09
8.18335e-09
1.30491e-08
2.07219e-08
3.2772e-08
5.16185e-08
8.09754e-08
1.26509e-07
1.96837e-07
3.05e-07
4.70635e-07
7.23188e-07
1.10659e-06
1.68607e-06
2.55804e-06
3.86424e-06
5.8121e-06
8.70359e-06
1.29761e-05
1.92601e-05
2.84591e-05
4.18618e-05
6.12961e-05
8.93406e-05
0.000129613
0.000187162
0.000268989
0.000384754
0.000547705
0.000775899
0.00109381
0.00153438
0.00214173
0.00297451
0.00411022
0.00565057
0.00772818
0.0105148
0.0142311
0.0191588
0.0256551
0.0341687
0.0452598
0.0596215
0.0781049
0.101746
0.131794
0.169745
0.217369
0.276744
0.350285
0.440769
0.551354
0.685594
0.847443
1.04124
1.27171
1.54389
1.86312
2.23496
2.66508
3.15925
3.72314
4.36229
5.08196
5.88705
6.78198
7.77059
8.8561
10.0411
11.3272
12.7157
14.2067
15.7999
17.494
19.2875
21.1778
23.1623
25.2375
27.3998
29.6452
31.9697
34.3689
36.8383
39.3737
41.9705
44.6245
47.3315
50.0873
52.8879
55.7296
58.6088
61.5219
64.4658
67.4373
70.4335
73.4517
76.4893
79.544
82.6136
85.6959
88.789
91.8912
95.0007
98.116
101.236
104.358
107.483
110.608
113.733
116.856
119.976
123.094
126.207
129.316
132.419
135.515
138.605
141.688
144.763
147.829
150.886
153.934
156.972
160
163.017
166.024
169.019
172.003
174.974
177.934
180.881
183.816
186.738
189.647
192.542
195.424
198.293
201.148
203.988
206.815
209.627
212.425
215.209
217.978
220.732
223.472
226.197
228.906
231.601
234.281
236.945
239.594
242.228
244.847
247.45
250.038
252.611
255.168
257.71
260.236
262.746
265.242
267.721
270.185
272.634
275.067
277.484
279.886
282.273
284.644
286.999
289.339
291.663
293.972
296.266
298.543
300.806
303.053
305.285
307.501
309.702
311.888
314.059
316.214
318.354
320.479
322.588
324.683
326.762
328.827
330.876
332.911
334.93
336.935
338.924
340.899
342.859
344.804
346.735
348.65
350.552
352.438
354.31
356.168
358.011
359.839
361.653
363.453
365.239
367.01
368.767
370.51
372.239
373.953
375.654
377.34
379.013
380.672
382.317
383.948
385.565
387.169
388.759
390.335
391.898
393.447
394.983
396.506
398.015
399.51
400.993
402.462
403.917
405.36
406.79
408.207
409.609
411.002
412.377
413.746
415.092
416.439
417.756
419.081
420.371
421.67
422.939
424.204
425.461
426.687
427.933
429.125
430.348
431.523
432.707
433.874
435.021
436.171
437.295
438.414
439.522
440.612
441.697
442.768
443.825
444.874
445.909
446.933
447.947
448.947
449.937
450.916
451.883
452.839
453.784
454.717
455.64
456.552
457.452
458.341
459.22
460.088
460.944
461.79
462.626
463.45
464.264
465.067
465.86
466.642
467.414
468.175
468.926
469.666
470.397
471.116
471.826
472.526
473.215
473.894
474.563
475.222
475.872
476.511
477.14
477.76
478.369
478.969
479.56
480.14
480.711
481.272
481.824
482.366
482.898
483.422
483.935
484.44
484.935
485.42
485.897
486.364
486.822
487.271
487.71
488.141
488.562
488.975
489.378
489.773
490.158
490.535
490.903
491.262
491.612
491.953
492.286
492.61
492.925
493.232
493.53
493.82
494.101
494.373
494.637
494.893
495.14
495.379
495.609
495.832
496.046
496.251
496.449
496.639
496.82
496.994
497.159
497.317
497.467
497.61
497.744
497.872
497.992
498.105
498.21
498.309
498.401
498.486
498.565
498.637
498.704
498.764
498.82
498.869
498.914
498.954
498.989
499.02
499.048
499.071
499.091
499.109
499.123
499.135
499.145
499.153
499.159
499.164
499.168
499.17
499.172
499.173
499.173
499.173
499.173
499.172
499.171
499.17
499.169
499.167
499.166
499.164
499.162
499.161
499.159
499.157
499.156
499.154
499.152
499.15
499.149
499.147
499.145
499.143
499.141
499.139
499.137
499.135
499.133
499.131
499.129
499.127
499.125
499.123
499.121
499.118
499.116
499.114
499.112
499.11
499.107
499.105
499.103
499.1
499.098
499.096
499.093
499.091
499.088
499.086
499.083
499.081
499.078
499.075
499.073
499.07
499.067
499.065
499.062
499.059
499.056
499.053
499.051
499.048
499.045
499.042
499.039
499.036
499.032
499.029
499.026
499.023
499.019
499.016
499.013
499.009
499.006
499.002
498.999
498.995
498.991
498.988
498.984
498.98
498.976
498.972
498.968
498.964
498.96
498.956
498.952
498.948
498.943
498.939
498.934
498.93
498.925
498.921
498.916
498.911
498.906
498.901
498.896
498.891
498.886
498.881
498.875
498.87
498.864
498.859
498.853
498.847
498.841
498.835
498.829
498.822
498.816
498.81
498.803
498.796
498.789
498.782
498.775
498.768
498.76
498.753
498.745
498.737
498.729
498.721
498.713
498.704
498.695
498.687
498.677
498.668
498.659
498.649
498.639
498.629
498.618
498.608
498.597
498.586
498.574
498.562
498.55
498.538
498.525
498.512
498.499
498.485
498.471
498.457
498.442
498.427
498.411
498.395
498.378
498.361
498.343
498.325
498.306
498.286
498.266
498.245
498.224
498.201
498.178
498.154
498.129
498.103
498.077
498.049
498.02
497.989
497.958
497.925
497.89
497.855
497.817
497.777
497.736
497.692
497.646
497.597
497.546
497.492
497.435
497.375
497.31
497.239
497.163
497.079
496.99
496.897
496.803
496.711
496.624
496.542
496.461
496.369
496.246
496.061
495.769
495.316
494.633
493.643
492.263
490.409
487.999
484.961
481.236
476.786
471.594
465.668
459.045
451.785
443.972
435.711
427.121
418.328
409.464
400.657
392.025
383.679
375.709
368.192
361.183
354.723
348.832
343.515
338.766
334.563
330.881
327.683
324.931
322.583
320.598
318.932
317.546
316.403
315.467
314.706
314.093
313.602
313.212
312.904
312.662
312.474
312.329
312.217
312.131
312.065
312.015
311.977
311.949
311.927
311.91
311.898
311.888
311.88
311.874
311.87
311.866
311.863
311.86
311.858
311.856
311.854
311.853
311.852
311.851
311.85
311.849
311.848
311.847
311.847
311.846
311.846
311.845
311.845
311.844
311.844
311.843
311.843
311.843
311.842
311.842
311.842
311.841
311.841
311.841
311.841
311.84
311.84
311.84
311.84
311.84
311.839
311.839
311.839
311.839
311.838
311.838
311.838
311.837
311.837
311.837
311.837
311.836
311.836
311.836
311.835
311.835
311.835
311.835
311.834
311.834
311.834
311.833
311.833
311.833
311.832
311.832
311.832
311.831
311.831
311.831
311.83
311.83
311.83
311.83
311.83
311.829
311.829
311.829
311.828
311.828
311.828
311.827
311.827
311.827
311.826
311.826
311.826
311.825
311.825
311.825
311.825
311.824
311.824
311.824
311.823
311.823
311.823
311.822
311.822
311.822
311.821
311.821
311.82
311.82
311.82
311.819
311.819
311.819
311.818
311.818
311.818
311.818
311.817
311.817
311.816
311.816
311.815
311.815
311.814
311.814
311.813
311.813
311.813
311.812
311.812
311.812
311.812
311.812
311.811
311.811
311.81
311.81
311.809
311.809
311.808
311.807
311.806
311.806
311.805
311.804
311.804
311.804
311.803
311.803
311.803
311.803
311.802
311.802
311.801
311.8
311.799
311.797
311.796
311.794
311.793
311.791
311.789
311.783
311.775
311.761
311.743
311.708
311.661
311.553
311.422
311.152
310.695
309.801
307.538
302.873
291.511
265.07
211.494
138.923
70.4177
27.0444
8.19293
2.16397
0.544451
0.135381
0.0335935
0.00833397
0.00206755
0.00051294
0.000127257
3.15716e-05
7.83273e-06
1.94325e-06
4.82108e-07
1.19608e-07
2.96741e-08
7.36212e-09
1.82663e-09
4.53213e-10
1.1255e-10
2.79954e-11
6.942e-12
1.73372e-12
4.12115e-13
1.06581e-13
7.81597e-14
3.55271e-14
-4.9738e-14
-7.81597e-14
-6.39488e-14
7.10543e-15
2.84217e-14
4.26326e-14
3.55271e-14
5.68434e-14
-1.42109e-14
-1.42109e-14
2.84217e-14
8.52651e-14
1.13687e-13
1.91847e-13
2.20268e-13
1.49214e-13
1.13687e-13
1.49214e-13
8.52651e-14
9.23706e-14
-2.13163e-14
-4.26326e-14
-3.55271e-14
7.81597e-14
9.23706e-14
1.20792e-13
1.84741e-13
1.27898e-13
1.06581e-13
)
;

boundaryField
{
    sides
    {
        type            calculated;
        value           nonuniform List<scalar> 2(5.82077e-14 7.567e-13);
    }
    empty
    {
        type            empty;
        value           nonuniform 0();
    }
}


// ************************************************************************* //
