/*--------------------------------*- C++ -*----------------------------------*\
| =========                 |                                                 |
| \\      /  F ield         | OpenFOAM: The Open Source CFD Toolbox           |
|  \\    /   O peration     | Version:  3.0.0                                 |
|   \\  /    A nd           | Web:      www.OpenFOAM.org                      |
|    \\/     M anipulation  |                                                 |
\*---------------------------------------------------------------------------*/
FoamFile
{
    version     2.0;
    format      ascii;
    class       volScalarField;
    location    "0.008";
    object      T;
}
// * * * * * * * * * * * * * * * * * * * * * * * * * * * * * * * * * * * * * //

dimensions      [0 0 0 1 0 0 0];

internalField   nonuniform List<scalar> 
1000
(
348.432
348.432
348.432
348.432
348.432
348.432
348.432
348.432
348.432
348.432
348.432
348.432
348.432
348.432
348.432
348.432
348.432
348.432
348.432
348.432
348.432
348.432
348.432
348.432
348.432
348.432
348.432
348.432
348.432
348.432
348.432
348.432
348.432
348.432
348.432
348.432
348.432
348.432
348.432
348.432
348.432
348.432
348.432
348.432
348.432
348.432
348.432
348.432
348.432
348.432
348.432
348.432
348.432
348.432
348.432
348.432
348.432
348.432
348.432
348.432
348.432
348.432
348.432
348.432
348.432
348.432
348.432
348.432
348.432
348.432
348.432
348.432
348.432
348.432
348.432
348.432
348.432
348.432
348.432
348.432
348.432
348.432
348.432
348.432
348.432
348.432
348.432
348.432
348.432
348.432
348.432
348.432
348.432
348.432
348.432
348.432
348.432
348.432
348.432
348.432
348.432
348.432
348.432
348.432
348.432
348.432
348.432
348.432
348.432
348.432
348.432
348.432
348.432
348.432
348.432
348.432
348.432
348.432
348.432
348.432
348.432
348.432
348.432
348.432
348.432
348.432
348.432
348.432
348.432
348.432
348.432
348.432
348.432
348.432
348.432
348.432
348.432
348.432
348.432
348.432
348.432
348.432
348.432
348.432
348.432
348.432
348.432
348.432
348.432
348.432
348.432
348.432
348.432
348.432
348.431
348.431
348.431
348.43
348.43
348.429
348.428
348.427
348.426
348.424
348.421
348.418
348.414
348.409
348.403
348.395
348.386
348.375
348.361
348.344
348.324
348.301
348.273
348.241
348.204
348.16
348.111
348.054
347.991
347.919
347.839
347.751
347.653
347.546
347.429
347.302
347.166
347.019
346.863
346.697
346.521
346.335
346.14
345.936
345.723
345.502
345.273
345.036
344.791
344.54
344.282
344.017
343.747
343.47
343.189
342.902
342.611
342.316
342.016
341.712
341.405
341.094
340.78
340.463
340.143
339.821
339.496
339.169
338.839
338.508
338.174
337.839
337.502
337.163
336.823
336.481
336.138
335.794
335.448
335.102
334.754
334.405
334.056
333.705
333.353
333.001
332.648
332.294
331.94
331.585
331.229
330.872
330.516
330.158
329.8
329.442
329.083
328.724
328.364
328.005
327.644
327.284
326.923
326.562
326.201
325.839
325.477
325.115
324.753
324.391
324.028
323.666
323.303
322.94
322.577
322.214
321.851
321.488
321.125
320.762
320.398
320.035
319.672
319.308
318.945
318.582
318.218
317.855
317.492
317.129
316.765
316.402
316.039
315.676
315.313
314.95
314.587
314.225
313.862
313.499
313.137
312.775
312.412
312.05
311.688
311.326
310.964
310.603
310.241
309.88
309.518
309.157
308.796
308.435
308.074
307.714
307.353
306.993
306.633
306.273
305.913
305.553
305.193
304.834
304.475
304.116
303.757
303.398
303.04
302.681
302.323
301.965
301.607
301.249
300.892
300.535
300.178
299.821
299.464
299.108
298.751
298.395
298.039
297.684
297.328
296.973
296.618
296.263
295.908
295.554
295.199
294.845
294.491
294.138
293.784
293.431
293.078
292.725
292.373
292.02
291.67
291.315
290.968
290.609
290.27
289.901
289.577
289.188
288.891
288.472
288.208
287.758
287.519
287.058
286.814
286.378
286.092
285.71
285.37
285.035
284.666
284.339
283.981
283.636
283.296
282.942
282.601
282.256
281.908
281.566
281.221
280.875
280.534
280.189
279.845
279.503
279.16
278.817
278.476
278.134
277.792
277.451
277.11
276.769
276.429
276.09
275.75
275.411
275.072
274.733
274.395
274.057
273.72
273.383
273.046
272.71
272.374
272.038
271.703
271.369
271.034
270.7
270.367
270.034
269.702
269.369
269.038
268.707
268.376
268.046
267.716
267.387
267.059
266.731
266.403
266.077
265.75
265.425
265.1
264.776
264.452
264.129
263.807
263.486
263.165
262.845
262.526
262.208
261.891
261.575
261.26
260.946
260.632
260.321
260.01
259.7
259.392
259.085
258.779
258.475
258.172
257.871
257.572
257.274
256.978
256.684
256.393
256.103
255.816
255.531
255.248
254.968
254.691
254.417
254.146
253.879
253.614
253.354
253.097
252.844
252.596
252.352
252.112
251.878
251.648
251.424
251.206
250.994
250.788
250.588
250.395
250.208
250.029
249.857
249.693
249.536
249.388
249.247
249.114
248.989
248.872
248.763
248.663
248.57
248.485
248.407
248.336
248.272
248.215
248.164
248.119
248.08
248.045
248.015
247.989
247.967
247.948
247.932
247.919
247.908
247.899
247.892
247.886
247.881
247.877
247.875
247.872
247.871
247.87
247.869
247.869
247.868
247.868
247.869
247.869
247.869
247.87
247.87
247.871
247.872
247.873
247.873
247.874
247.875
247.876
247.877
247.878
247.879
247.88
247.881
247.882
247.883
247.884
247.885
247.886
247.887
247.888
247.889
247.891
247.891
247.893
247.894
247.895
247.896
247.898
247.898
247.9
247.901
247.903
247.903
247.905
247.906
247.908
247.909
247.911
247.911
247.913
247.914
247.916
247.917
247.919
247.92
247.922
247.923
247.925
247.926
247.928
247.929
247.931
247.932
247.935
247.936
247.938
247.94
247.941
247.943
247.945
247.947
247.948
247.95
247.952
247.954
247.956
247.958
247.96
247.962
247.964
247.966
247.968
247.97
247.973
247.975
247.977
247.979
247.982
247.984
247.986
247.989
247.991
247.994
247.996
247.999
248.002
248.004
248.007
248.01
248.013
248.016
248.019
248.022
248.025
248.028
248.031
248.034
248.038
248.041
248.044
248.048
248.051
248.055
248.059
248.063
248.066
248.07
248.074
248.078
248.083
248.087
248.091
248.096
248.1
248.105
248.109
248.114
248.119
248.124
248.13
248.135
248.14
248.146
248.152
248.158
248.164
248.17
248.176
248.183
248.189
248.196
248.203
248.21
248.218
248.226
248.233
248.242
248.25
248.259
248.268
248.277
248.286
248.296
248.306
248.317
248.328
248.339
248.351
248.363
248.375
248.388
248.402
248.416
248.431
248.446
248.462
248.479
248.496
248.515
248.534
248.554
248.575
248.598
248.621
248.646
248.672
248.7
248.729
248.76
248.794
248.831
248.871
248.914
248.96
249.007
249.054
249.099
249.141
249.181
249.223
249.273
249.346
249.459
249.639
249.916
250.328
250.918
251.732
252.818
254.223
255.994
258.172
260.793
263.886
267.47
271.553
276.133
281.193
286.702
292.617
298.88
305.423
312.166
319.022
325.898
332.703
339.345
345.742
351.821
357.522
362.798
367.62
371.971
375.849
379.267
382.243
384.807
386.993
388.837
390.377
391.652
392.697
393.546
394.231
394.779
395.213
395.555
395.823
396.031
396.192
396.315
396.409
396.481
396.536
396.577
396.609
396.632
396.651
396.664
396.675
396.683
396.69
396.695
396.699
396.703
396.706
396.708
396.71
396.712
396.714
396.715
396.716
396.717
396.718
396.719
396.72
396.72
396.721
396.721
396.722
396.722
396.723
396.723
396.723
396.723
396.724
396.724
396.724
396.724
396.725
396.725
396.725
396.725
396.725
396.725
396.725
396.726
396.726
396.726
396.726
396.726
396.726
396.726
396.727
396.727
396.727
396.727
396.727
396.727
396.727
396.728
396.728
396.728
396.728
396.728
396.728
396.728
396.728
396.728
396.729
396.729
396.729
396.729
396.729
396.729
396.73
396.73
396.73
396.73
396.73
396.73
396.73
396.729
396.729
396.73
396.73
396.73
396.73
396.73
396.73
396.73
396.73
396.73
396.731
396.731
396.731
396.731
396.731
396.731
396.73
396.73
396.73
396.73
396.73
396.73
396.731
396.731
396.731
396.731
396.731
396.731
396.731
396.732
396.732
396.731
396.731
396.731
396.731
396.731
396.731
396.731
396.731
396.731
396.731
396.731
396.731
396.731
396.732
396.732
396.732
396.732
396.731
396.731
396.731
396.73
396.73
396.73
396.729
396.729
396.729
396.73
396.73
396.73
396.73
396.731
396.731
396.731
396.731
396.731
396.731
396.73
396.729
396.729
396.728
396.728
396.727
396.728
396.728
396.728
396.729
396.73
396.729
396.729
396.727
396.727
396.725
396.727
396.72
396.722
396.699
396.697
396.641
396.623
396.497
396.445
395.899
395.441
392.862
388.877
378.701
356.277
327.647
302.266
287.111
281.163
279.383
278.908
278.786
278.756
278.748
278.747
278.746
278.746
278.746
278.746
278.746
278.746
278.746
278.746
278.746
278.746
278.746
278.746
278.746
278.746
278.746
278.746
278.746
278.746
278.746
278.746
278.746
278.746
278.746
278.746
278.746
278.746
278.746
278.746
278.746
278.746
278.746
278.746
278.746
278.746
278.746
278.746
278.746
278.746
278.746
278.746
278.746
278.746
278.746
278.746
278.746
278.746
278.746
278.746
)
;

boundaryField
{
    sides
    {
        type            zeroGradient;
    }
    empty
    {
        type            empty;
    }
}


// ************************************************************************* //
