/*--------------------------------*- C++ -*----------------------------------*\
| =========                 |                                                 |
| \\      /  F ield         | OpenFOAM: The Open Source CFD Toolbox           |
|  \\    /   O peration     | Version:  3.0.0                                 |
|   \\  /    A nd           | Web:      www.OpenFOAM.org                      |
|    \\/     M anipulation  |                                                 |
\*---------------------------------------------------------------------------*/
FoamFile
{
    version     2.0;
    format      ascii;
    class       volVectorField;
    location    "0.008";
    object      U;
}
// * * * * * * * * * * * * * * * * * * * * * * * * * * * * * * * * * * * * * //

dimensions      [0 1 -1 0 0 0 0];

internalField   nonuniform List<vector> 
1000
(
(-1.31286e-13 0 0)
(-7.29365e-14 0 0)
(2.91746e-14 0 0)
(2.04222e-13 0 0)
(1.16698e-13 0 0)
(-4.37619e-14 0 0)
(1.31286e-13 0 0)
(2.04222e-13 0 0)
(1.45873e-13 0 0)
(-3.36749e-26 0 0)
(1.6046e-13 0 0)
(-9.69289e-26 0 0)
(-2.04222e-13 0 0)
(-1.16698e-13 0 0)
(-4.52206e-13 0 0)
(-2.33397e-13 0 0)
(-6.71016e-13 0 0)
(-4.95968e-13 0 0)
(-1.10863e-12 0 0)
(-8.60651e-13 0 0)
(-9.04413e-13 0 0)
(-1.00652e-12 0 0)
(-1.21075e-12 0 0)
(-1.16698e-12 0 0)
(-1.35662e-12 0 0)
(-1.22533e-12 0 0)
(-1.35662e-12 0 0)
(-1.2691e-12 0 0)
(-1.50249e-12 0 0)
(-1.1524e-12 0 0)
(-1.61919e-12 0 0)
(-1.31286e-12 0 0)
(-1.41497e-12 0 0)
(-1.45873e-12 0 0)
(-1.4879e-12 0 0)
(-1.82341e-12 0 0)
(-1.41497e-12 0 0)
(-1.92552e-12 0 0)
(-1.6046e-12 0 0)
(-2.34856e-12 0 0)
(-1.838e-12 0 0)
(-2.21727e-12 0 0)
(-1.76506e-12 0 0)
(-2.21727e-12 0 0)
(-1.79424e-12 0 0)
(-1.94011e-12 0 0)
(-1.76506e-12 0 0)
(-2.05681e-12 0 0)
(-1.86717e-12 0 0)
(-2.20268e-12 0 0)
(-1.92552e-12 0 0)
(-2.02763e-12 0 0)
(-1.86717e-12 0 0)
(-2.20268e-12 0 0)
(-1.88176e-12 0 0)
(-2.46525e-12 0 0)
(-1.88176e-12 0 0)
(-2.26103e-12 0 0)
(-2.14433e-12 0 0)
(-2.55278e-12 0 0)
(-2.29021e-12 0 0)
(-2.62571e-12 0 0)
(-2.47984e-12 0 0)
(-2.4069e-12 0 0)
(-2.4069e-12 0 0)
(-2.33397e-12 0 0)
(-2.14433e-12 0 0)
(-2.17351e-12 0 0)
(-1.98387e-12 0 0)
(-1.75048e-12 0 0)
(-1.77965e-12 0 0)
(-1.61919e-12 0 0)
(-1.44414e-12 0 0)
(-1.32744e-12 0 0)
(-1.18157e-12 0 0)
(-1.31286e-12 0 0)
(-1.12322e-12 0 0)
(-1.1524e-12 0 0)
(-1.35662e-12 0 0)
(-1.37121e-12 0 0)
(-1.56084e-12 0 0)
(-1.25451e-12 0 0)
(-1.53167e-12 0 0)
(-1.45873e-12 0 0)
(-1.56084e-12 0 0)
(-1.79424e-12 0 0)
(-1.56084e-12 0 0)
(-2.30479e-12 0 0)
(-1.70671e-12 0 0)
(-2.69865e-12 0 0)
(-2.11516e-12 0 0)
(-2.78617e-12 0 0)
(-2.37773e-12 0 0)
(-2.80076e-12 0 0)
(-2.81535e-12 0 0)
(-2.55278e-12 0 0)
(-2.78617e-12 0 0)
(-2.39232e-12 0 0)
(-2.30479e-12 0 0)
(-2.27562e-12 0 0)
(-2.42149e-12 0 0)
(-2.21727e-12 0 0)
(-1.98387e-12 0 0)
(-1.69213e-12 0 0)
(-1.44414e-12 0 0)
(-8.46063e-13 0 0)
(4.52206e-13 0 0)
(2.34856e-12 0 0)
(5.38271e-12 0 0)
(1.04591e-11 0 0)
(1.87009e-11 0 0)
(3.22525e-11 0 0)
(5.44398e-11 0 0)
(9.00766e-11 0 0)
(1.48557e-10 0 0)
(2.4231e-10 0 0)
(3.94572e-10 0 0)
(6.3818e-10 0 0)
(1.02855e-09 0 0)
(1.64915e-09 0 0)
(2.63501e-09 0 0)
(4.19165e-09 0 0)
(6.64134e-09 0 0)
(1.04789e-08 0 0)
(1.64684e-08 0 0)
(2.57743e-08 0 0)
(4.01759e-08 0 0)
(6.23653e-08 0 0)
(9.64107e-08 0 0)
(1.4842e-07 0 0)
(2.27529e-07 0 0)
(3.47328e-07 0 0)
(5.27949e-07 0 0)
(7.99055e-07 0 0)
(1.20415e-06 0 0)
(1.80671e-06 0 0)
(2.69889e-06 0 0)
(4.0138e-06 0 0)
(5.94269e-06 0 0)
(8.75898e-06 0 0)
(1.28514e-05 0 0)
(1.87696e-05 0 0)
(2.72868e-05 0 0)
(3.94845e-05 0 0)
(5.68668e-05 0 0)
(8.15139e-05 0 0)
(0.000116286 0 0)
(0.000165093 0 0)
(0.000233246 0 0)
(0.00032792 0 0)
(0.000458743 0 0)
(0.000638557 0 0)
(0.000884381 0 0)
(0.00121862 0 0)
(0.00167057 0 0)
(0.00227828 0 0)
(0.00309085 0 0)
(0.00417114 0 0)
(0.00559905 0 0)
(0.00747544 0 0)
(0.00992658 0 0)
(0.0131094 0 0)
(0.0172171 0 0)
(0.0224862 0 0)
(0.0292028 0 0)
(0.0377109 0 0)
(0.0484199 0 0)
(0.0618122 0 0)
(0.0784514 0 0)
(0.098989 0 0)
(0.12417 0 0)
(0.154838 0 0)
(0.191938 0 0)
(0.236513 0 0)
(0.289706 0 0)
(0.352749 0 0)
(0.426955 0 0)
(0.513707 0 0)
(0.614433 0 0)
(0.730595 0 0)
(0.86366 0 0)
(1.01508 0 0)
(1.18625 0 0)
(1.37851 0 0)
(1.5931 0 0)
(1.83114 0 0)
(2.09361 0 0)
(2.38135 0 0)
(2.69501 0 0)
(3.03509 0 0)
(3.4019 0 0)
(3.79558 0 0)
(4.21609 0 0)
(4.66325 0 0)
(5.13671 0 0)
(5.63602 0 0)
(6.16057 0 0)
(6.70969 0 0)
(7.28259 0 0)
(7.87844 0 0)
(8.49635 0 0)
(9.1354 0 0)
(9.79465 0 0)
(10.4732 0 0)
(11.17 0 0)
(11.8842 0 0)
(12.6148 0 0)
(13.361 0 0)
(14.1219 0 0)
(14.8967 0 0)
(15.6846 0 0)
(16.4848 0 0)
(17.2967 0 0)
(18.1194 0 0)
(18.9525 0 0)
(19.7953 0 0)
(20.6473 0 0)
(21.5078 0 0)
(22.3765 0 0)
(23.2529 0 0)
(24.1364 0 0)
(25.0268 0 0)
(25.9237 0 0)
(26.8266 0 0)
(27.7353 0 0)
(28.6495 0 0)
(29.5688 0 0)
(30.4931 0 0)
(31.422 0 0)
(32.3553 0 0)
(33.2929 0 0)
(34.2345 0 0)
(35.1798 0 0)
(36.1289 0 0)
(37.0813 0 0)
(38.0371 0 0)
(38.9961 0 0)
(39.958 0 0)
(40.9228 0 0)
(41.8904 0 0)
(42.8606 0 0)
(43.8334 0 0)
(44.8085 0 0)
(45.7859 0 0)
(46.7656 0 0)
(47.7474 0 0)
(48.7312 0 0)
(49.7169 0 0)
(50.7045 0 0)
(51.6939 0 0)
(52.685 0 0)
(53.6777 0 0)
(54.672 0 0)
(55.6678 0 0)
(56.6651 0 0)
(57.6637 0 0)
(58.6637 0 0)
(59.665 0 0)
(60.6675 0 0)
(61.6712 0 0)
(62.676 0 0)
(63.682 0 0)
(64.6889 0 0)
(65.6969 0 0)
(66.7058 0 0)
(67.7157 0 0)
(68.7265 0 0)
(69.7381 0 0)
(70.7506 0 0)
(71.7639 0 0)
(72.7779 0 0)
(73.7927 0 0)
(74.8082 0 0)
(75.8244 0 0)
(76.8412 0 0)
(77.8587 0 0)
(78.8768 0 0)
(79.8955 0 0)
(80.9147 0 0)
(81.9346 0 0)
(82.9549 0 0)
(83.9758 0 0)
(84.9971 0 0)
(86.019 0 0)
(87.0413 0 0)
(88.064 0 0)
(89.0872 0 0)
(90.1107 0 0)
(91.1347 0 0)
(92.1591 0 0)
(93.1838 0 0)
(94.2089 0 0)
(95.2344 0 0)
(96.2602 0 0)
(97.2863 0 0)
(98.3127 0 0)
(99.3394 0 0)
(100.366 0 0)
(101.394 0 0)
(102.421 0 0)
(103.449 0 0)
(104.477 0 0)
(105.506 0 0)
(106.534 0 0)
(107.563 0 0)
(108.592 0 0)
(109.621 0 0)
(110.65 0 0)
(111.68 0 0)
(112.71 0 0)
(113.74 0 0)
(114.77 0 0)
(115.8 0 0)
(116.831 0 0)
(117.861 0 0)
(118.892 0 0)
(119.923 0 0)
(120.954 0 0)
(121.985 0 0)
(123.016 0 0)
(124.047 0 0)
(125.079 0 0)
(126.11 0 0)
(127.142 0 0)
(128.174 0 0)
(129.206 0 0)
(130.238 0 0)
(131.27 0 0)
(132.302 0 0)
(133.334 0 0)
(134.366 0 0)
(135.398 0 0)
(136.43 0 0)
(137.463 0 0)
(138.495 0 0)
(139.528 0 0)
(140.56 0 0)
(141.593 0 0)
(142.625 0 0)
(143.658 0 0)
(144.69 0 0)
(145.723 0 0)
(146.755 0 0)
(147.788 0 0)
(148.82 0 0)
(149.853 0 0)
(150.885 0 0)
(151.918 0 0)
(152.95 0 0)
(153.983 0 0)
(155.015 0 0)
(156.047 0 0)
(157.08 0 0)
(158.112 0 0)
(159.144 0 0)
(160.177 0 0)
(161.209 0 0)
(162.241 0 0)
(163.273 0 0)
(164.305 0 0)
(165.337 0 0)
(166.368 0 0)
(167.4 0 0)
(168.432 0 0)
(169.463 0 0)
(170.495 0 0)
(171.526 0 0)
(172.557 0 0)
(173.589 0 0)
(174.619 0 0)
(175.65 0 0)
(176.681 0 0)
(177.712 0 0)
(178.742 0 0)
(179.772 0 0)
(180.803 0 0)
(181.833 0 0)
(182.862 0 0)
(183.892 0 0)
(184.921 0 0)
(185.951 0 0)
(186.98 0 0)
(188.009 0 0)
(189.037 0 0)
(190.066 0 0)
(191.094 0 0)
(192.122 0 0)
(193.15 0 0)
(194.178 0 0)
(195.205 0 0)
(196.232 0 0)
(197.259 0 0)
(198.285 0 0)
(199.311 0 0)
(200.337 0 0)
(201.363 0 0)
(202.388 0 0)
(203.413 0 0)
(204.437 0 0)
(205.461 0 0)
(206.485 0 0)
(207.508 0 0)
(208.531 0 0)
(209.554 0 0)
(210.576 0 0)
(211.598 0 0)
(212.619 0 0)
(213.64 0 0)
(214.66 0 0)
(215.679 0 0)
(216.698 0 0)
(217.717 0 0)
(218.735 0 0)
(219.752 0 0)
(220.769 0 0)
(221.785 0 0)
(222.8 0 0)
(223.815 0 0)
(224.829 0 0)
(225.842 0 0)
(226.854 0 0)
(227.866 0 0)
(228.876 0 0)
(229.886 0 0)
(230.895 0 0)
(231.902 0 0)
(232.909 0 0)
(233.915 0 0)
(234.919 0 0)
(235.922 0 0)
(236.924 0 0)
(237.925 0 0)
(238.924 0 0)
(239.922 0 0)
(240.919 0 0)
(241.914 0 0)
(242.907 0 0)
(243.898 0 0)
(244.888 0 0)
(245.876 0 0)
(246.862 0 0)
(247.845 0 0)
(248.827 0 0)
(249.806 0 0)
(250.783 0 0)
(251.757 0 0)
(252.729 0 0)
(253.698 0 0)
(254.664 0 0)
(255.626 0 0)
(256.586 0 0)
(257.541 0 0)
(258.493 0 0)
(259.442 0 0)
(260.386 0 0)
(261.326 0 0)
(262.261 0 0)
(263.191 0 0)
(264.116 0 0)
(265.036 0 0)
(265.949 0 0)
(266.857 0 0)
(267.758 0 0)
(268.653 0 0)
(269.54 0 0)
(270.42 0 0)
(271.291 0 0)
(272.154 0 0)
(273.007 0 0)
(273.851 0 0)
(274.685 0 0)
(275.508 0 0)
(276.319 0 0)
(277.119 0 0)
(277.906 0 0)
(278.679 0 0)
(279.438 0 0)
(280.182 0 0)
(280.911 0 0)
(281.623 0 0)
(282.318 0 0)
(282.994 0 0)
(283.652 0 0)
(284.29 0 0)
(284.908 0 0)
(285.505 0 0)
(286.079 0 0)
(286.631 0 0)
(287.159 0 0)
(287.664 0 0)
(288.144 0 0)
(288.599 0 0)
(289.029 0 0)
(289.434 0 0)
(289.813 0 0)
(290.167 0 0)
(290.496 0 0)
(290.8 0 0)
(291.08 0 0)
(291.336 0 0)
(291.569 0 0)
(291.779 0 0)
(291.969 0 0)
(292.139 0 0)
(292.29 0 0)
(292.423 0 0)
(292.54 0 0)
(292.642 0 0)
(292.731 0 0)
(292.807 0 0)
(292.872 0 0)
(292.927 0 0)
(292.974 0 0)
(293.014 0 0)
(293.047 0 0)
(293.074 0 0)
(293.096 0 0)
(293.115 0 0)
(293.13 0 0)
(293.143 0 0)
(293.153 0 0)
(293.161 0 0)
(293.168 0 0)
(293.173 0 0)
(293.177 0 0)
(293.181 0 0)
(293.184 0 0)
(293.186 0 0)
(293.188 0 0)
(293.19 0 0)
(293.191 0 0)
(293.192 0 0)
(293.193 0 0)
(293.194 0 0)
(293.194 0 0)
(293.195 0 0)
(293.195 0 0)
(293.196 0 0)
(293.196 0 0)
(293.196 0 0)
(293.196 0 0)
(293.197 0 0)
(293.197 0 0)
(293.197 0 0)
(293.197 0 0)
(293.197 0 0)
(293.197 0 0)
(293.197 0 0)
(293.197 0 0)
(293.197 0 0)
(293.197 0 0)
(293.198 0 0)
(293.198 0 0)
(293.198 0 0)
(293.198 0 0)
(293.198 0 0)
(293.198 0 0)
(293.198 0 0)
(293.198 0 0)
(293.198 0 0)
(293.198 0 0)
(293.198 0 0)
(293.198 0 0)
(293.198 0 0)
(293.198 0 0)
(293.198 0 0)
(293.198 0 0)
(293.198 0 0)
(293.198 0 0)
(293.198 0 0)
(293.198 0 0)
(293.198 0 0)
(293.198 0 0)
(293.198 0 0)
(293.198 0 0)
(293.198 0 0)
(293.198 0 0)
(293.199 0 0)
(293.199 0 0)
(293.199 0 0)
(293.199 0 0)
(293.199 0 0)
(293.199 0 0)
(293.199 0 0)
(293.199 0 0)
(293.199 0 0)
(293.199 0 0)
(293.199 0 0)
(293.199 0 0)
(293.199 0 0)
(293.199 0 0)
(293.199 0 0)
(293.199 0 0)
(293.199 0 0)
(293.199 0 0)
(293.199 0 0)
(293.199 0 0)
(293.199 0 0)
(293.199 0 0)
(293.199 0 0)
(293.2 0 0)
(293.2 0 0)
(293.2 0 0)
(293.2 0 0)
(293.2 0 0)
(293.2 0 0)
(293.2 0 0)
(293.2 0 0)
(293.2 0 0)
(293.2 0 0)
(293.2 0 0)
(293.2 0 0)
(293.2 0 0)
(293.2 0 0)
(293.2 0 0)
(293.2 0 0)
(293.2 0 0)
(293.2 0 0)
(293.2 0 0)
(293.2 0 0)
(293.2 0 0)
(293.2 0 0)
(293.2 0 0)
(293.2 0 0)
(293.2 0 0)
(293.2 0 0)
(293.2 0 0)
(293.2 0 0)
(293.2 0 0)
(293.2 0 0)
(293.2 0 0)
(293.2 0 0)
(293.2 0 0)
(293.2 0 0)
(293.2 0 0)
(293.2 0 0)
(293.2 0 0)
(293.2 0 0)
(293.2 0 0)
(293.2 0 0)
(293.2 0 0)
(293.2 0 0)
(293.2 0 0)
(293.2 0 0)
(293.2 0 0)
(293.2 0 0)
(293.2 0 0)
(293.2 0 0)
(293.2 0 0)
(293.2 0 0)
(293.2 0 0)
(293.2 0 0)
(293.2 0 0)
(293.2 0 0)
(293.2 0 0)
(293.2 0 0)
(293.2 0 0)
(293.2 0 0)
(293.2 0 0)
(293.2 0 0)
(293.2 0 0)
(293.2 0 0)
(293.2 0 0)
(293.2 0 0)
(293.2 0 0)
(293.2 0 0)
(293.2 0 0)
(293.2 0 0)
(293.2 0 0)
(293.2 0 0)
(293.2 0 0)
(293.2 0 0)
(293.2 0 0)
(293.2 0 0)
(293.2 0 0)
(293.2 0 0)
(293.2 0 0)
(293.2 0 0)
(293.2 0 0)
(293.2 0 0)
(293.2 0 0)
(293.2 0 0)
(293.2 0 0)
(293.2 0 0)
(293.2 0 0)
(293.2 0 0)
(293.2 0 0)
(293.2 0 0)
(293.2 0 0)
(293.2 0 0)
(293.2 0 0)
(293.2 0 0)
(293.2 0 0)
(293.2 0 0)
(293.2 0 0)
(293.2 0 0)
(293.2 0 0)
(293.2 0 0)
(293.2 0 0)
(293.2 0 0)
(293.2 0 0)
(293.199 0 0)
(293.199 0 0)
(293.199 0 0)
(293.199 0 0)
(293.199 0 0)
(293.199 0 0)
(293.199 0 0)
(293.199 0 0)
(293.199 0 0)
(293.199 0 0)
(293.199 0 0)
(293.199 0 0)
(293.199 0 0)
(293.199 0 0)
(293.199 0 0)
(293.199 0 0)
(293.199 0 0)
(293.199 0 0)
(293.198 0 0)
(293.197 0 0)
(293.196 0 0)
(293.195 0 0)
(293.193 0 0)
(293.191 0 0)
(293.189 0 0)
(293.186 0 0)
(293.183 0 0)
(293.181 0 0)
(293.178 0 0)
(293.176 0 0)
(293.175 0 0)
(293.174 0 0)
(293.174 0 0)
(293.174 0 0)
(293.175 0 0)
(293.177 0 0)
(293.179 0 0)
(293.181 0 0)
(293.184 0 0)
(293.186 0 0)
(293.188 0 0)
(293.19 0 0)
(293.192 0 0)
(293.193 0 0)
(293.194 0 0)
(293.195 0 0)
(293.196 0 0)
(293.197 0 0)
(293.197 0 0)
(293.198 0 0)
(293.198 0 0)
(293.198 0 0)
(293.198 0 0)
(293.198 0 0)
(293.198 0 0)
(293.198 0 0)
(293.198 0 0)
(293.198 0 0)
(293.198 0 0)
(293.198 0 0)
(293.198 0 0)
(293.198 0 0)
(293.198 0 0)
(293.198 0 0)
(293.197 0 0)
(293.197 0 0)
(293.197 0 0)
(293.197 0 0)
(293.198 0 0)
(293.198 0 0)
(293.198 0 0)
(293.198 0 0)
(293.197 0 0)
(293.197 0 0)
(293.197 0 0)
(293.197 0 0)
(293.197 0 0)
(293.197 0 0)
(293.197 0 0)
(293.197 0 0)
(293.197 0 0)
(293.197 0 0)
(293.197 0 0)
(293.197 0 0)
(293.197 0 0)
(293.197 0 0)
(293.197 0 0)
(293.197 0 0)
(293.197 0 0)
(293.197 0 0)
(293.197 0 0)
(293.197 0 0)
(293.197 0 0)
(293.196 0 0)
(293.196 0 0)
(293.196 0 0)
(293.196 0 0)
(293.196 0 0)
(293.196 0 0)
(293.196 0 0)
(293.196 0 0)
(293.196 0 0)
(293.196 0 0)
(293.196 0 0)
(293.196 0 0)
(293.196 0 0)
(293.196 0 0)
(293.196 0 0)
(293.196 0 0)
(293.196 0 0)
(293.195 0 0)
(293.195 0 0)
(293.195 0 0)
(293.195 0 0)
(293.195 0 0)
(293.195 0 0)
(293.195 0 0)
(293.194 0 0)
(293.194 0 0)
(293.194 0 0)
(293.194 0 0)
(293.194 0 0)
(293.194 0 0)
(293.194 0 0)
(293.194 0 0)
(293.194 0 0)
(293.194 0 0)
(293.194 0 0)
(293.194 0 0)
(293.194 0 0)
(293.194 0 0)
(293.193 0 0)
(293.193 0 0)
(293.193 0 0)
(293.193 0 0)
(293.192 0 0)
(293.192 0 0)
(293.192 0 0)
(293.192 0 0)
(293.192 0 0)
(293.193 0 0)
(293.193 0 0)
(293.193 0 0)
(293.193 0 0)
(293.193 0 0)
(293.193 0 0)
(293.193 0 0)
(293.192 0 0)
(293.192 0 0)
(293.192 0 0)
(293.191 0 0)
(293.191 0 0)
(293.191 0 0)
(293.19 0 0)
(293.19 0 0)
(293.19 0 0)
(293.19 0 0)
(293.19 0 0)
(293.19 0 0)
(293.191 0 0)
(293.191 0 0)
(293.191 0 0)
(293.191 0 0)
(293.191 0 0)
(293.19 0 0)
(293.19 0 0)
(293.19 0 0)
(293.189 0 0)
(293.189 0 0)
(293.188 0 0)
(293.188 0 0)
(293.187 0 0)
(293.187 0 0)
(293.187 0 0)
(293.187 0 0)
(293.188 0 0)
(293.188 0 0)
(293.188 0 0)
(293.189 0 0)
(293.189 0 0)
(293.188 0 0)
(293.188 0 0)
(293.188 0 0)
(293.187 0 0)
(293.187 0 0)
(293.186 0 0)
(293.185 0 0)
(293.184 0 0)
(293.184 0 0)
(293.184 0 0)
(293.183 0 0)
(293.183 0 0)
(293.184 0 0)
(293.185 0 0)
(293.185 0 0)
(293.186 0 0)
(293.186 0 0)
(293.186 0 0)
(293.186 0 0)
(293.185 0 0)
(293.185 0 0)
(293.184 0 0)
(293.183 0 0)
(293.182 0 0)
(293.181 0 0)
(293.18 0 0)
(293.179 0 0)
(293.179 0 0)
(293.178 0 0)
(293.178 0 0)
(293.178 0 0)
(293.179 0 0)
(293.181 0 0)
(293.182 0 0)
(293.183 0 0)
(293.183 0 0)
(293.182 0 0)
(293.181 0 0)
(293.179 0 0)
(293.177 0 0)
(293.175 0 0)
(293.173 0 0)
(293.172 0 0)
(293.172 0 0)
(293.171 0 0)
(293.166 0 0)
(293.159 0 0)
(293.147 0 0)
(293.132 0 0)
(293.105 0 0)
(293.07 0 0)
(292.997 0 0)
(292.913 0 0)
(292.64 0 0)
(292.365 0 0)
(291.486 0 0)
(289.912 0 0)
(286.099 0 0)
(276.871 0 0)
(256.392 0 0)
(213.048 0 0)
(144.949 0 0)
(73.9714 0 0)
(27.9849 0 0)
(8.57099 0 0)
(2.32312 0 0)
(0.593091 0 0)
(0.148264 0 0)
(0.03685 0 0)
(0.00914599 0 0)
(0.00226927 0 0)
(0.000563004 0 0)
(0.000139679 0 0)
(3.46535e-05 0 0)
(8.59732e-06 0 0)
(2.13294e-06 0 0)
(5.29169e-07 0 0)
(1.31284e-07 0 0)
(3.25709e-08 0 0)
(8.08108e-09 0 0)
(2.00497e-09 0 0)
(4.97719e-10 0 0)
(1.23613e-10 0 0)
(3.08522e-11 0 0)
(7.61458e-12 0 0)
(1.85259e-12 0 0)
(4.81382e-13 0 0)
(1.60461e-13 0 0)
(1.45873e-13 0 0)
(-1.45873e-14 0 0)
(-1.75048e-13 0 0)
(-1.02111e-13 0 0)
(-1.45873e-13 0 0)
(1.60461e-13 0 0)
(1.45873e-14 0 0)
(1.60461e-13 0 0)
(4.3762e-14 0 0)
(5.83493e-14 0 0)
(-1.45873e-14 0 0)
(-5.83493e-14 0 0)
(2.04222e-13 0 0)
(4.3762e-14 0 0)
(5.39731e-13 0 0)
(1.89635e-13 0 0)
(5.39731e-13 0 0)
(1.45873e-13 0 0)
(3.64683e-13 0 0)
(1.02111e-13 0 0)
(3.20921e-13 0 0)
(-4.3762e-14 0 0)
(-5.83493e-14 0 0)
(-1.16699e-13 0 0)
(5.83493e-14 0 0)
(2.04222e-13 0 0)
(2.04222e-13 0 0)
(3.7927e-13 0 0)
(2.47984e-13 0 0)
(2.33397e-13 0 0)
(1.45873e-13 0 0)
)
;

boundaryField
{
    sides
    {
        type            zeroGradient;
    }
    empty
    {
        type            empty;
    }
}


// ************************************************************************* //
