/*--------------------------------*- C++ -*----------------------------------*\
| =========                 |                                                 |
| \\      /  F ield         | OpenFOAM: The Open Source CFD Toolbox           |
|  \\    /   O peration     | Version:  3.0.0                                 |
|   \\  /    A nd           | Web:      www.OpenFOAM.org                      |
|    \\/     M anipulation  |                                                 |
\*---------------------------------------------------------------------------*/
FoamFile
{
    version     2.0;
    format      ascii;
    class       volScalarField;
    location    "4.5";
    object      k;
}
// * * * * * * * * * * * * * * * * * * * * * * * * * * * * * * * * * * * * * //

dimensions      [0 2 -2 0 0 0 0];

internalField   nonuniform List<scalar> 
400
(
4.19933e-07
8.98699e-07
2.33097e-06
1.47786e-05
9.98874e-05
0.000280709
0.000395656
0.000465106
0.000495109
0.000505046
0.000498018
0.000466385
0.000430294
0.000380229
0.000333339
0.000279218
0.000230571
0.00017869
0.000121685
7.25552e-05
1.24919e-06
4.04487e-06
1.65216e-05
5.80712e-05
0.000143682
0.000213592
0.000243405
0.000256482
0.000262333
0.00026961
0.000279488
0.000296803
0.000320577
0.000346406
0.00037215
0.000393469
0.000403919
0.000406474
0.000371272
0.000348024
2.5578e-06
1.92786e-05
5.6057e-05
0.000109466
0.000168484
0.000222068
0.000256086
0.000297452
0.00035058
0.000411759
0.000454375
0.000489522
0.000506991
0.000523728
0.000540297
0.000559942
0.000572688
0.000580923
0.000609324
0.000721221
1.115e-05
4.69058e-05
8.49028e-05
0.000133771
0.000194884
0.000261261
0.000341406
0.000441295
0.000505416
0.000542858
0.0005634
0.000571701
0.000574448
0.000579662
0.00059517
0.000626436
0.000677228
0.000704737
0.000734959
0.00097788
2.91539e-05
6.32536e-05
0.000105286
0.00016513
0.000249453
0.000343782
0.000434824
0.000498365
0.000529158
0.000547848
0.000553218
0.00055209
0.000548384
0.000552992
0.000574862
0.000626452
0.000710702
0.000812003
0.000859667
0.00117969
4.80438e-05
7.60009e-05
0.000125899
0.000199326
0.000297524
0.000391322
0.000461078
0.000494513
0.00050702
0.000505897
0.000480745
0.000453786
0.000438193
0.00043239
0.00045993
0.000543806
0.000699087
0.00086426
0.000969785
0.00133781
7.58202e-05
8.20284e-05
0.000138726
0.000220307
0.000324975
0.000410723
0.00045438
0.000468677
0.000454745
0.000417762
0.000374061
0.000328653
0.000292201
0.000276926
0.00029838
0.00039963
0.000613505
0.000887095
0.0010782
0.00147674
0.000102319
8.20022e-05
0.000145789
0.000235129
0.000339974
0.00040719
0.000431901
0.000425335
0.000389359
0.00033367
0.000273256
0.000213125
0.000179631
0.000171721
0.000200037
0.000285123
0.000522918
0.000891214
0.00118492
0.00159792
0.000132212
8.07388e-05
0.000144288
0.000234435
0.000339147
0.000394641
0.000403585
0.000382165
0.000330842
0.000262043
0.000190349
0.000143638
0.000129109
0.000132595
0.000160531
0.000228905
0.000435685
0.000863235
0.00129037
0.00171389
0.00016022
7.65534e-05
0.000139479
0.000229631
0.000332745
0.000377771
0.000379028
0.000346198
0.000285697
0.000209541
0.000142286
0.000112369
0.000107433
0.000119216
0.000144204
0.000202667
0.000379108
0.000842891
0.00139625
0.00182614
0.000183749
7.5821e-05
0.000128917
0.000217503
0.000316205
0.000357306
0.00035522
0.00032008
0.000254782
0.000178015
0.000120146
9.80874e-05
0.0001001
0.000114449
0.00013877
0.000193891
0.000348494
0.000816783
0.00149759
0.00194432
0.000191243
7.71579e-05
0.000112701
0.000198359
0.00029816
0.000340089
0.000337377
0.000307308
0.000243966
0.000174136
0.00012136
9.87898e-05
9.95376e-05
0.000113413
0.000139606
0.00019343
0.00033614
0.00080479
0.00159906
0.00207322
0.000183371
8.02078e-05
9.77285e-05
0.000167477
0.000261821
0.000310586
0.000313065
0.000296754
0.000249599
0.000185302
0.000133752
0.000109305
0.000109478
0.000121632
0.00015112
0.000207435
0.000334281
0.000799446
0.00169131
0.00222423
0.00015997
7.94454e-05
8.73912e-05
0.000133224
0.000231306
0.00028712
0.000295624
0.000287602
0.000262888
0.000213133
0.000164101
0.000134002
0.00013121
0.000139742
0.000163563
0.000218892
0.000345776
0.000805848
0.00179821
0.00240807
0.000103472
7.21569e-05
7.63544e-05
0.000101013
0.00017106
0.000237296
0.000262602
0.000265445
0.000258653
0.000239764
0.00020917
0.000179744
0.000168163
0.000172557
0.000189436
0.000239205
0.000363926
0.00084093
0.00191791
0.00264559
4.22215e-05
5.38342e-05
6.51439e-05
8.57842e-05
0.000134078
0.00020025
0.00023299
0.000244258
0.000244482
0.000239676
0.000228147
0.000214494
0.000198915
0.00020044
0.000213057
0.000264633
0.000400731
0.000903427
0.00209175
0.00296066
1.002e-05
2.76095e-05
4.1878e-05
5.63786e-05
8.0224e-05
0.000124659
0.000163162
0.000186942
0.000197223
0.000207141
0.000208618
0.000208126
0.000208545
0.000215814
0.000241217
0.000319637
0.000496459
0.00105277
0.00233952
0.00340459
1.89651e-05
3.01261e-05
4.48569e-05
5.9995e-05
8.15608e-05
0.00011236
0.000144826
0.000170691
0.000192394
0.000214056
0.000232906
0.000254509
0.000283199
0.00032774
0.000401741
0.000571718
0.000829578
0.00147424
0.00290505
0.00408893
0.000128877
0.000329442
0.000401221
0.000451515
0.000492441
0.000538578
0.000598345
0.000667091
0.000742635
0.000839064
0.000938925
0.00107768
0.00120105
0.00141328
0.00158035
0.00191634
0.00228536
0.00304225
0.00457946
0.00534182
0.00289624
0.00580012
0.00686623
0.00713163
0.00711543
0.00705988
0.00700245
0.00696758
0.0069482
0.00694506
0.0069504
0.00696737
0.00699186
0.00704337
0.0070989
0.00719091
0.00729621
0.00743022
0.00792344
0.00685545
)
;

boundaryField
{
    movingWall
    {
        type            kqRWallFunction;
        value           nonuniform List<scalar> 
20
(
0.00289624
0.00580012
0.00686623
0.00713163
0.00711543
0.00705988
0.00700245
0.00696758
0.0069482
0.00694506
0.0069504
0.00696737
0.00699186
0.00704337
0.0070989
0.00719091
0.00729621
0.00743022
0.00792344
0.00685545
)
;
    }
    fixedWalls
    {
        type            kqRWallFunction;
        value           nonuniform List<scalar> 
60
(
4.19933e-07
1.24919e-06
2.5578e-06
1.115e-05
2.91539e-05
4.80438e-05
7.58202e-05
0.000102319
0.000132212
0.00016022
0.000183749
0.000191243
0.000183371
0.00015997
0.000103472
4.22215e-05
1.002e-05
1.89651e-05
0.000128877
0.00289624
7.25552e-05
0.000348024
0.000721221
0.00097788
0.00117969
0.00133781
0.00147674
0.00159792
0.00171389
0.00182614
0.00194432
0.00207322
0.00222423
0.00240807
0.00264559
0.00296066
0.00340459
0.00408893
0.00534182
0.00685545
4.19933e-07
8.98699e-07
2.33097e-06
1.47786e-05
9.98874e-05
0.000280709
0.000395656
0.000465106
0.000495109
0.000505046
0.000498018
0.000466385
0.000430294
0.000380229
0.000333339
0.000279218
0.000230571
0.00017869
0.000121685
7.25552e-05
)
;
    }
    frontAndBack
    {
        type            empty;
    }
}


// ************************************************************************* //
