/*--------------------------------*- C++ -*----------------------------------*\
| =========                 |                                                 |
| \\      /  F ield         | OpenFOAM: The Open Source CFD Toolbox           |
|  \\    /   O peration     | Version:  3.0.0                                 |
|   \\  /    A nd           | Web:      www.OpenFOAM.org                      |
|    \\/     M anipulation  |                                                 |
\*---------------------------------------------------------------------------*/
FoamFile
{
    version     2.0;
    format      ascii;
    class       volScalarField;
    location    "4.5";
    object      nut;
}
// * * * * * * * * * * * * * * * * * * * * * * * * * * * * * * * * * * * * * //

dimensions      [0 2 -1 0 0 0 0];

internalField   nonuniform List<scalar> 
400
(
3.28059e-09
7.02048e-09
1.82066e-08
1.15294e-07
7.72957e-07
2.13589e-06
2.97922e-06
3.4805e-06
3.69518e-06
3.76603e-06
3.71591e-06
3.48963e-06
3.22993e-06
2.86697e-06
2.52409e-06
2.12476e-06
1.76246e-06
1.37249e-06
9.39673e-07
5.629e-07
9.75809e-09
1.09286e-07
2.98357e-07
7.82098e-07
1.81505e-06
2.84879e-06
3.76108e-06
4.59751e-06
5.64593e-06
6.61777e-06
7.70408e-06
8.60405e-06
9.41233e-06
9.37067e-06
9.40694e-06
8.76952e-06
7.70433e-06
6.247e-06
4.15912e-06
2.63177e-06
1.99779e-08
5.01709e-07
1.14908e-06
2.09133e-06
3.44982e-06
5.74468e-06
8.15755e-06
1.13951e-05
1.49297e-05
1.84931e-05
2.07734e-05
2.2184e-05
2.16638e-05
2.07416e-05
1.89018e-05
1.65923e-05
1.34602e-05
1.00919e-05
6.94904e-06
5.2783e-06
8.70157e-08
1.22247e-06
2.09453e-06
3.43464e-06
6.22445e-06
1.10538e-05
1.71222e-05
2.5269e-05
3.09743e-05
3.44677e-05
3.62151e-05
3.66678e-05
3.50263e-05
3.28444e-05
2.95432e-05
2.56394e-05
2.102e-05
1.50016e-05
9.21873e-06
7.00566e-06
2.27126e-07
1.71981e-06
3.10214e-06
5.60196e-06
1.15629e-05
2.02842e-05
2.95966e-05
3.82587e-05
4.33343e-05
4.6763e-05
4.79946e-05
4.79463e-05
4.51051e-05
4.16911e-05
3.73209e-05
3.26199e-05
2.70891e-05
2.0353e-05
1.18318e-05
8.31598e-06
3.73612e-07
2.24304e-06
4.42524e-06
8.64908e-06
1.81649e-05
2.93792e-05
3.98244e-05
4.82688e-05
5.31479e-05
5.56273e-05
5.3895e-05
5.09714e-05
4.66219e-05
4.19787e-05
3.82132e-05
3.55581e-05
3.22252e-05
2.50601e-05
1.4616e-05
9.31518e-06
5.88052e-07
2.63796e-06
5.66678e-06
1.17004e-05
2.41537e-05
3.70116e-05
4.74554e-05
5.54055e-05
5.80349e-05
5.57474e-05
5.07457e-05
4.4244e-05
3.72619e-05
3.22588e-05
2.98779e-05
3.13433e-05
3.28912e-05
2.89745e-05
1.74616e-05
1.01744e-05
7.91581e-07
2.78417e-06
6.80261e-06
1.45245e-05
2.91123e-05
4.2108e-05
5.21388e-05
5.80543e-05
5.70179e-05
5.05802e-05
4.18289e-05
3.19089e-05
2.56725e-05
2.28256e-05
2.34694e-05
2.66506e-05
3.24431e-05
3.21677e-05
2.05526e-05
1.09101e-05
1.01995e-06
2.91284e-06
7.41201e-06
1.61416e-05
3.19527e-05
4.50575e-05
5.40534e-05
5.7421e-05
5.27418e-05
4.2688e-05
3.10094e-05
2.28786e-05
2.00324e-05
1.97105e-05
2.16233e-05
2.50415e-05
3.11506e-05
3.41191e-05
2.34595e-05
1.16027e-05
1.23277e-06
2.74838e-06
7.73395e-06
1.68972e-05
3.33105e-05
4.59708e-05
5.41464e-05
5.50709e-05
4.7824e-05
3.5613e-05
2.42107e-05
1.92477e-05
1.86383e-05
2.04487e-05
2.26645e-05
2.56386e-05
3.09795e-05
3.61371e-05
2.68063e-05
1.22628e-05
1.4107e-06
2.55284e-06
7.41006e-06
1.67742e-05
3.24645e-05
4.50597e-05
5.26428e-05
5.26086e-05
4.38958e-05
3.12265e-05
2.15186e-05
1.82839e-05
1.91831e-05
2.14777e-05
2.38897e-05
2.69088e-05
3.17263e-05
3.73113e-05
2.9701e-05
1.29472e-05
1.46722e-06
2.25858e-06
6.3741e-06
1.52814e-05
3.0405e-05
4.27549e-05
4.99338e-05
5.07267e-05
4.2674e-05
3.13742e-05
2.26267e-05
1.93294e-05
1.97557e-05
2.19579e-05
2.48947e-05
2.80292e-05
3.24289e-05
3.82983e-05
3.28587e-05
1.36819e-05
1.40786e-06
1.8716e-06
5.17412e-06
1.2642e-05
2.60546e-05
3.82827e-05
4.56008e-05
4.84625e-05
4.34388e-05
3.33926e-05
2.51211e-05
2.15914e-05
2.18227e-05
2.36713e-05
2.71656e-05
3.04957e-05
3.30704e-05
3.87526e-05
3.52338e-05
1.45276e-05
1.23089e-06
1.5485e-06
4.07474e-06
9.52449e-06
2.19384e-05
3.38716e-05
4.13988e-05
4.55066e-05
4.4759e-05
3.78194e-05
3.03052e-05
2.59616e-05
2.55894e-05
2.66326e-05
2.89025e-05
3.18914e-05
3.43437e-05
3.91954e-05
3.7288e-05
1.55362e-05
8.00433e-07
1.16384e-06
2.85843e-06
6.43334e-06
1.48204e-05
2.57059e-05
3.39418e-05
3.92063e-05
4.17774e-05
4.07413e-05
3.69227e-05
3.31344e-05
3.10855e-05
3.11457e-05
3.16265e-05
3.27324e-05
3.42319e-05
3.90153e-05
3.74571e-05
1.6807e-05
3.28523e-07
8.38728e-07
1.9801e-06
4.5329e-06
1.01562e-05
1.9302e-05
2.69857e-05
3.24845e-05
3.5857e-05
3.73386e-05
3.69152e-05
3.6005e-05
3.33677e-05
3.27611e-05
3.20806e-05
3.24598e-05
3.39779e-05
3.84191e-05
3.83007e-05
1.84403e-05
7.82054e-08
4.62706e-07
1.16952e-06
2.3707e-06
4.74346e-06
9.60239e-06
1.55441e-05
2.0743e-05
2.44745e-05
2.76287e-05
2.90723e-05
2.97044e-05
2.95522e-05
2.93741e-05
2.95637e-05
3.12632e-05
3.3765e-05
3.74675e-05
3.78387e-05
2.06487e-05
1.47894e-07
6.62808e-07
1.2977e-06
2.28765e-06
3.96135e-06
6.66999e-06
1.01666e-05
1.37201e-05
1.70827e-05
2.02654e-05
2.25052e-05
2.42851e-05
2.59898e-05
2.77164e-05
2.97133e-05
3.32769e-05
3.54561e-05
3.70228e-05
3.80574e-05
2.38644e-05
9.94517e-07
7.34594e-06
1.00791e-05
1.2432e-05
1.46581e-05
1.71124e-05
1.98335e-05
2.24567e-05
2.4815e-05
2.74275e-05
2.94357e-05
3.15977e-05
3.31778e-05
3.52608e-05
3.66336e-05
3.88729e-05
3.88854e-05
3.73285e-05
3.88583e-05
2.92587e-05
1.81117e-05
3.10984e-05
3.51447e-05
3.61055e-05
3.60471e-05
3.5847e-05
3.56397e-05
3.55136e-05
3.54434e-05
3.54323e-05
3.54518e-05
3.55136e-05
3.56026e-05
3.57892e-05
3.59895e-05
3.63198e-05
3.66956e-05
3.71702e-05
3.88835e-05
3.51054e-05
)
;

boundaryField
{
    movingWall
    {
        type            nutkWallFunction;
        Cmu             0.09;
        kappa           0.41;
        E               9.8;
        value           nonuniform List<scalar> 
20
(
0
0
0
2.2932e-08
1.39487e-08
0
0
0
0
0
0
0
0
0
4.77434e-09
5.57059e-08
1.13536e-07
1.86441e-07
4.48425e-07
0
)
;
    }
    fixedWalls
    {
        type            nutkWallFunction;
        Cmu             0.09;
        kappa           0.41;
        E               9.8;
        value           uniform 0;
    }
    frontAndBack
    {
        type            empty;
    }
}


// ************************************************************************* //
