/*--------------------------------*- C++ -*----------------------------------*\
| =========                 |                                                 |
| \\      /  F ield         | OpenFOAM: The Open Source CFD Toolbox           |
|  \\    /   O peration     | Version:  3.0.0                                 |
|   \\  /    A nd           | Web:      www.OpenFOAM.org                      |
|    \\/     M anipulation  |                                                 |
\*---------------------------------------------------------------------------*/
FoamFile
{
    version     2.0;
    format      ascii;
    class       volScalarField;
    location    "4.5";
    object      omega;
}
// * * * * * * * * * * * * * * * * * * * * * * * * * * * * * * * * * * * * * //

dimensions      [0 0 -1 0 0 0 0];

internalField   nonuniform List<scalar> 
400
(
128.005
128.011
128.029
128.182
129.228
131.425
132.805
133.632
133.988
134.106
134.023
133.649
133.221
132.624
132.063
131.411
130.824
130.193
129.498
128.895
128.015
37.0119
55.3752
74.2506
79.1617
74.9765
64.7168
55.7871
46.4641
40.7403
36.2779
34.4958
34.0593
36.967
39.5613
44.8678
52.4275
65.0671
89.2669
132.24
128.032
38.4258
48.7842
52.3428
48.8384
38.6562
31.3925
26.1035
23.4821
22.2656
21.8729
22.0664
23.4027
25.2502
28.5844
33.7472
42.5467
57.5631
87.6846
136.639
128.138
38.3698
40.5355
38.9476
31.3095
23.6353
19.9394
17.4639
16.3173
15.7498
15.5571
15.5913
16.4005
17.6487
20.1457
24.4325
32.2183
46.9774
79.7245
139.584
128.36
36.7794
33.9397
29.4772
21.5736
16.9483
14.6917
13.0262
12.2111
11.7154
11.5267
11.5148
12.1579
13.264
15.4032
19.2046
26.2357
39.896
72.6572
141.859
128.593
33.883
28.4502
23.0459
16.3791
13.3197
11.5778
10.245
9.53979
9.09441
8.92004
8.90277
9.39888
10.3002
12.0359
15.2935
21.6938
34.4875
66.3509
143.616
128.934
31.0953
24.4805
18.829
13.4545
11.0972
9.57489
8.45904
7.83571
7.49383
7.3713
7.42819
7.84183
8.58451
9.98663
12.7501
18.6525
30.6164
61.7467
145.143
129.26
29.453
21.4313
16.1884
11.678
9.67014
8.28368
7.3265
6.82873
6.59684
6.53271
6.67916
6.997
7.52319
8.5233
10.6986
16.118
27.7052
57.6531
146.463
129.626
27.7183
19.4668
14.5236
10.614
8.75861
7.4664
6.6555
6.27285
6.13856
6.13845
6.27824
6.44502
6.72714
7.42397
9.14105
13.9864
25.3007
55.004
147.715
129.967
27.854
18.0346
13.5899
9.98921
8.21763
7.00005
6.28641
5.97393
5.88383
5.87697
5.83802
5.76411
5.83001
6.36253
7.90476
12.2374
23.3248
52.0867
148.918
130.254
29.7007
17.3975
12.9665
9.74001
7.92961
6.74774
6.08418
5.80424
5.70075
5.58337
5.36469
5.21813
5.32874
5.8088
7.20549
10.9844
21.891
50.4223
150.173
130.344
34.1622
17.681
12.9804
9.80627
7.95438
6.75649
6.05811
5.71698
5.55029
5.36357
5.11086
5.03843
5.165
5.60785
6.90103
10.3654
21.0137
48.6649
151.53
130.248
42.8553
18.8879
13.2477
10.0489
8.11294
6.86535
6.12337
5.746
5.5492
5.32431
5.06244
5.01672
5.13836
5.56292
6.80212
10.1082
20.6295
48.0026
153.104
129.962
51.3047
21.4471
13.9875
10.5434
8.47673
7.14088
6.32001
5.8734
5.63556
5.41496
5.16156
5.1275
5.24705
5.65912
6.86367
10.0681
20.5598
48.225
154.997
129.27
61.9988
26.712
15.7014
11.5422
9.23118
7.73683
6.77045
6.19122
5.88504
5.66508
5.42469
5.4097
5.54033
5.98979
7.30789
10.6312
21.5539
51.2028
157.41
128.519
64.1856
32.8993
18.9248
13.2016
10.3746
8.63384
7.51923
6.81827
6.41899
6.1803
5.95735
5.9613
6.11823
6.6413
8.15263
11.7939
23.5151
54.6138
160.554
128.124
59.6697
35.808
23.7814
16.9126
12.9821
10.4967
9.01229
8.0583
7.49734
7.17583
7.00656
7.05682
7.34708
8.1592
10.2241
14.7034
28.0982
61.8287
164.882
128.235
45.4522
34.5663
26.2256
20.5892
16.8456
14.2453
12.4409
11.2625
10.5626
10.349
10.4801
10.8965
11.8247
13.5206
17.1806
23.3973
39.8199
76.3332
171.34
129.587
44.8468
39.8073
36.3187
33.5952
31.4731
30.1684
29.7056
29.9268
30.5921
31.8975
34.1064
36.2005
40.0807
43.1393
49.2977
58.7717
81.4992
117.85
182.572
159.91
186.509
195.371
197.522
197.392
196.945
196.479
196.195
196.037
196.009
196.052
196.188
196.386
196.802
197.25
197.988
198.831
199.897
203.774
195.282
)
;

boundaryField
{
    movingWall
    {
        Cmu             0.09;
        kappa           0.41;
        E               9.8;
        beta1           0.075;
        type            omegaWallFunction;
        value           nonuniform List<scalar> 
20
(
159.91
186.509
195.371
197.522
197.392
196.945
196.479
196.195
196.037
196.009
196.052
196.188
196.386
196.802
197.25
197.988
198.831
199.897
203.774
195.282
)
;
    }
    fixedWalls
    {
        Cmu             0.09;
        kappa           0.41;
        E               9.8;
        beta1           0.075;
        type            omegaWallFunction;
        value           nonuniform List<scalar> 
60
(
128.005
128.015
128.032
128.138
128.36
128.593
128.934
129.26
129.626
129.967
130.254
130.344
130.248
129.962
129.27
128.519
128.124
128.235
129.587
159.91
128.895
132.24
136.639
139.584
141.859
143.616
145.143
146.463
147.715
148.918
150.173
151.53
153.104
154.997
157.41
160.554
164.882
171.34
182.572
195.282
128.005
128.011
128.029
128.182
129.228
131.425
132.805
133.632
133.988
134.106
134.023
133.649
133.221
132.624
132.063
131.411
130.824
130.193
129.498
128.895
)
;
    }
    frontAndBack
    {
        type            empty;
    }
}


// ************************************************************************* //
