/*--------------------------------*- C++ -*----------------------------------*\
| =========                 |                                                 |
| \\      /  F ield         | OpenFOAM: The Open Source CFD Toolbox           |
|  \\    /   O peration     | Version:  3.0.0                                 |
|   \\  /    A nd           | Web:      www.OpenFOAM.org                      |
|    \\/     M anipulation  |                                                 |
\*---------------------------------------------------------------------------*/
FoamFile
{
    version     2.0;
    format      ascii;
    class       volScalarField;
    location    "4.5";
    object      p;
}
// * * * * * * * * * * * * * * * * * * * * * * * * * * * * * * * * * * * * * //

dimensions      [0 2 -2 0 0 0 0];

internalField   nonuniform List<scalar> 
400
(
8.01866e-08
-7.03502e-05
-0.000112805
-0.000255541
-0.000182221
-0.000608179
-0.00167648
-0.00298075
-0.00416928
-0.0050742
-0.00558276
-0.00561234
-0.00506419
-0.00386926
-0.00199487
0.000524399
0.00345025
0.00622252
0.00796958
0.00838653
2.30653e-05
-4.92574e-05
-8.63571e-05
-0.000242816
-0.000691936
-0.00149474
-0.00262295
-0.00379695
-0.00490409
-0.00573836
-0.00621587
-0.00625421
-0.00580392
-0.00478076
-0.00311542
-0.000817802
0.00196205
0.0047569
0.0068312
0.0078486
0.000154512
3.46124e-05
-0.000246446
-0.000780287
-0.00164108
-0.0027693
-0.00396965
-0.00514023
-0.00618994
-0.00693152
-0.00732892
-0.00734715
-0.00695775
-0.00611316
-0.00476465
-0.00288349
-0.000513534
0.0021349
0.00455317
0.00603327
0.000275964
6.52065e-06
-0.000632085
-0.00164152
-0.00288885
-0.0042155
-0.00547569
-0.00656878
-0.00739656
-0.00796511
-0.00827167
-0.00828911
-0.00799016
-0.00734197
-0.00630642
-0.0048485
-0.00294862
-0.000657581
0.00168426
0.00324722
7.09633e-05
-0.000385987
-0.00134951
-0.002715
-0.00416775
-0.00553398
-0.00670183
-0.00763968
-0.00832821
-0.00880058
-0.00905601
-0.00908689
-0.00886686
-0.00837462
-0.00758528
-0.00647593
-0.00501583
-0.0031789
-0.00114713
0.000291351
-0.000572725
-0.00114455
-0.00232394
-0.00381825
-0.00529962
-0.00658773
-0.00762384
-0.00843456
-0.00903413
-0.00945367
-0.00969134
-0.0097436
-0.00958858
-0.00920948
-0.00859462
-0.00773835
-0.0066316
-0.00522753
-0.00369059
-0.00238142
-0.00154427
-0.00214817
-0.00337765
-0.00482655
-0.00622745
-0.00739325
-0.00831232
-0.00903255
-0.00957338
-0.00996175
-0.0101971
-0.0102729
-0.0101679
-0.0098695
-0.00937861
-0.00870422
-0.00786536
-0.00680641
-0.00571401
-0.00461034
-0.00257807
-0.00315133
-0.00432778
-0.00566222
-0.00694498
-0.00798934
-0.00881674
-0.00947295
-0.0099762
-0.010349
-0.0105928
-0.0106964
-0.0106384
-0.0104075
-0.0100115
-0.00946534
-0.00881785
-0.00800561
-0.00724763
-0.00633292
-0.00343534
-0.00397116
-0.00506097
-0.00627937
-0.00744928
-0.00839392
-0.00915646
-0.00977113
-0.0102544
-0.0106273
-0.0108945
-0.0110395
-0.0110379
-0.0108669
-0.0105356
-0.0100571
-0.00952865
-0.00885204
-0.00832321
-0.00755458
-0.00403034
-0.00450158
-0.00551018
-0.00664991
-0.00773693
-0.00861344
-0.00933782
-0.00993195
-0.0104119
-0.0107997
-0.0111037
-0.0113025
-0.011355
-0.0112207
-0.0109162
-0.0104367
-0.00998573
-0.00932553
-0.00899239
-0.00825623
-0.00430245
-0.00474346
-0.00567494
-0.00676914
-0.00779707
-0.00864659
-0.00935803
-0.00995161
-0.0104435
-0.0108547
-0.0111926
-0.0114279
-0.0115194
-0.0113775
-0.0110691
-0.0105255
-0.010147
-0.00938541
-0.00927186
-0.00843129
-0.00425207
-0.00469714
-0.00556981
-0.0066268
-0.00764024
-0.00849131
-0.00921085
-0.0098204
-0.0103335
-0.0107645
-0.0111171
-0.0113581
-0.0114236
-0.0112648
-0.0109085
-0.0103505
-0.00992159
-0.00908105
-0.00917822
-0.00807117
-0.00397916
-0.00442647
-0.00525051
-0.00624602
-0.00726796
-0.0081381
-0.00888474
-0.0095257
-0.010066
-0.0105101
-0.0108561
-0.0110709
-0.0110966
-0.0108922
-0.0104811
-0.00987917
-0.00935101
-0.00847799
-0.00865746
-0.00723851
-0.00359751
-0.00402684
-0.00476282
-0.00565085
-0.0066571
-0.00756594
-0.0083665
-0.00905981
-0.00963966
-0.0100992
-0.0104299
-0.0106032
-0.0105754
-0.0103067
-0.00982241
-0.00914206
-0.00849112
-0.00758656
-0.00774229
-0.0060572
-0.00334471
-0.00364545
-0.00418137
-0.00489499
-0.00581269
-0.00676569
-0.0076478
-0.00842082
-0.00906165
-0.00955246
-0.00987844
-0.010012
-0.00992266
-0.00957331
-0.00899192
-0.00819571
-0.00740081
-0.00641715
-0.00648692
-0.00457647
-0.00329233
-0.00334745
-0.00352473
-0.00397634
-0.0047573
-0.00574122
-0.00672841
-0.00761487
-0.00834825
-0.00889733
-0.00924228
-0.00935414
-0.00921044
-0.00877454
-0.00807562
-0.00712703
-0.0061403
-0.00498128
-0.00487655
-0.00255294
-0.00342575
-0.00311224
-0.00279659
-0.00293029
-0.00355537
-0.00454361
-0.00563712
-0.00666237
-0.00752383
-0.00816709
-0.00856418
-0.00868373
-0.00850836
-0.00799797
-0.00717657
-0.00604166
-0.00477829
-0.00324907
-0.00262394
0.00115698
-0.00282921
-0.00247845
-0.00192151
-0.00178175
-0.00229067
-0.00329898
-0.0044924
-0.00564479
-0.00663767
-0.00739512
-0.00787337
-0.00802989
-0.00785161
-0.00729761
-0.00637793
-0.00503866
-0.00336586
-0.00109421
0.00105317
0.0089602
-0.0036609
-0.0026173
-0.00137705
-0.000915214
-0.00134908
-0.0023762
-0.00364348
-0.0048955
-0.00598591
-0.00683093
-0.00737917
-0.00759526
-0.00744463
-0.00689078
-0.00584781
-0.00422106
-0.00190337
0.00182143
0.00721997
0.0216453
-0.00181055
0.000774456
0.000876404
0.000348018
-0.000526278
-0.00169699
-0.00303764
-0.00436295
-0.00551631
-0.00640268
-0.00697484
-0.00719457
-0.00701686
-0.0063872
-0.00521691
-0.003315
4.45307e-05
0.00606432
0.0161447
0.033555
)
;

boundaryField
{
    movingWall
    {
        type            zeroGradient;
    }
    fixedWalls
    {
        type            zeroGradient;
    }
    frontAndBack
    {
        type            empty;
    }
}


// ************************************************************************* //
