/*--------------------------------*- C++ -*----------------------------------*\
| =========                 |                                                 |
| \\      /  F ield         | OpenFOAM: The Open Source CFD Toolbox           |
|  \\    /   O peration     | Version:  3.0.0                                 |
|   \\  /    A nd           | Web:      www.OpenFOAM.org                      |
|    \\/     M anipulation  |                                                 |
\*---------------------------------------------------------------------------*/
FoamFile
{
    version     2.0;
    format      ascii;
    class       surfaceScalarField;
    location    "4.5";
    object      phi;
}
// * * * * * * * * * * * * * * * * * * * * * * * * * * * * * * * * * * * * * //

dimensions      [0 3 -1 0 0 0 0];

internalField   nonuniform List<scalar> 
760
(
1.88571e-07
-1.88578e-07
2.45067e-07
-5.6497e-08
5.06299e-08
1.94437e-07
-6.01939e-07
6.52568e-07
-1.86411e-06
1.26217e-06
-3.30866e-06
1.44455e-06
-4.53292e-06
1.22425e-06
-5.5648e-06
1.03188e-06
-6.31544e-06
7.50641e-07
-6.87926e-06
5.63818e-07
-7.21937e-06
3.40109e-07
-7.38707e-06
1.67703e-07
-7.3443e-06
-4.27751e-08
-7.08034e-06
-2.63955e-07
-6.56149e-06
-5.18853e-07
-5.69873e-06
-8.62754e-07
-4.44825e-06
-1.25049e-06
-2.80766e-06
-1.64059e-06
-1.03291e-06
-1.77475e-06
-1.03291e-06
-9.15034e-09
-1.79428e-07
-4.08448e-07
3.428e-07
-1.43074e-06
1.21673e-06
-2.93722e-06
2.15904e-06
-4.26311e-06
2.58806e-06
-5.17142e-06
2.35287e-06
-6.00184e-06
2.05467e-06
-6.608e-06
1.63805e-06
-7.12693e-06
1.26958e-06
-7.46322e-06
9.00103e-07
-7.66162e-06
5.38512e-07
-7.67843e-06
1.8451e-07
-7.54981e-06
-1.71394e-07
-7.27373e-06
-5.40037e-07
-6.78904e-06
-1.00355e-06
-6.06156e-06
-1.59023e-06
-4.99687e-06
-2.31518e-06
-3.52395e-06
-3.1135e-06
-1.71104e-06
-3.58766e-06
-2.74395e-06
-4.5953e-07
2.80102e-07
-1.45027e-06
1.33354e-06
-2.8064e-06
2.57286e-06
-3.94034e-06
3.29298e-06
-4.71906e-06
3.36678e-06
-5.34156e-06
2.97537e-06
-5.81414e-06
2.52725e-06
-6.12337e-06
1.94727e-06
-6.31604e-06
1.46225e-06
-6.37543e-06
9.59495e-07
-6.37714e-06
5.40218e-07
-6.31859e-06
1.25964e-07
-6.20191e-06
-2.8807e-07
-5.9803e-06
-7.61648e-07
-5.64556e-06
-1.33829e-06
-5.15388e-06
-2.08191e-06
-4.42954e-06
-3.03952e-06
-3.36922e-06
-4.17382e-06
-1.89525e-06
-5.06163e-06
-4.6392e-06
-8.50893e-07
1.131e-06
-2.07611e-06
2.55875e-06
-3.19288e-06
3.68963e-06
-3.94958e-06
4.04969e-06
-4.42447e-06
3.84167e-06
-4.72556e-06
3.27646e-06
-4.85123e-06
2.65292e-06
-4.90414e-06
2.00019e-06
-4.91651e-06
1.47461e-06
-4.92776e-06
9.70753e-07
-4.91148e-06
5.2393e-07
-4.85768e-06
7.21662e-08
-4.74868e-06
-3.97069e-07
-4.57476e-06
-9.35567e-07
-4.32596e-06
-1.58709e-06
-3.98979e-06
-2.41808e-06
-3.52638e-06
-3.50294e-06
-2.80459e-06
-4.8956e-06
-1.64204e-06
-6.22418e-06
-6.28124e-06
-1.02012e-06
2.15111e-06
-2.1151e-06
3.65374e-06
-2.89317e-06
4.4677e-06
-3.39217e-06
4.54868e-06
-3.63848e-06
4.08798e-06
-3.73161e-06
3.36959e-06
-3.7569e-06
2.6782e-06
-3.78068e-06
2.02397e-06
-3.78419e-06
1.47812e-06
-3.77969e-06
9.66251e-07
-3.74961e-06
4.93854e-07
-3.69033e-06
1.28874e-08
-3.58495e-06
-5.0245e-07
-3.43113e-06
-1.08938e-06
-3.22619e-06
-1.79203e-06
-2.97079e-06
-2.67348e-06
-2.65333e-06
-3.82039e-06
-2.18195e-06
-5.36699e-06
-1.34625e-06
-7.05989e-06
-7.62749e-06
-9.12871e-07
3.06398e-06
-1.7794e-06
4.52027e-06
-2.33504e-06
5.02334e-06
-2.66607e-06
4.87971e-06
-2.78615e-06
4.20806e-06
-2.82839e-06
3.41183e-06
-2.84156e-06
2.69137e-06
-2.85976e-06
2.04217e-06
-2.86748e-06
1.48585e-06
-2.8668e-06
9.6557e-07
-2.84453e-06
4.71583e-07
-2.79432e-06
-3.73284e-08
-2.7026e-06
-5.9417e-07
-2.5647e-06
-1.22728e-06
-2.38586e-06
-1.97087e-06
-2.17884e-06
-2.8805e-06
-1.95988e-06
-4.03936e-06
-1.67351e-06
-5.65335e-06
-1.04432e-06
-7.68908e-06
-8.6718e-06
-7.18572e-07
3.78256e-06
-1.32537e-06
5.12707e-06
-1.71876e-06
5.41673e-06
-1.93301e-06
5.09396e-06
-2.00952e-06
4.28456e-06
-2.04511e-06
3.44742e-06
-2.06818e-06
2.71445e-06
-2.09453e-06
2.06852e-06
-2.11401e-06
1.50534e-06
-2.12855e-06
9.8011e-07
-2.12859e-06
4.71618e-07
-2.10455e-06
-6.13701e-08
-2.03801e-06
-6.6071e-07
-1.9197e-06
-1.34558e-06
-1.7604e-06
-2.13017e-06
-1.58056e-06
-3.06034e-06
-1.40513e-06
-4.2148e-06
-1.19574e-06
-5.86274e-06
-8.43363e-07
-8.04145e-06
-9.51517e-06
-4.60206e-07
4.24276e-06
-8.63806e-07
5.53067e-06
-1.1349e-06
5.68783e-06
-1.27188e-06
5.23093e-06
-1.3294e-06
4.34209e-06
-1.36748e-06
3.4855e-06
-1.40149e-06
2.74846e-06
-1.43868e-06
2.10571e-06
-1.47491e-06
1.54157e-06
-1.5142e-06
1.0194e-06
-1.55095e-06
5.08372e-07
-1.56754e-06
-4.47816e-08
-1.53768e-06
-6.90572e-07
-1.44486e-06
-1.4384e-06
-1.30327e-06
-2.27176e-06
-1.14564e-06
-3.21797e-06
-1.00898e-06
-4.35146e-06
-8.63462e-07
-6.00826e-06
-6.34443e-07
-8.27047e-06
-1.01496e-05
-2.29175e-07
4.47194e-06
-4.39667e-07
5.74116e-06
-5.92219e-07
5.84039e-06
-6.71614e-07
5.31033e-06
-7.21874e-07
4.39235e-06
-7.6383e-07
3.52745e-06
-8.0608e-07
2.79071e-06
-8.53367e-07
2.15299e-06
-9.0727e-07
1.59547e-06
-9.75252e-07
1.08738e-06
-1.05456e-06
5.87679e-07
-1.10712e-06
7.78042e-09
-1.11166e-06
-6.86032e-07
-1.04653e-06
-1.50353e-06
-9.26131e-07
-2.39215e-06
-7.90209e-07
-3.35389e-06
-6.87825e-07
-4.45384e-06
-6.10374e-07
-6.08571e-06
-5.1307e-07
-8.36778e-06
-1.06627e-05
3.60855e-08
4.43585e-06
-6.23977e-08
5.83964e-06
-1.1629e-07
5.89428e-06
-1.53243e-07
5.34728e-06
-1.76415e-07
4.41552e-06
-2.12626e-07
3.56366e-06
-2.54577e-07
2.83266e-06
-3.05635e-07
2.20405e-06
-3.69887e-07
1.65972e-06
-4.53621e-07
1.17112e-06
-5.4503e-07
6.79088e-07
-6.10466e-07
7.32166e-08
-6.27439e-07
-6.69059e-07
-5.95685e-07
-1.53529e-06
-5.25816e-07
-2.46202e-06
-4.42622e-07
-3.43708e-06
-4.10296e-07
-4.48617e-06
-4.0204e-07
-6.09396e-06
-3.83536e-07
-8.38628e-06
-1.10462e-05
2.24659e-07
4.21119e-06
3.24199e-07
5.7401e-06
3.80202e-07
5.83827e-06
3.78034e-07
5.34945e-06
3.55607e-07
4.43795e-06
3.23384e-07
3.59589e-06
2.87146e-07
2.8689e-06
2.43323e-07
2.24787e-06
1.87444e-07
1.7156e-06
1.1812e-07
1.24044e-06
4.982e-08
7.47388e-07
1.91421e-09
1.21123e-07
-1.98032e-08
-6.47342e-07
-3.63924e-08
-1.5187e-06
-3.41931e-08
-2.46422e-06
-7.82076e-08
-3.39307e-06
-1.09245e-07
-4.45513e-06
-2.12758e-07
-5.99045e-06
-3.08227e-07
-8.29081e-06
-1.13544e-05
4.3869e-07
3.7725e-06
6.75413e-07
5.50338e-06
8.16629e-07
5.69706e-06
8.52133e-07
5.31394e-06
8.48448e-07
4.44164e-06
8.41546e-07
3.60279e-06
8.29134e-07
2.88131e-06
8.10437e-07
2.26657e-06
7.87797e-07
1.73824e-06
7.63791e-07
1.26445e-06
7.41475e-07
7.69704e-07
7.06082e-07
1.56516e-07
6.54888e-07
-5.96148e-07
5.75265e-07
-1.43908e-06
4.65698e-07
-2.35466e-06
3.35004e-07
-3.26237e-06
1.78718e-07
-4.29884e-06
-5.65412e-08
-5.75519e-06
-2.00511e-07
-8.14684e-06
-1.1555e-05
6.35742e-07
3.13676e-06
1.00368e-06
5.13544e-06
1.2504e-06
5.45034e-06
1.3746e-06
5.18975e-06
1.3876e-06
4.42863e-06
1.39898e-06
3.59141e-06
1.40871e-06
2.87158e-06
1.4166e-06
2.25869e-06
1.42554e-06
1.7293e-06
1.43812e-06
1.25187e-06
1.44352e-06
7.64301e-07
1.41256e-06
1.87473e-07
1.32885e-06
-5.12435e-07
1.1843e-06
-1.29452e-06
9.83071e-07
-2.15343e-06
7.57326e-07
-3.03663e-06
4.61175e-07
-4.00269e-06
1.43154e-07
-5.43717e-06
-7.39933e-08
-7.92969e-06
-1.16289e-05
7.98787e-07
2.33798e-06
1.27906e-06
4.65517e-06
1.58129e-06
5.1481e-06
1.7933e-06
4.97773e-06
1.88363e-06
4.3383e-06
1.94488e-06
3.53016e-06
1.99611e-06
2.82035e-06
2.04037e-06
2.21443e-06
2.07939e-06
1.69028e-06
2.1144e-06
1.21686e-06
2.13238e-06
7.46317e-07
2.09913e-06
2.20721e-07
1.9877e-06
-4.01005e-07
1.79013e-06
-1.09694e-06
1.51144e-06
-1.87474e-06
1.17887e-06
-2.70406e-06
7.64608e-07
-3.58843e-06
3.72449e-07
-5.04501e-06
7.64013e-08
-7.63365e-06
-1.15525e-05
9.08212e-07
1.42976e-06
1.48075e-06
4.08263e-06
1.90152e-06
4.72733e-06
2.25092e-06
4.62833e-06
2.45056e-06
4.13867e-06
2.5731e-06
3.40762e-06
2.66459e-06
2.72886e-06
2.73756e-06
2.14146e-06
2.79423e-06
1.63361e-06
2.83313e-06
1.17796e-06
2.84221e-06
7.37235e-07
2.79099e-06
2.71945e-07
2.6485e-06
-2.58518e-07
2.40487e-06
-8.53308e-07
2.05662e-06
-1.5265e-06
1.61659e-06
-2.26404e-06
1.09227e-06
-3.0641e-06
5.99645e-07
-4.55239e-06
1.97187e-07
-7.23119e-06
-1.13554e-05
7.0871e-07
7.21053e-07
1.40803e-06
3.38331e-06
1.98671e-06
4.14866e-06
2.48847e-06
4.12656e-06
2.87087e-06
3.75627e-06
3.12551e-06
3.15297e-06
3.3059e-06
2.54847e-06
3.43781e-06
2.00955e-06
3.52959e-06
1.54184e-06
3.58102e-06
1.12652e-06
3.58365e-06
7.3461e-07
3.51461e-06
3.40983e-07
3.34432e-06
-8.82312e-08
3.0586e-06
-5.67582e-07
2.64085e-06
-1.10875e-06
2.09569e-06
-1.71888e-06
1.46527e-06
-2.43369e-06
8.57528e-07
-3.94464e-06
3.5478e-07
-6.72844e-06
-1.10006e-05
2.11557e-07
5.09496e-07
1.133e-06
2.46187e-06
1.93933e-06
3.34233e-06
2.6679e-06
3.39799e-06
3.28526e-06
3.1389e-06
3.73591e-06
2.70233e-06
4.05393e-06
2.23045e-06
4.26969e-06
1.79379e-06
4.40603e-06
1.4055e-06
4.47001e-06
1.06254e-06
4.46099e-06
7.43625e-07
4.36532e-06
4.36653e-07
4.15512e-06
1.21969e-07
3.82053e-06
-2.32998e-07
3.32911e-06
-6.17328e-07
2.70121e-06
-1.09097e-06
1.9744e-06
-1.70688e-06
1.23501e-06
-3.20525e-06
5.50652e-07
-6.04408e-06
-1.04499e-05
-3.11596e-07
8.21092e-07
4.12852e-07
1.73742e-06
1.31179e-06
2.44339e-06
2.28963e-06
2.42015e-06
3.1761e-06
2.25244e-06
3.89427e-06
1.98416e-06
4.43768e-06
1.68704e-06
4.82509e-06
1.40638e-06
5.08117e-06
1.14942e-06
5.2257e-06
9.18012e-07
5.26068e-06
7.08646e-07
5.19492e-06
5.02416e-07
5.00674e-06
3.10143e-07
4.7149e-06
5.88467e-08
4.24591e-06
-1.48338e-07
3.66214e-06
-5.07202e-07
2.94164e-06
-9.86378e-07
2.10075e-06
-2.36437e-06
1.01943e-06
-4.96276e-06
-9.43049e-06
-1.02428e-06
1.84537e-06
-4.90864e-07
1.20401e-06
7.69465e-07
1.18306e-06
2.05028e-06
1.13933e-06
3.18301e-06
1.11971e-06
4.12195e-06
1.04522e-06
4.8804e-06
9.28581e-07
5.47915e-06
8.07631e-07
5.93745e-06
6.9112e-07
6.26681e-06
5.88649e-07
6.48766e-06
4.87798e-07
6.59784e-06
3.92238e-07
6.61052e-06
2.97459e-07
6.48133e-06
1.88033e-07
6.25381e-06
7.91859e-08
5.88167e-06
-1.35066e-07
5.3379e-06
-4.42602e-07
4.41342e-06
-1.43989e-06
2.5195e-06
-3.06885e-06
-6.91099e-06
1.84537e-06
3.04938e-06
4.23244e-06
5.37177e-06
6.49148e-06
7.5367e-06
8.46528e-06
9.27291e-06
9.96404e-06
1.05527e-05
1.10405e-05
1.14327e-05
1.17302e-05
1.19182e-05
1.19974e-05
1.18623e-05
1.14197e-05
9.97984e-06
6.91099e-06
)
;

boundaryField
{
    movingWall
    {
        type            calculated;
        value           uniform 0;
    }
    fixedWalls
    {
        type            calculated;
        value           uniform 0;
    }
    frontAndBack
    {
        type            empty;
        value           nonuniform 0();
    }
}


// ************************************************************************* //
