/*--------------------------------*- C++ -*----------------------------------*\
| =========                 |                                                 |
| \\      /  F ield         | OpenFOAM: The Open Source CFD Toolbox           |
|  \\    /   O peration     | Version:  3.0.0                                 |
|   \\  /    A nd           | Web:      www.OpenFOAM.org                      |
|    \\/     M anipulation  |                                                 |
\*---------------------------------------------------------------------------*/
FoamFile
{
    version     2.0;
    format      ascii;
    class       volVectorField;
    location    "4.5";
    object      U;
}
// * * * * * * * * * * * * * * * * * * * * * * * * * * * * * * * * * * * * * //

dimensions      [0 1 -1 0 0 0 0];

internalField   nonuniform List<vector> 
400
(
(0.00236527 -0.0024257 0)
(0.00462076 -0.00177253 0)
(0.00591903 -0.00083592 0)
(-0.00444992 0.00110054 0)
(-0.0168635 0.00780115 0)
(-0.0556889 0.0161533 0)
(-0.0810552 0.0115588 0)
(-0.104867 0.0113912 0)
(-0.12083 0.00835716 0)
(-0.134188 0.00708551 0)
(-0.142521 0.00455665 0)
(-0.147334 0.00314527 0)
(-0.148913 0.000961294 0)
(-0.145682 -0.00246801 0)
(-0.136896 -0.00500664 0)
(-0.121972 -0.00894241 0)
(-0.099729 -0.0120812 0)
(-0.0705021 -0.015098 0)
(-0.0382031 -0.0149347 0)
(-0.00720621 -0.00335818 0)
(0.00163395 -0.00562297 0)
(-0.00213982 -0.00068828 0)
(-0.01317 0.00947322 0)
(-0.0421876 0.0275266 0)
(-0.0741034 0.0418165 0)
(-0.096762 0.0381535 0)
(-0.114341 0.0340364 0)
(-0.127719 0.0277828 0)
(-0.139281 0.0202337 0)
(-0.147203 0.0143913 0)
(-0.152749 0.00817112 0)
(-0.154759 0.00290237 0)
(-0.154039 -0.00316458 0)
(-0.149434 -0.00961004 0)
(-0.141378 -0.018029 0)
(-0.127926 -0.0285317 0)
(-0.109084 -0.0410956 0)
(-0.0836573 -0.0533534 0)
(-0.053106 -0.0562125 0)
(-0.0160854 -0.0343071 0)
(-0.00210165 -0.000950913 0)
(-0.0157311 0.0154158 0)
(-0.0409369 0.0400117 0)
(-0.0698367 0.0562207 0)
(-0.089215 0.0595824 0)
(-0.102726 0.0533836 0)
(-0.112734 0.0456597 0)
(-0.121037 0.0349087 0)
(-0.125936 0.0272434 0)
(-0.127211 0.0185638 0)
(-0.128272 0.010987 0)
(-0.127236 0.00306806 0)
(-0.126174 -0.00497205 0)
(-0.122659 -0.0141336 0)
(-0.117108 -0.0252399 0)
(-0.108128 -0.0395411 0)
(-0.0952381 -0.0575763 0)
(-0.0767405 -0.0781385 0)
(-0.052036 -0.0927486 0)
(-0.0197429 -0.0789737 0)
(-0.00543998 0.0134202 0)
(-0.027427 0.0402377 0)
(-0.0553462 0.0646544 0)
(-0.0745119 0.0735252 0)
(-0.0860723 0.0716423 0)
(-0.093282 0.0623533 0)
(-0.0972237 0.0519151 0)
(-0.098063 0.040067 0)
(-0.0979962 0.0296799 0)
(-0.0987081 0.0194755 0)
(-0.0987115 0.010831 0)
(-0.0980489 0.00207851 0)
(-0.0966008 -0.00681454 0)
(-0.0937676 -0.0171024 0)
(-0.0896643 -0.0296447 0)
(-0.0837526 -0.0459015 0)
(-0.0753102 -0.0672065 0)
(-0.0623464 -0.0934378 0)
(-0.043965 -0.116265 0)
(-0.0171245 -0.113981 0)
(-0.00766186 0.0331642 0)
(-0.0323118 0.0621516 0)
(-0.0537237 0.0815059 0)
(-0.0652423 0.0857251 0)
(-0.0728285 0.0793655 0)
(-0.0743629 0.066877 0)
(-0.0753649 0.0539318 0)
(-0.0751677 0.0408322 0)
(-0.0756686 0.029871 0)
(-0.075717 0.0195742 0)
(-0.0755354 0.0102617 0)
(-0.074685 0.00085633 0)
(-0.0731047 -0.00902467 0)
(-0.0705122 -0.0203005 0)
(-0.0669747 -0.0338792 0)
(-0.0624869 -0.0511301 0)
(-0.0567991 -0.0739926 0)
(-0.0475785 -0.104941 0)
(-0.0350898 -0.135851 0)
(-0.0147637 -0.14248 0)
(-0.00605237 0.051205 0)
(-0.0298316 0.0820261 0)
(-0.0439735 0.0946757 0)
(-0.0525995 0.0941402 0)
(-0.056245 0.0831702 0)
(-0.0560046 0.0682223 0)
(-0.0567709 0.0540217 0)
(-0.0567474 0.0408907 0)
(-0.0573412 0.029784 0)
(-0.057385 0.0194028 0)
(-0.0573152 0.00966221 0)
(-0.0566407 -0.000293173 0)
(-0.0552558 -0.0109699 0)
(-0.052932 -0.0230918 0)
(-0.0497243 -0.0374273 0)
(-0.0458693 -0.0551579 0)
(-0.0418372 -0.078023 0)
(-0.0350804 -0.109721 0)
(-0.0292958 -0.149217 0)
(-0.00829304 -0.164831 0)
(-0.00481714 0.0680592 0)
(-0.0234966 0.0955809 0)
(-0.0322717 0.103619 0)
(-0.0388871 0.0995808 0)
(-0.0403481 0.0850662 0)
(-0.040173 0.0687592 0)
(-0.0411247 0.0541465 0)
(-0.0414261 0.0411573 0)
(-0.0421239 0.0299112 0)
(-0.0424568 0.0194246 0)
(-0.0427463 0.00935987 0)
(-0.0425745 -0.00110448 0)
(-0.0416884 -0.0125359 0)
(-0.039786 -0.0255605 0)
(-0.0369129 -0.0407416 0)
(-0.0333266 -0.0591543 0)
(-0.030494 -0.0824206 0)
(-0.0242058 -0.115161 0)
(-0.0235805 -0.157723 0)
(-0.00626498 -0.182908 0)
(-0.00199453 0.0799494 0)
(-0.0160113 0.106881 0)
(-0.0209488 0.111257 0)
(-0.0261797 0.103312 0)
(-0.0262953 0.0862997 0)
(-0.0266109 0.0693561 0)
(-0.0276564 0.0546207 0)
(-0.028246 0.0417193 0)
(-0.0291201 0.0304076 0)
(-0.0298945 0.019897 0)
(-0.0308005 0.00966753 0)
(-0.0314327 -0.00120821 0)
(-0.0313181 -0.0134814 0)
(-0.0300023 -0.027684 0)
(-0.027583 -0.0438093 0)
(-0.0240207 -0.0626247 0)
(-0.0224901 -0.0854941 0)
(-0.0163307 -0.118684 0)
(-0.0196743 -0.163241 0)
(-0.00234643 -0.19725 0)
(-0.000243291 0.0879973 0)
(-0.0086669 0.112496 0)
(-0.0107026 0.114988 0)
(-0.0142053 0.105309 0)
(-0.0138646 0.0873092 0)
(-0.0145956 0.0701222 0)
(-0.0156538 0.0553699 0)
(-0.0164489 0.0425485 0)
(-0.017522 0.0312942 0)
(-0.0187871 0.0209341 0)
(-0.0204566 0.0107599 0)
(-0.0219448 -0.000504273 0)
(-0.0224948 -0.0140368 0)
(-0.0216811 -0.0298403 0)
(-0.0199124 -0.0471486 0)
(-0.0162479 -0.0663294 0)
(-0.0162262 -0.0885001 0)
(-0.00967355 -0.121593 0)
(-0.0165607 -0.166703 0)
(-0.00101309 -0.208849 0)
(0.00335272 0.0898081 0)
(-0.00168931 0.117024 0)
(-0.00150429 0.118428 0)
(-0.00376018 0.106929 0)
(-0.00298465 0.0881999 0)
(-0.00372615 0.0709331 0)
(-0.00460713 0.0562154 0)
(-0.00544768 0.0435233 0)
(-0.00661289 0.0324567 0)
(-0.00818426 0.02241 0)
(-0.0102692 0.0124349 0)
(-0.0119783 0.000739352 0)
(-0.0126726 -0.0141137 0)
(-0.0121153 -0.0313031 0)
(-0.0115482 -0.0495953 0)
(-0.00828843 -0.068828 0)
(-0.0106158 -0.0902078 0)
(-0.00396134 -0.122436 0)
(-0.014286 -0.167789 0)
(0.00169945 -0.217796 0)
(0.00510906 0.0876454 0)
(0.0043181 0.116298 0)
(0.00727783 0.117677 0)
(0.00677895 0.106726 0)
(0.00762732 0.0885072 0)
(0.00692856 0.0715619 0)
(0.00617751 0.0569956 0)
(0.00543868 0.0444941 0)
(0.00444857 0.0336897 0)
(0.0030981 0.0240028 0)
(0.00149983 0.0141421 0)
(0.000341922 0.00189794 0)
(-0.000357486 -0.0135996 0)
(-0.000252735 -0.031277 0)
(-0.00139456 -0.0501584 0)
(0.000593551 -0.0690869 0)
(-0.0046331 -0.0903925 0)
(0.00171775 -0.121223 0)
(-0.0125123 -0.167487 0)
(0.00312731 -0.224473 0)
(0.00729113 0.0822654 0)
(0.0101685 0.114922 0)
(0.0152371 0.11692 0)
(0.0158887 0.107591 0)
(0.0172039 0.0889368 0)
(0.0170818 0.072091 0)
(0.0168012 0.0575753 0)
(0.0165005 0.0452041 0)
(0.0160428 0.0346082 0)
(0.0153828 0.0251655 0)
(0.0146873 0.0153194 0)
(0.0142775 0.00285049 0)
(0.0136357 -0.0124984 0)
(0.0129035 -0.0297992 0)
(0.0101489 -0.0485643 0)
(0.00994507 -0.0670398 0)
(0.00179809 -0.0880509 0)
(0.0073963 -0.117661 0)
(-0.0111873 -0.164909 0)
(0.00610677 -0.228834 0)
(0.00923052 0.0707227 0)
(0.0154029 0.107371 0)
(0.0230405 0.111726 0)
(0.0256887 0.105245 0)
(0.0278187 0.0883801 0)
(0.0280376 0.0717458 0)
(0.0281234 0.0574964 0)
(0.0282767 0.0453234 0)
(0.0284003 0.0348361 0)
(0.0284513 0.0254388 0)
(0.0284868 0.0156838 0)
(0.0285043 0.00364299 0)
(0.0275953 -0.0109366 0)
(0.0259956 -0.0272903 0)
(0.0216616 -0.0451792 0)
(0.0194566 -0.0632889 0)
(0.00876799 -0.0832276 0)
(0.0129271 -0.112293 0)
(-0.00983583 -0.160966 0)
(0.00895762 -0.231411 0)
(0.0108966 0.0578915 0)
(0.0198415 0.100922 0)
(0.0297599 0.107529 0)
(0.0330834 0.103062 0)
(0.0368163 0.0887742 0)
(0.0383942 0.071734 0)
(0.0394091 0.0572365 0)
(0.0403467 0.0449836 0)
(0.041148 0.0344299 0)
(0.0418024 0.0249317 0)
(0.0422344 0.0153673 0)
(0.0424158 0.0042328 0)
(0.0411076 -0.00897008 0)
(0.0388624 -0.0237209 0)
(0.0331309 -0.0401794 0)
(0.0292415 -0.0574833 0)
(0.015978 -0.0760296 0)
(0.0185392 -0.1052 0)
(-0.00800897 -0.155628 0)
(0.0133384 -0.232632 0)
(0.0122728 0.0362295 0)
(0.0233026 0.0861829 0)
(0.0351786 0.0985231 0)
(0.041488 0.0960191 0)
(0.0465843 0.0851982 0)
(0.0501161 0.0695326 0)
(0.0522926 0.0555688 0)
(0.0539746 0.043677 0)
(0.0552612 0.0334 0)
(0.0562308 0.0241109 0)
(0.0566206 0.0149686 0)
(0.0565885 0.00500152 0)
(0.0546244 -0.00648733 0)
(0.0517766 -0.0192785 0)
(0.0448129 -0.033791 0)
(0.0394956 -0.0495946 0)
(0.0235531 -0.0666257 0)
(0.0245723 -0.0965179 0)
(-0.00617234 -0.14984 0)
(0.0178595 -0.233414 0)
(0.00658922 0.0205969 0)
(0.0225294 0.0762712 0)
(0.0355531 0.0908785 0)
(0.0448599 0.0898603 0)
(0.0529005 0.0814683 0)
(0.0595231 0.0676179 0)
(0.0640952 0.0540403 0)
(0.0673857 0.0422906 0)
(0.0696421 0.0322766 0)
(0.0711842 0.0234113 0)
(0.0715713 0.0149715 0)
(0.0713826 0.00627792 0)
(0.0687809 -0.00338993 0)
(0.0654835 -0.0140296 0)
(0.0572441 -0.0261701 0)
(0.0505676 -0.039735 0)
(0.0319426 -0.0550402 0)
(0.0316336 -0.085905 0)
(-0.00417939 -0.142353 0)
(0.023832 -0.232532 0)
(-0.00629522 0.00482773 0)
(0.0158259 0.0545109 0)
(0.0323518 0.0739301 0)
(0.0461387 0.0759309 0)
(0.0587065 0.0703962 0)
(0.0694883 0.0603487 0)
(0.0774874 0.0494214 0)
(0.0831372 0.0391185 0)
(0.0866886 0.0300391 0)
(0.0889841 0.0220957 0)
(0.0892344 0.0147843 0)
(0.088831 0.00766284 0)
(0.0852878 6.69428e-05 0)
(0.081422 -0.00812811 0)
(0.0716437 -0.0172839 0)
(0.0636775 -0.0279032 0)
(0.0429411 -0.0416456 0)
(0.0414158 -0.0731126 0)
(-0.0010573 -0.13298 0)
(0.031473 -0.225774 0)
(-0.0117504 0.0200341 0)
(0.000117841 0.0507725 0)
(0.0184886 0.0644256 0)
(0.0360718 0.0641996 0)
(0.0536511 0.0592352 0)
(0.0700227 0.0513467 0)
(0.0828741 0.0429258 0)
(0.0927412 0.0353754 0)
(0.0988781 0.0284594 0)
(0.103468 0.0222179 0)
(0.104762 0.0163689 0)
(0.105348 0.0109142 0)
(0.101921 0.00545088 0)
(0.098702 -0.000312786 0)
(0.0893238 -0.00629137 0)
(0.0818277 -0.0148092 0)
(0.0622879 -0.0266854 0)
(0.0597059 -0.0576572 0)
(0.0104664 -0.115977 0)
(0.046269 -0.200512 0)
(-0.0170955 0.00518101 0)
(-0.0206289 0.00765462 0)
(0.00371528 0.0246312 0)
(0.0279986 0.0280038 0)
(0.0517286 0.0287354 0)
(0.072679 0.0269665 0)
(0.0897022 0.0238213 0)
(0.103779 0.0201928 0)
(0.114226 0.0168721 0)
(0.122474 0.0137619 0)
(0.127638 0.0110949 0)
(0.131334 0.00809097 0)
(0.13206 0.00584205 0)
(0.131538 0.00203083 0)
(0.126834 -0.000584295 0)
(0.122422 -0.00678176 0)
(0.108016 -0.0148717 0)
(0.103621 -0.0399747 0)
(0.0526213 -0.0841727 0)
(0.0800472 -0.149707 0)
(0.0424461 0.0797668 0)
(0.0431304 0.0522246 0)
(0.0708456 0.0314865 0)
(0.0959221 0.0228971 0)
(0.118469 0.019254 0)
(0.139836 0.0171709 0)
(0.159575 0.0153227 0)
(0.177142 0.0138727 0)
(0.192481 0.012347 0)
(0.20532 0.0112804 0)
(0.216149 0.00986778 0)
(0.224798 0.00904991 0)
(0.231681 0.00750053 0)
(0.236387 0.0068575 0)
(0.239309 0.0047059 0)
(0.238202 0.00272642 0)
(0.231966 0.00106917 0)
(0.218797 -0.00715937 0)
(0.168626 -0.0168931 0)
(0.155654 -0.0941804 0)
)
;

boundaryField
{
    movingWall
    {
        type            fixedValue;
        value           uniform (1 0 0);
    }
    fixedWalls
    {
        type            fixedValue;
        value           uniform (0 0 0);
    }
    frontAndBack
    {
        type            empty;
    }
}


// ************************************************************************* //
