/*--------------------------------*- C++ -*----------------------------------*\
| =========                 |                                                 |
| \\      /  F ield         | OpenFOAM: The Open Source CFD Toolbox           |
|  \\    /   O peration     | Version:  3.0.0                                 |
|   \\  /    A nd           | Web:      www.OpenFOAM.org                      |
|    \\/     M anipulation  |                                                 |
\*---------------------------------------------------------------------------*/
FoamFile
{
    version     2.0;
    format      ascii;
    class       surfaceScalarField;
    location    "3.25";
    object      phi;
}
// * * * * * * * * * * * * * * * * * * * * * * * * * * * * * * * * * * * * * //

dimensions      [0 3 -1 0 0 0 0];

internalField   nonuniform List<scalar> 
11520
(
-0.00027193
-0.000333391
0.000252625
-0.000208037
-0.000153771
0.000260532
-0.000139536
2.47757e-05
0.000244242
-8.38387e-05
0.000205811
0.000179648
-5.45862e-05
0.000389502
6.46865e-05
-5.46123e-05
0.000563105
-7.45532e-05
-7.79564e-05
0.000691163
-0.000196645
-0.000115837
0.000727045
-0.000271872
-0.000159621
0.000640614
-0.000293927
-0.000200868
0.000436225
-0.000269654
-0.000234159
0.000155336
-0.000207759
-0.000261187
-0.000133135
-0.000120031
-0.000287469
-0.000358808
-2.38674e-05
-0.000311845
-0.000480661
6.2913e-05
-0.000324674
-0.000498111
0.000133764
-0.000435121
0.000186974
-0.000432887
-0.000351469
0.000221172
-0.000371681
-0.000181465
0.000199802
-0.000291155
-4.97517e-06
0.000168292
-0.000212173
0.000182737
0.00010611
-0.000152419
0.000379419
1.07306e-05
-0.000121501
0.000565915
-0.000101357
-0.000119545
0.000700725
-0.000201067
-0.000137338
0.000732702
-0.000262169
-0.000161793
0.000632349
-0.000272875
-0.0001853
0.000411355
-0.000234198
-0.000211512
0.000121903
-0.000156084
-0.000251077
-0.000160326
-5.83196e-05
-0.000308479
-0.000369381
3.43311e-05
-0.000373182
-0.000476654
0.000105262
-0.000426271
-0.000489775
0.000153241
-0.000429798
0.000181838
-0.00055031
-0.00036149
0.000154115
-0.000492275
-0.000218356
0.000105346
-0.000403986
-5.88547e-05
6.13324e-05
-0.000306704
0.000122484
4.64482e-06
-0.000217271
0.000319982
-6.74736e-05
-0.000147744
0.000512686
-0.000146702
-0.000104446
0.000657109
-0.000215121
-8.66741e-05
0.000698176
-0.00025149
-8.85891e-05
0.000602817
-0.00024099
-0.000107316
0.000385755
-0.0001814
-0.000147952
0.000106755
-8.56963e-05
-0.000217515
-0.00015563
1.85778e-05
-0.000312393
-0.00034301
0.000101408
-0.000413715
-0.000438278
0.00014816
-0.000498549
-0.000453985
0.000163569
-0.000403874
0.000160757
-0.000603386
-0.000366134
7.0317e-05
-0.000549586
-0.000261029
-3.39942e-06
-0.000457723
-0.00012992
-5.82445e-05
-0.000345783
3.25004e-05
-0.000109152
-0.000229619
0.000219211
-0.000158157
-0.000122859
0.000410062
-0.000202487
-3.82676e-05
0.000564471
-0.000233979
1.38148e-05
0.000627245
-0.0002387
2.94431e-05
0.000558422
-0.00020209
8.14305e-06
0.000367442
-0.000119748
-5.23522e-05
0.00011556
-7.63682e-06
-0.000152378
-0.000118627
0.000100086
-0.000280017
-0.000284237
0.000169537
-0.000410833
-0.000373012
0.00018862
-0.0005194
-0.000398636
0.000168324
-0.000366165
0.000131861
-0.00058324
-0.000363569
-1.09718e-05
-0.000537107
-0.000303734
-0.000103263
-0.00044615
-0.000206959
-0.000170183
-0.000327096
-7.11931e-05
-0.000216795
-0.000194443
9.66578e-05
-0.000245838
-6.24937e-05
0.000279038
-0.000258102
5.22788e-05
0.000440973
-0.000252814
0.000131522
0.000531226
-0.00022385
0.000161756
0.000503626
-0.000159624
0.000138678
0.000355588
-5.51308e-05
6.29428e-05
0.000143348
7.12498e-05
-5.9003e-05
-5.75447e-05
0.000179788
-0.000209116
-0.000202449
0.000234858
-0.000359217
-0.000289297
0.000227039
-0.000482186
-0.000330564
0.000172468
-0.000323496
0.000102478
-0.000496429
-0.000351848
-6.83894e-05
-0.000459508
-0.000335811
-0.000179072
-0.000375833
-0.000274883
-0.000256005
-0.000259878
-0.000168702
-0.000300484
-0.000124968
-2.35988e-05
-0.00031453
1.49981e-05
0.000145687
-0.000300977
0.000143313
0.000309927
-0.000263888
0.000239165
0.000424178
-0.000203871
0.00028241
0.000440578
-0.000114118
0.000263725
0.000344497
7.7568e-06
0.000182647
0.000179301
0.000145586
5.16161e-05
1.53119e-05
0.000252852
-0.000107303
-0.000109377
0.00029481
-0.000264282
-0.00019664
0.000264311
-0.000391377
-0.000256405
0.00018076
-0.000280709
7.9751e-05
-0.000357881
-0.000329029
-9.2644e-05
-0.000331354
-0.000350223
-0.000216615
-0.000260346
-0.000321568
-0.00030202
-0.000156716
-0.000243336
-0.000346842
-3.23173e-05
-0.000121167
-0.000352185
0.000100022
3.25254e-05
-0.000321372
0.000225109
0.000193244
-0.00026082
0.000323999
0.000322237
-0.000176073
0.000375513
0.000374188
-6.62371e-05
0.000364332
0.000327114
6.92813e-05
0.000288844
0.000211504
0.000209854
0.00016285
8.62087e-05
0.000313637
1.03716e-05
-1.80832e-05
0.000345819
-0.000139609
-0.000105652
0.000300114
-0.000260223
-0.000183018
0.000196556
-0.000240732
7.10402e-05
-0.000188493
-0.000297538
-7.95884e-05
-0.000171832
-0.000344723
-0.000210423
-0.000116829
-0.0003406
-0.000301625
-3.19145e-05
-0.000285024
-0.000349431
7.32707e-05
-0.000183206
-0.000353598
0.000187307
-4.57464e-05
-0.000316274
0.000296628
0.000106581
-0.000243672
0.000385292
0.000240146
-0.000143875
0.000435167
0.00031412
-2.18414e-05
0.000429102
0.000305278
0.000118483
0.00036443
0.000233093
0.00025636
0.000254993
0.000143233
0.000354639
0.000123603
5.8364e-05
0.000381793
-5.60955e-06
-2.71681e-05
0.000330947
-0.000107481
-0.00011929
0.0002195
-0.00020632
8.08573e-05
-1.09023e-05
-0.000263888
-3.57062e-05
-1.72695e-06
-0.000322027
-0.000163733
3.59054e-05
-0.000330975
-0.000256323
9.89045e-05
-0.000290205
-0.000309196
0.000180538
-0.000204171
-0.00032016
0.000270673
-8.1973e-05
-0.000288395
0.000356684
5.87767e-05
-0.000217314
0.000424828
0.000188721
-0.000114907
0.000461776
0.000272253
9.00308e-06
0.000452312
0.00028636
0.000146558
0.0003966
0.000244422
0.000275645
0.000309286
0.000179622
0.000366657
0.000210752
0.000108345
0.00039352
0.000118032
2.52426e-05
0.000348312
4.52468e-05
-7.37326e-05
0.000244231
-0.000180299
0.000108259
0.000151678
-0.000233592
2.51387e-05
0.000155932
-0.000287643
-8.75908e-05
0.000178027
-0.000296471
-0.000175188
0.000219512
-0.000260705
-0.00023336
0.000277059
-0.000184259
-0.000257958
0.000341486
-7.4649e-05
-0.000243414
0.000400241
5.3434e-05
-0.000187791
0.000441252
0.000174179
-9.64243e-05
0.000454464
0.000256076
1.93342e-05
0.000432296
0.000279192
0.000144986
0.000379502
0.000250552
0.000260122
0.000313542
0.000194198
0.000341576
0.000252699
0.000124462
0.000370631
0.000205512
4.0736e-05
0.000340194
0.000173838
-5.85369e-05
0.000258137
-0.000168809
0.000144199
0.000275574
-0.000215364
8.57955e-05
0.000280234
-0.000249566
1.93824e-06
0.000290329
-0.000244638
-7.21999e-05
0.000314044
-0.000202612
-0.000133429
0.000350203
-0.000128128
-0.000176086
0.000389659
-2.64336e-05
-0.000188344
0.000419222
9.03644e-05
-0.000160444
0.0004282
0.00019933
-9.25616e-05
0.000411682
0.000272236
3.04757e-06
0.000369875
0.000290117
0.000110332
0.000314891
0.000256229
0.000206729
0.000266901
0.000188728
0.000275762
0.00024207
0.000104365
0.000306587
0.000241874
1.22096e-05
0.000295696
0.000255714
-8.29512e-05
0.000247572
-0.000178053
0.000174201
0.000340032
-0.000215194
0.000134396
0.000349867
-0.000215513
8.96662e-05
0.000355838
-0.000182952
3.76313e-05
0.000368464
-0.000124809
-2.32166e-05
0.000388483
-4.41052e-05
-8.57012e-05
0.000405391
5.62541e-05
-0.000131117
0.000405373
0.000165862
-0.000139766
0.00038021
0.000262823
-0.000104858
0.000331174
0.000320246
-3.66468e-05
0.000268461
0.000319841
4.43781e-05
0.000210953
0.000262234
0.000118611
0.000179512
0.000164496
0.000174033
0.000185745
5.04365e-05
0.000206825
0.000224416
-5.81015e-05
0.000217494
0.000276609
-0.000147149
0.000209087
-0.000212163
0.000186861
0.000332269
-0.000233715
0.000170079
0.000351425
-0.000190614
0.000166335
0.000361374
-0.000121635
0.000139598
0.000372057
-3.86323e-05
8.2196e-05
0.000382696
5.69768e-05
4.23305e-07
0.000380784
0.000164298
-8.04732e-05
0.000352531
0.00027266
-0.000129656
0.00029422
0.000358864
-0.00013231
0.000215677
0.000395273
-9.70471e-05
0.000137187
0.000363289
-4.45915e-05
8.26049e-05
0.000264208
8.02659e-06
6.93973e-05
0.00012086
5.38102e-05
0.000100481
-3.09652e-05
9.33613e-05
0.000163108
-0.000157479
0.000127774
0.000235612
-0.000237576
0.000157844
-0.000266635
0.000183852
0.000252401
-0.000263814
0.000199492
0.000282172
-0.000174732
0.000227626
0.000303168
-6.74651e-05
0.000221739
0.000320441
4.47848e-05
0.000167462
0.000328436
0.000162866
6.80795e-05
0.000312116
0.000286721
-4.62634e-05
0.000258859
0.000402058
-0.00013402
0.000172096
0.000479419
-0.000172642
7.31784e-05
0.000487305
-0.000168915
-8.4402e-06
0.000408765
-0.000141479
-4.93775e-05
0.00025342
-0.000102624
-4.21697e-05
5.77192e-05
-5.57966e-05
4.38361e-06
-0.000129404
-1.93532e-06
7.22447e-05
-0.000266281
5.65537e-05
0.000143316
-0.000332349
0.00011707
-0.000328093
0.000176771
0.000115196
-0.00029329
0.000223879
0.000153083
-0.000162683
0.000267398
0.000186449
-2.14596e-05
0.000272156
0.000212955
0.000118747
0.00021769
0.00022131
0.000263084
0.000102339
0.000194873
0.000412009
-4.24106e-05
0.000124215
0.000543653
-0.00016649
2.24134e-05
0.000613568
-0.000237021
-7.71018e-05
0.000581733
-0.000254275
-0.000142344
0.000441203
-0.000233952
-0.000160183
0.000222467
-0.000188812
-0.000137363
-1.98045e-05
-0.000126695
-9.02361e-05
-0.000229491
-5.4374e-05
-3.55751e-05
-0.000364798
2.18494e-05
1.68392e-05
-0.000412234
9.8423e-05
-0.000381132
0.000172309
-4.75786e-05
0.000223191
-1.38341e-05
0.00026916
2.1235e-05
0.000278886
4.651e-05
0.000223363
4.93642e-05
9.46091e-05
2.09478e-05
-8.00819e-05
-3.69885e-05
-0.000242867
-0.000109668
-0.000341905
-0.00017477
-0.000361181
-0.000214392
-0.000317228
-0.000222532
-0.000237572
-0.000204532
-0.000146085
-0.000172991
-5.88587e-05
-0.000140428
1.9197e-05
-0.000112699
9.04052e-05
0.000157318
-0.000211742
-0.000545038
0.00023213
-0.000142918
-0.000357746
0.000215719
-7.71159e-05
-0.000138549
0.000184327
-3.12564e-05
0.000107638
0.000118173
-1.79777e-05
0.000361768
1.62721e-05
-3.8437e-05
0.000589426
-9.76711e-05
-8.30567e-05
0.000745609
-0.00018898
-0.000138499
0.000792712
-0.000237746
-0.000193177
0.000714951
-0.000243481
-0.000238096
0.000521156
-0.000212729
-0.000267762
0.000244446
-0.000150402
-0.000282179
-6.05621e-05
-6.42001e-05
-0.000289668
-0.000330701
2.93074e-05
-0.000293236
-0.000517032
0.000109586
-0.000288951
-0.00060112
0.000166135
-0.000585555
0.000199765
-0.000344721
-0.000561648
0.000202188
-0.000284395
-0.000383324
0.000165055
-0.000209087
-0.00017174
0.000126176
-0.000137107
7.43243e-05
6.74444e-05
-8.72564e-05
0.000337188
-1.45396e-05
-7.28885e-05
0.000580347
-0.000106645
-9.44454e-05
0.00075043
-0.000184331
-0.000137468
0.000799967
-0.000226402
-0.000182291
0.000711602
-0.000224703
-0.000216223
0.000501593
-0.000180703
-0.000239081
0.000213223
-0.000102003
-0.00026122
-9.14078e-05
-5.3344e-06
-0.00029209
-0.000349556
8.40557e-05
-0.000330036
-0.00052121
0.000147387
-0.000362198
-0.000596743
0.000181025
-0.00057855
0.00019295
-0.000435159
-0.000568313
0.000142317
-0.000380346
-0.000415344
8.25527e-05
-0.000300828
-0.000226287
3.63607e-05
-0.000213053
3.71886e-06
-1.25255e-05
-0.000134054
0.000260313
-6.95975e-05
-8.00702e-05
0.000510539
-0.000130878
-6.08515e-05
0.000699313
-0.000183223
-7.26071e-05
0.000768487
-0.000208254
-0.000100928
0.000690938
-0.000192006
-0.000134311
0.00048478
-0.000131204
-0.000172324
0.000201641
-3.61009e-05
-0.000222467
-9.06747e-05
6.79873e-05
-0.000287775
-0.000332531
0.000149692
-0.000358384
-0.000492567
0.000190127
-0.000416837
-0.000567056
0.000192335
-0.000554702
0.000173695
-0.000468239
-0.000568189
6.49077e-05
-0.000419117
-0.000452061
-1.58043e-05
-0.000338523
-0.00029464
-7.04845e-05
-0.000240379
-9.19139e-05
-0.000111664
-0.000138524
0.00014566
-0.000145359
-4.88156e-05
0.000391607
-0.000173263
1.16985e-05
0.000596927
-0.000192107
3.301e-05
0.000699149
-0.000190674
1.91488e-05
0.000656279
-0.000153569
-1.95044e-05
0.000477099
-7.34134e-05
-7.87699e-05
0.000215712
3.75573e-05
-0.000159212
-5.6644e-05
0.000146497
-0.000255924
-0.000282824
0.000216543
-0.000352452
-0.000437803
0.000230384
-0.00042886
-0.000519911
0.000197587
-0.000522916
0.000144739
-0.000441818
-0.000560974
-1.36025e-05
-0.000398362
-0.000486175
-0.000112605
-0.000320611
-0.00036544
-0.000177134
-0.000219453
-0.000195714
-0.000214153
-0.000105994
1.54861e-05
-0.000229123
5.65974e-06
0.000248605
-0.000226754
9.62616e-05
0.000464116
-0.000210605
0.000145965
0.000603046
-0.00017745
0.000146748
0.000610718
-0.000114847
0.000104759
0.00047762
-1.3663e-05
2.8769e-05
0.000250864
0.000112088
-7.50343e-05
3.63669e-06
0.00022331
-0.000194209
-0.000208502
0.00027971
-0.000307377
-0.000364249
0.000266654
-0.000393276
-0.000461006
0.000199461
-0.000488309
0.000111828
-0.000362716
-0.000543744
-7.60981e-05
-0.000326132
-0.000510677
-0.000191154
-0.000255546
-0.000426574
-0.000265457
-0.000160026
-0.000290341
-0.000301377
-4.85994e-05
-0.000107274
-0.000303197
6.72331e-05
0.000108461
-0.000276666
0.000170538
0.000326176
-0.000229252
0.000239383
0.000494777
-0.000164447
0.000256516
0.000554848
-7.5382e-05
0.000218859
0.00047749
4.55446e-05
0.00013631
0.000295965
0.000183033
2.04613e-05
7.86895e-05
0.000293648
-0.000109376
-0.000120159
0.000336304
-0.000228598
-0.000279967
0.000299251
-0.000315505
-0.000395444
0.000202106
-0.000453409
8.25408e-05
-0.000245183
-0.000516599
-0.000109572
-0.000215247
-0.000520306
-0.000236924
-0.000155268
-0.000468843
-0.00031973
-7.25962e-05
-0.000362555
-0.0003573
2.55812e-05
-0.000205366
-0.00035227
0.000130363
-7.95628e-06
-0.000309736
0.000228907
0.000205329
-0.000238518
0.000303036
0.000391292
-0.000146716
0.000332667
0.00049307
-3.40895e-05
0.000306637
0.000470207
0.000102594
0.000228661
0.00033784
0.000245955
0.000113893
0.000154456
0.000352638
-1.37509e-05
-2.9728e-05
0.000383031
-0.000127739
-0.000193815
0.000327951
-0.000207322
-0.000328501
0.000209196
-0.0004197
6.49743e-05
-0.000104883
-0.000481827
-0.000107968
-8.0341e-05
-0.000513498
-0.000241772
-3.28079e-05
-0.000487217
-0.000330783
3.23555e-05
-0.000404256
-0.000372892
0.00011004
-0.000268171
-0.000368478
0.000193803
-8.77356e-05
-0.000320258
0.000274771
0.00011656
-0.000235872
0.000340316
0.000307579
-0.000125708
0.000373136
0.000434271
4.13737e-06
0.000358008
0.00045355
0.000150269
0.000291988
0.000366879
0.000293341
0.00018973
0.000218158
0.000393196
7.70512e-05
5.03022e-05
0.000414442
-2.02489e-05
-0.000115599
0.000350031
-8.38075e-05
-0.000266919
0.000221477
-0.000388892
6.47334e-05
4.15016e-05
-0.000444854
-7.45226e-05
6.27601e-05
-0.000492236
-0.000206254
9.76446e-05
-0.000480391
-0.000298033
0.000143316
-0.000411671
-0.000347453
0.000197076
-0.000290245
-0.000351846
0.000254717
-0.000124198
-0.000309574
0.000310443
6.83529e-05
-0.000224833
0.000356601
0.000254507
-0.000107993
0.000380695
0.000389382
2.97986e-05
0.000368963
0.000433709
0.000178131
0.00031522
0.000381063
0.000315204
0.000232459
0.000261304
0.000406272
0.000145419
0.000108405
0.000422456
7.63219e-05
-5.70005e-05
0.00035881
3.80581e-05
-0.00021938
0.000234956
-0.00036404
8.18062e-05
0.000175662
-0.00041278
-2.065e-05
0.000196667
-0.000461384
-0.000139447
0.000220464
-0.000450387
-0.000228989
0.000247365
-0.000384692
-0.00028724
0.000277073
-0.000270132
-0.000307779
0.000306947
-0.000114776
-0.00028271
0.000333295
6.48803e-05
-0.000210666
0.000352211
0.000239221
-0.000100054
0.000356859
0.00036926
3.48076e-05
0.00033786
0.000420779
0.000176915
0.000291432
0.000385039
0.000302573
0.000230129
0.000281118
0.000383066
0.00017573
0.000135784
0.000397651
0.000144128
-2.96201e-05
0.000344416
0.000139823
-0.000196802
0.000239864
-0.000351077
0.000109112
0.000278538
-0.000393723
3.75029e-05
0.000302731
-0.000427636
-5.60034e-05
0.000318977
-0.000402275
-0.000136559
0.000330711
-0.000327013
-0.000202841
0.000339191
-0.000210277
-0.000244422
0.000342161
-6.04705e-05
-0.000245618
0.000337124
0.000107051
-0.000197579
0.000323581
0.000265404
-0.000105201
0.000300128
0.000380434
1.53272e-05
0.000265048
0.000423705
0.000142486
0.000220259
0.000385494
0.000251063
0.000179539
0.000278855
0.000318744
0.000160346
0.000127813
0.00033375
0.000170432
-4.23697e-05
0.00029836
0.000204326
-0.000209041
0.000225917
-0.000356144
0.000134293
0.000332493
-0.000393521
8.8027e-05
0.000363115
-0.000397659
2.9067e-05
0.000377409
-0.000343359
-3.55787e-05
0.000380283
-0.000246252
-0.000106852
0.000372882
-0.000117453
-0.000171124
0.000351821
3.36721e-05
-0.0002042
0.000315242
0.000192037
-0.000188174
0.000266327
0.00033281
-0.000123349
0.000210952
0.00042583
-2.66684e-05
0.000155774
0.000446279
7.69815e-05
0.000110719
0.000385668
0.000163492
9.01544e-05
0.000255979
0.000217474
0.000104903
8.42737e-05
0.000235615
0.000153175
-9.67442e-05
0.000223596
0.000220617
-0.000258443
0.000191048
-0.000382917
0.000147924
0.000326377
-0.000412099
0.000127828
0.000365232
-0.000375393
0.000105215
0.000383746
-0.00028232
6.00442e-05
0.000385717
-0.000153566
-1.24609e-05
0.00036945
-2.79692e-06
-9.79652e-05
0.000328998
0.000158137
-0.000164486
0.000263214
0.000312241
-0.000184075
0.000180431
0.000435334
-0.000152051
9.50007e-05
0.000499863
-8.56494e-05
2.34729e-05
0.000483906
-1.069e-05
-1.78054e-05
0.000382042
5.29316e-05
-1.71137e-05
0.000211777
9.73206e-05
2.65588e-05
9.30017e-06
0.000124662
0.000101474
-0.000183999
0.000140113
0.000188157
-0.000335298
0.000148017
-0.00042749
0.000151033
0.000259471
-0.000442454
0.000160736
0.00030593
-0.000360705
0.000166479
0.000333631
-0.000226823
0.00013854
0.000342371
-6.2045e-05
6.72018e-05
0.000324939
0.000118588
-3.58739e-05
0.000271124
0.000299273
-0.000133585
0.000180539
0.000456915
-0.000188109
6.89873e-05
0.000563418
-0.000189175
-3.7724e-05
0.000591439
-0.000153779
-0.000113767
0.000523732
-0.000105263
-0.00014189
0.000364696
-5.71548e-05
-0.000119033
0.000144998
-1.18755e-05
-5.61134e-05
-8.78466e-05
3.22922e-05
2.80035e-05
-0.000286968
7.54063e-05
0.000114843
-0.000421148
0.00011608
-0.000478508
0.000152271
0.000143385
-0.000475422
0.000187255
0.000194198
-0.000350481
0.000206361
0.000231332
-0.000180847
0.000189046
0.000248854
1.82979e-05
0.000119825
0.000234376
0.000230945
4.46101e-06
0.000173168
0.000439308
-0.000121238
6.59215e-05
0.000608733
-0.00021106
-6.1595e-05
0.000698568
-0.000244655
-0.000170898
0.00067904
-0.000232573
-0.000232877
0.000546098
-0.000194338
-0.000239143
0.000324393
-0.000142244
-0.0001996
6.04404e-05
-8.16813e-05
-0.000132996
-0.000191926
-1.68987e-05
-5.82712e-05
-0.000386677
4.68338e-05
1.21443e-05
-0.000498732
0.000105592
-0.000524458
0.000156611
9.63643e-06
0.000188142
5.48692e-05
0.000207181
8.72001e-05
0.000198371
9.92069e-05
0.000137632
7.88641e-05
1.92636e-05
2.05436e-05
-0.000128302
-6.88372e-05
-0.000253408
-0.000165917
-0.000317654
-0.000243266
-0.000315511
-0.000283284
-0.000264274
-0.000282776
-0.000185824
-0.000250374
-9.88974e-05
-0.000198974
-1.71696e-05
-0.000143622
5.10959e-05
-9.33307e-05
0.000105847
0.000150608
-9.23336e-05
-0.000672686
0.000205967
-3.19621e-05
-0.000505604
0.000182051
1.45639e-05
-0.000275372
0.000145665
3.41159e-05
4.63753e-06
8.52099e-05
1.72003e-05
0.000302277
8.62133e-07
-3.39213e-05
0.000566377
-8.77221e-05
-0.000103608
0.000743572
-0.000154531
-0.000174122
0.000802037
-0.000187407
-0.000232574
0.000736415
-0.000188779
-0.000271242
0.000559995
-0.000162762
-0.000286303
0.000300839
-0.000109857
-0.000277784
-1.52535e-07
-3.3163e-05
-0.000255517
-0.000285964
5.27861e-05
-0.000227314
-0.000512352
0.000127752
-0.000196628
-0.000647489
0.000176583
-0.00067911
0.000197674
-0.000202723
-0.000682749
0.000171897
-0.00015521
-0.000523814
0.000135753
-9.94097e-05
-0.000305986
0.00010099
-4.77963e-05
-3.40816e-05
5.45502e-05
-1.79516e-05
0.000266317
-8.42406e-06
-2.52194e-05
0.000546689
-7.96895e-05
-6.95585e-05
0.00074382
-0.00014024
-0.000132009
0.000810672
-0.000172586
-0.000188731
0.000737986
-0.000169553
-0.00022485
0.00054646
-0.000131049
-0.000238017
0.000273759
-6.17552e-05
-0.000238034
-3.01902e-05
2.47201e-05
-0.000235922
-0.000310381
0.00010636
-0.000239386
-0.000523276
0.000161776
-0.000244148
-0.000646563
0.000184861
-0.00067086
0.000183628
-0.000276792
-0.000681448
0.000118124
-0.00023556
-0.000545211
6.27173e-05
-0.000175939
-0.000353954
2.47071e-05
-0.000107108
-0.000106745
-8.69345e-06
-4.41604e-05
0.000179371
-4.55994e-05
-6.27805e-06
0.00046491
-8.69817e-05
-6.90175e-06
0.000686504
-0.000125283
-4.04429e-05
0.000780997
-0.000145038
-8.67134e-05
0.000723858
-0.000131608
-0.000128365
0.000536382
-7.94747e-05
-0.000160475
0.000265087
4.68086e-06
-0.000188863
-3.25816e-05
9.87663e-05
-0.000220746
-0.000301592
0.000172787
-0.000255843
-0.000503338
0.000205285
-0.000285208
-0.000621501
0.000196637
-0.000647032
0.000164343
-0.000307023
-0.000672927
4.58883e-05
-0.000270178
-0.000568624
-2.92361e-05
-0.000209087
-0.0004115
-7.40292e-05
-0.000130115
-0.000198389
-9.89907e-05
-4.39499e-05
6.05749e-05
-0.000112728
3.18918e-05
0.000337244
-0.000121438
7.56088e-05
0.000577707
-0.000127028
7.53241e-05
0.000712391
-0.000121783
4.01753e-05
0.000695275
-8.98369e-05
-1.11627e-05
0.000534763
-2.04558e-05
-6.79328e-05
0.000280751
7.86643e-05
-0.000128093
-3.62419e-06
0.0001777
-0.000191641
-0.000261708
0.000240207
-0.000251936
-0.000458369
0.00024571
-0.000297407
-0.000579883
0.000201441
-0.000616089
0.000133909
-0.00029286
-0.000656868
-3.24132e-05
-0.000259317
-0.000588898
-0.000125873
-0.000199228
-0.000469044
-0.000179679
-0.000117158
-0.000293646
-0.000200967
-2.05715e-05
-6.75953e-05
-0.000197539
7.65271e-05
0.000190821
-0.00017743
0.000151431
0.000440393
-0.000148195
0.000180885
0.000615821
-0.000110333
0.000159289
0.000654144
-5.2119e-05
0.000101515
0.000540202
3.86718e-05
2.51371e-05
0.000316481
0.000152735
-6.02457e-05
5.08394e-05
0.00025423
-0.000146925
-0.000197711
0.000302392
-0.00022332
-0.000394845
0.000279525
-0.000276675
-0.000526588
0.00019952
-0.000581532
9.62082e-05
-0.000239791
-0.000632373
-0.000101
-0.000208764
-0.000601039
-0.00021004
-0.000152707
-0.000517613
-0.000272946
-7.54187e-05
-0.000378577
-0.000293734
1.76319e-05
-0.000185041
-0.000278802
0.000116248
5.16968e-05
-0.000236157
0.000202236
0.000301
-0.000175847
0.000251035
0.000507024
-0.000104449
0.000245738
0.000600952
-1.68933e-05
0.000191234
0.000544106
9.61444e-05
0.000106001
0.000361799
0.000222948
6.76641e-06
0.000120225
0.000323497
-9.17325e-05
-0.000118897
0.000355989
-0.000174092
-0.000319723
0.000306489
-0.000227292
-0.00046588
0.000194598
-0.00054514
5.90559e-05
-0.000156808
-0.000600027
-0.000145442
-0.000127105
-0.000602099
-0.000265566
-7.76141e-05
-0.000551001
-0.000335833
-1.18359e-05
-0.00044334
-0.000358315
6.62251e-05
-0.000277826
-0.000337545
0.000149981
-6.168e-05
-0.000280115
0.000227477
0.000181176
-0.000196191
0.000279946
0.000403816
-9.59767e-05
0.00028766
0.000540508
1.864e-05
0.000244798
0.000538887
0.000150675
0.000163665
0.000403788
0.0002851
6.39349e-05
0.000191873
0.00038072
-3.40304e-05
-3.56273e-05
0.000397727
-0.000111988
-0.000240314
0.000326499
-0.000157293
-0.000402138
0.00019076
-0.000508399
3.12712e-05
-5.36551e-05
-0.000562835
-0.000156925
-2.37051e-05
-0.00059186
-0.000281962
1.74688e-05
-0.000565804
-0.000357154
6.67146e-05
-0.000481617
-0.000383861
0.000121941
-0.00033733
-0.000364202
0.000180041
-0.000138413
-0.000301625
0.000235137
9.46251e-05
-0.000204417
0.000276419
0.000321084
-8.42576e-05
0.000288141
0.000482147
5.07768e-05
0.000258466
0.000523045
0.000195785
0.000190693
0.000433178
0.000331725
0.000102473
0.000254185
0.000419104
1.68588e-05
4.15747e-05
0.000422854
-4.64368e-05
-0.000164816
0.000337829
-7.61384e-05
-0.000341005
0.000190045
-0.000473921
1.95369e-05
5.85623e-05
-0.000526235
-0.000135065
9.04258e-05
-0.000572444
-0.000257533
0.000122515
-0.00056085
-0.000335076
0.000152444
-0.000489637
-0.000369362
0.000180403
-0.000358225
-0.00035891
0.000206956
-0.000172326
-0.000302214
0.00023165
4.89992e-05
-0.000203901
0.000251022
0.000269162
-7.54431e-05
0.000255826
0.000436851
7.02905e-05
0.000234078
0.000502336
0.000220588
0.000182442
0.000447624
0.000352394
0.000113957
0.000299185
0.000429757
5.09231e-05
0.00010265
0.000424414
1.20806e-05
-0.000103053
0.000335889
6.41321e-06
-0.000290974
0.000190592
-0.000445724
2.54026e-05
0.000166558
-0.000497059
-8.85902e-05
0.000201953
-0.00054779
-0.000199496
0.00022539
-0.000536826
-0.00027645
0.000235651
-0.000465885
-0.000321253
0.000235293
-0.000337918
-0.000327728
0.000228154
-0.000160287
-0.000287608
0.000218442
4.84584e-05
-0.000200414
0.000208886
0.000254959
-7.62953e-05
0.000196916
0.000415034
6.85942e-05
0.000174298
0.00048672
0.000215149
0.000136136
0.000451127
0.000337232
9.1411e-05
0.000323307
0.00040367
5.87903e-05
0.000138574
0.000394348
5.29505e-05
-6.63759e-05
0.000313578
7.73006e-05
-0.000262008
0.000186548
-0.000430764
4.36581e-05
0.000254774
-0.000482638
-3.16627e-05
0.000295176
-0.000522864
-0.000121332
0.000312051
-0.000496756
-0.000193504
0.000305268
-0.000412132
-0.000249812
0.000278862
-0.00027726
-0.000278673
0.000238876
-0.000102252
-0.000263667
0.000193397
9.44085e-05
-0.00019805
0.000150611
0.000282474
-8.99293e-05
0.000114376
0.000424318
4.22782e-05
8.26563e-05
0.00048583
0.000175096
5.33796e-05
0.000450169
0.000281298
3.34627e-05
0.00032617
0.000335797
3.5883e-05
0.000142375
0.000327529
6.81996e-05
-6.53808e-05
0.000265048
0.000126801
-0.000264705
0.000170013
-0.000434943
6.52433e-05
0.000308105
-0.000487184
2.27985e-05
0.000354343
-0.000502239
-3.7796e-05
0.000368394
-0.00044612
-0.000100266
0.000350183
-0.000334413
-0.000166359
0.000303203
-0.00018179
-0.000219615
0.000234019
-2.4071e-06
-0.000234861
0.000153972
0.000184422
-0.000198141
7.66974e-05
0.000351627
-0.000115226
1.2894e-05
0.000467509
-6.05594e-06
-3.20657e-05
0.00050418
0.000103592
-5.51123e-05
0.000448311
0.000188397
-5.0409e-05
0.000307782
0.000231159
-1.24453e-05
0.000110548
0.000229478
5.69204e-05
-0.000105133
0.000193983
0.000146331
-0.000303419
0.000140351
-0.00046107
8.20527e-05
0.000315514
-0.000509482
6.92226e-05
0.000367117
-0.000488231
3.96052e-05
0.000382886
-0.000392128
-9.7172e-06
0.000361031
-0.000243154
-8.18644e-05
0.000301591
-6.24487e-05
-0.000157866
0.000209777
0.000129517
-0.000204597
9.96923e-05
0.000310683
-0.00020025
-8.93457e-06
0.000456147
-0.000147945
-9.74352e-05
0.000539121
-6.87614e-05
-0.000153392
0.000537433
1.20133e-05
-0.000168727
0.000442311
7.42666e-05
-0.0001402
0.000266838
0.000109736
-7.14584e-05
4.48702e-05
0.000121599
2.56653e-05
-0.000180523
0.000118379
0.00013397
-0.000371425
0.000107718
-0.000504678
9.39997e-05
0.000273623
-0.000542703
0.000108515
0.000328465
-0.000480258
0.000103664
0.000349872
-0.000342267
6.72716e-05
0.000332809
-0.000152453
-6.43635e-06
0.000271328
6.3866e-05
-0.000100707
0.000166046
0.000278297
-0.000177082
3.30784e-05
0.00046101
-0.000205469
-0.000100007
0.000585226
-0.000185168
-0.000205673
0.000627744
-0.000136737
-0.000263923
0.000573111
-8.26904e-05
-0.000266094
0.000423034
-3.57064e-05
-0.000215576
0.000202375
2.06969e-06
-0.000126277
-4.6408e-05
3.42712e-05
-1.73801e-05
-0.000276726
6.27116e-05
9.23688e-05
-0.000452612
8.75186e-05
-0.000554909
0.000106691
0.000189128
-0.000580506
0.000141595
0.000243988
-0.000477459
0.000148703
0.000271451
-0.000302348
0.000121665
0.000263642
-7.55958e-05
5.07769e-05
0.000208205
0.000177692
-5.39275e-05
9.97497e-05
0.00042189
-0.000156377
-4.60352e-05
0.000614306
-0.000218571
-0.000192187
0.000717517
-0.000230793
-0.000299985
0.000710023
-0.000207053
-0.000346728
0.0005911
-0.000165585
-0.00033063
0.000381326
-0.000116634
-0.000265328
0.000119059
-6.36664e-05
-0.000171467
-0.000148174
-8.99397e-06
-6.93921e-05
-0.000375382
4.34157e-05
2.57275e-05
-0.000531182
8.9042e-05
-0.000602226
0.000123991
8.98583e-05
0.000155979
0.000137271
0.000161209
0.000159145
0.000141657
0.000147191
8.27642e-05
9.16289e-05
-1.74341e-05
-6.7816e-06
-0.000133206
-0.00013012
-0.000224098
-0.000246722
-0.000265396
-0.000327283
-0.000257593
-0.000357638
-0.000214113
-0.000339495
-0.000148966
-0.00028447
-7.42674e-05
-0.000208037
-1.55819e-06
-0.000126106
5.97666e-05
-5.03704e-05
0.000105283
0.000135565
6.54175e-05
-0.000677661
0.000172754
0.000108707
-0.000556675
0.000161613
0.000125498
-0.000347957
0.000135011
0.000109146
-6.99758e-05
8.95739e-05
5.52071e-05
0.000236382
2.60557e-05
-2.89268e-05
0.000509043
-4.13443e-05
-0.000123449
0.000689505
-9.46303e-05
-0.000206941
0.000750858
-0.000126237
-0.000265665
0.000696542
-0.000137516
-0.000293374
0.000544389
-0.000128244
-0.000288032
0.000319041
-9.46965e-05
-0.000251611
5.22366e-05
-3.6328e-05
-0.000193193
-0.000217043
3.69056e-05
-0.000126234
-0.000448472
0.000106581
-6.27066e-05
-0.000609687
0.000155322
-0.000681913
0.000174191
-3.13589e-05
-0.000679844
0.000133982
-2.31157e-06
-0.000563913
0.000113943
2.60553e-05
-0.000370203
9.48687e-05
4.96312e-05
-0.000107995
6.89931e-05
5.43379e-05
0.000193809
2.94421e-05
2.45759e-05
0.000480807
-2.16915e-05
-3.90874e-05
0.000684731
-7.18023e-05
-0.000115217
0.000759662
-0.000105261
-0.000177721
0.000702833
-0.00011334
-0.000211069
0.000538422
-9.17345e-05
-0.000211989
0.000299697
-4.14907e-05
-0.000187666
2.50782e-05
2.75553e-05
-0.000151438
-0.00024296
9.60496e-05
-0.000117395
-0.000464524
0.000143785
-9.18467e-05
-0.000612384
0.00016201
-0.000672527
0.000153853
-9.97069e-05
-0.000668929
8.53433e-05
-7.70332e-05
-0.000570217
4.63472e-05
-4.29265e-05
-0.000404573
2.4971e-05
1.93089e-06
-0.000174097
1.25514e-05
4.62227e-05
0.000104862
-9.43823e-07
6.96408e-05
0.000392146
-2.17392e-05
5.5191e-05
0.000622403
-4.85047e-05
7.76371e-06
0.000730849
-6.87974e-05
-4.87535e-05
0.000694339
-6.65964e-05
-9.34031e-05
0.000535552
-3.19551e-05
-0.00011748
0.000296123
3.23317e-05
-0.000124254
2.21513e-05
0.000108467
-0.0001234
-0.000239987
0.00016896
-0.000123123
-0.000451805
0.00019229
-0.00012458
-0.000590548
0.000176257
-0.000645853
0.000134662
-0.000139476
-0.000650178