/*--------------------------------*- C++ -*----------------------------------*\
| =========                 |                                                 |
| \\      /  F ield         | OpenFOAM: The Open Source CFD Toolbox           |
|  \\    /   O peration     | Version:  3.0.0                                 |
|   \\  /    A nd           | Web:      www.OpenFOAM.org                      |
|    \\/     M anipulation  |                                                 |
\*---------------------------------------------------------------------------*/
FoamFile
{
    version     2.0;
    format      ascii;
    class       volVectorField;
    location    "3.25";
    object      U;
}
// * * * * * * * * * * * * * * * * * * * * * * * * * * * * * * * * * * * * * //

dimensions      [0 1 -1 0 0 0 0];

internalField   nonuniform List<vector> 
4096
(
(-0.0811774 -0.0836955 0.0656664)
(-0.0610357 -0.0362688 0.0707797)
(-0.0441997 0.00865286 0.0690588)
(-0.027465 0.0514462 0.0538737)
(-0.0157555 0.0929845 0.024071)
(-0.0117935 0.131441 -0.0145424)
(-0.0153248 0.160042 -0.0509385)
(-0.0241525 0.169323 -0.075355)
(-0.035524 0.15222 -0.084229)
(-0.0468347 0.107385 -0.0789996)
(-0.0560808 0.0411437 -0.0627437)
(-0.0631256 -0.0318605 -0.0394317)
(-0.0698131 -0.0926425 -0.0139853)
(-0.0772269 -0.126995 0.00940507)
(-0.0840771 -0.132025 0.0294505)
(-0.0814884 -0.114007 0.0452189)
(-0.123394 -0.0866697 0.0568126)
(-0.102718 -0.0414406 0.054156)
(-0.0853904 0.00478524 0.0480704)
(-0.0640239 0.0533241 0.0328936)
(-0.0451072 0.103623 0.00769035)
(-0.0329326 0.151361 -0.0236131)
(-0.029043 0.185967 -0.0531148)
(-0.0320564 0.194185 -0.0727334)
(-0.0382676 0.168282 -0.0781017)
(-0.0443763 0.111005 -0.069065)
(-0.0499552 0.035528 -0.0487068)
(-0.057727 -0.0387024 -0.0229653)
(-0.0705177 -0.0941983 0.00140539)
(-0.0877377 -0.122791 0.0205324)
(-0.105866 -0.126147 0.0343608)
(-0.109801 -0.110162 0.0433055)
(-0.154634 -0.0913495 0.038642)
(-0.133045 -0.0504262 0.0286923)
(-0.115919 -0.00660651 0.0187228)
(-0.091326 0.0416711 0.00427588)
(-0.0661887 0.0930068 -0.0154704)
(-0.0449992 0.142075 -0.0382076)
(-0.0303656 0.177654 -0.0587679)
(-0.0230786 0.185985 -0.0707502)
(-0.021532 0.159386 -0.0695436)
(-0.023846 0.101755 -0.0544898)
(-0.0305731 0.0277813 -0.0296001)
(-0.0443986 -0.0425647 -0.00270825)
(-0.0664375 -0.093347 0.0185478)
(-0.0937568 -0.118911 0.0310659)
(-0.121444 -0.122108 0.0364214)
(-0.129623 -0.10741 0.0372575)
(-0.16777 -0.0935253 0.0160987)
(-0.147283 -0.0610571 -0.000346891)
(-0.130685 -0.0231821 -0.0139162)
(-0.103901 0.0215272 -0.0274104)
(-0.0735381 0.0713303 -0.0414427)
(-0.0440125 0.120794 -0.0549483)
(-0.0187336 0.158948 -0.0652056)
(-0.000963161 0.171472 -0.0679299)
(0.00767435 0.149192 -0.0590252)
(0.00728959 0.0957319 -0.0376864)
(-0.00260233 0.0269288 -0.00882014)
(-0.02338 -0.0370323 0.0182674)
(-0.0539984 -0.0821924 0.0355175)
(-0.0896532 -0.105447 0.0407534)
(-0.124461 -0.110299 0.0370319)
(-0.136311 -0.0991589 0.0294265)
(-0.160233 -0.0942421 -0.00488497)
(-0.143634 -0.0727628 -0.0270681)
(-0.127977 -0.0432527 -0.0439802)
(-0.100507 -0.00466799 -0.056695)
(-0.0672404 0.0411587 -0.0655797)
(-0.0323661 0.089345 -0.0704595)
(0.00035439 0.130149 -0.0706023)
(0.0261861 0.149704 -0.0639225)
(0.0407024 0.136736 -0.0473829)
(0.0419633 0.0924041 -0.0203168)
(0.0295495 0.0322485 0.0116902)
(0.00353668 -0.0237852 0.0383419)
(-0.0331292 -0.0635331 0.0515775)
(-0.074279 -0.0858212 0.0500299)
(-0.113196 -0.0941069 0.0378295)
(-0.128543 -0.0886848 0.0220268)
(-0.1341 -0.0927606 -0.0192366)
(-0.123321 -0.0830677 -0.0463299)
(-0.1092 -0.0629149 -0.0661808)
(-0.0830862 -0.0318602 -0.0784919)
(-0.0500754 0.0083725 -0.0834019)
(-0.0139892 0.0536566 -0.0813053)
(0.0215064 0.0958329 -0.0728749)
(0.0515456 0.122535 -0.0579376)
(0.0703974 0.121364 -0.0348388)
(0.0740656 0.0898913 -0.00334299)
(0.0612896 0.0411461 0.0305899)
(0.0330805 -0.00583032 0.056404)
(-0.00609376 -0.0404306 0.0662574)
(-0.0492193 -0.0627086 0.0592918)
(-0.0889517 -0.0755773 0.0401768)
(-0.107139 -0.0776708 0.0170067)
(-0.0946211 -0.0882715 -0.0238658)
(-0.0897984 -0.0893739 -0.0546935)
(-0.0779293 -0.0782554 -0.076856)
(-0.0550329 -0.0548425 -0.0892472)
(-0.0251141 -0.0206767 -0.0917797)
(0.00849975 0.020789 -0.0850558)
(0.042427 0.0627546 -0.07051)
(0.0723989 0.0945796 -0.0493936)
(0.0929936 0.104138 -0.0216136)
(0.0990001 0.0862955 0.0122972)
(0.0878351 0.0504454 0.0465556)
(0.0607958 0.0133743 0.0711698)
(0.0230691 -0.0160189 0.0787797)
(-0.0181164 -0.0385393 0.0685055)
(-0.0553634 -0.0562666 0.044892)
(-0.0748333 -0.0669253 0.0160403)
(-0.048368 -0.0808791 -0.0185436)
(-0.0478814 -0.0904254 -0.051112)
(-0.0388466 -0.0868381 -0.0746279)
(-0.0204723 -0.0701232 -0.0875985)
(0.0044143 -0.0416624 -0.089676)
(0.0330817 -0.00438741 -0.081262)
(0.062446 0.0359437 -0.0638429)
(0.0888649 0.0701427 -0.0394081)
(0.107924 0.0871507 -0.00930334)
(0.114534 0.0808783 0.0248822)
(0.10538 0.0574744 0.0577963)
(0.0818259 0.0303411 0.0809362)
(0.0491478 0.00629069 0.0877187)
(0.0139249 -0.0160252 0.0767604)
(-0.0175114 -0.0380951 0.0517553)
(-0.0355622 -0.0570943 0.0199679)
(-0.00183924 -0.071868 -0.0056118)
(-0.00303877 -0.0863971 -0.0370509)
(0.00286593 -0.0878187 -0.060495)
(0.0160934 -0.0760682 -0.0743267)
(0.0350059 -0.0523651 -0.07791)
(0.0574901 -0.0192378 -0.0710311)
(0.0806667 0.0184047 -0.0544739)
(0.101255 0.0525418 -0.0301612)
(0.11582 0.0734235 -0.000412887)
(0.120175 0.0750482 0.0320224)
(0.11154 0.0614407 0.062253)
(0.0919903 0.0425511 0.0836866)
(0.0667965 0.0231748 0.0909148)
(0.0409449 0.00166472 0.0819639)
(0.018569 -0.0232613 0.0591538)
(0.00578671 -0.0488598 0.0282247)
(0.0388417 -0.0629343 0.0108077)
(0.0389514 -0.078484 -0.0160392)
(0.0418504 -0.0816914 -0.0374086)
(0.0500024 -0.072581 -0.0518811)
(0.0629633 -0.0522337 -0.0585608)
(0.079034 -0.0227983 -0.0562245)
(0.095366 0.011588 -0.0442518)
(0.108809 0.0438984 -0.0236536)
(0.116548 0.0656039 0.00294061)
(0.11581 0.0712488 0.0318046)
(0.105547 0.0633599 0.058321)
(0.0890631 0.0490688 0.077618)
(0.071904 0.0320349 0.0858103)
(0.057533 0.0111553 0.0808936)
(0.0468727 -0.0145564 0.0637576)
(0.0430685 -0.0433895 0.0383559)
(0.0683835 -0.0561415 0.0263367)
(0.0718897 -0.0685763 0.00748368)
(0.0726995 -0.0700241 -0.00942876)
(0.0767424 -0.0607899 -0.0237721)
(0.0846571 -0.0420004 -0.034458)
(0.0948465 -0.0153281 -0.0390309)
(0.104231 0.0158233 -0.034827)
(0.109654 0.0452848 -0.0211534)
(0.109051 0.0655121 -0.000305609)
(0.101406 0.0715946 0.0233543)
(0.0879475 0.0647806 0.0452645)
(0.0734598 0.0502185 0.061787)
(0.0636027 0.031614 0.0706179)
(0.0605858 0.00977665 0.0705444)
(0.0623118 -0.015217 0.0617698)
(0.0697456 -0.0425391 0.0464447)
(0.0825057 -0.05362 0.0381863)
(0.0900079 -0.0589033 0.0296913)
(0.0904798 -0.0548728 0.019189)
(0.0923712 -0.0427038 0.00604597)
(0.0968724 -0.0234116 -0.00890841)
(0.102243 0.0019378 -0.0218836)
(0.104949 0.0305489 -0.0276522)
(0.101935 0.0568379 -0.023257)
(0.0922241 0.0738937 -0.0102038)
(0.0770888 0.0770097 0.00692172)
(0.0603322 0.0665159 0.0235376)
(0.0478098 0.0465585 0.0369655)
(0.0444777 0.0220099 0.0462718)
(0.0509276 -0.00329078 0.0512431)
(0.0628777 -0.026973 0.0520731)
(0.0801031 -0.0481125 0.0495385)
(0.0789249 -0.0563843 0.0465675)
(0.0895034 -0.0512705 0.0486631)
(0.0916936 -0.0386423 0.0451646)
(0.0938727 -0.0209794 0.0337057)
(0.097087 0.00112281 0.0145246)
(0.0990298 0.027241 -0.00738256)
(0.0956616 0.0548338 -0.0240361)
(0.0843521 0.0782771 -0.0299933)
(0.0658953 0.090671 -0.0257826)
(0.0443437 0.0873179 -0.0158735)
(0.0258902 0.0682712 -0.00438836)
(0.0165629 0.0381882 0.00691853)
(0.0193125 0.00435021 0.0178528)
(0.032343 -0.0259817 0.0284439)
(0.0500795 -0.0479842 0.0386179)
(0.0717486 -0.0602238 0.0482111)
(0.0579957 -0.0636737 0.0535826)
(0.0699644 -0.0465129 0.0637943)
(0.0754338 -0.0238181 0.065772)
(0.0801626 0.00107475 0.0554052)
(0.0841334 0.028024 0.0321105)
(0.0841137 0.0570587 0.00178725)
(0.0755618 0.0852561 -0.0250662)
(0.056727 0.106234 -0.0407635)
(0.0311574 0.11259 -0.0449263)
(0.00623143 0.0995227 -0.0413439)
(-0.0104454 0.0677872 -0.0330537)
(-0.0146114 0.0244206 -0.0212424)
(-0.00675547 -0.0196864 -0.00659379)
(0.00898586 -0.0542895 0.009991)
(0.0271352 -0.0734906 0.0276976)
(0.0468581 -0.0765219 0.0457283)
(0.0229824 -0.0729198 0.0597088)
(0.0351218 -0.0438017 0.0737841)
(0.0438404 -0.0116525 0.0782999)
(0.0517673 0.0204282 0.0674954)
(0.0572095 0.0527026 0.039867)
(0.0560487 0.085401 0.0016858)
(0.0436558 0.114751 -0.0345684)
(0.0198281 0.133067 -0.058558)
(-0.00834306 0.132075 -0.0681116)
(-0.0309098 0.107173 -0.066157)
(-0.0416276 0.0611354 -0.0558995)
(-0.0401524 0.00472429 -0.0398211)
(-0.030123 -0.0475401 -0.0202868)
(-0.0163154 -0.0837345 0.000825034)
(-0.00256498 -0.0985864 0.0225258)
(0.0112206 -0.093399 0.0439705)
(-0.0182405 -0.073299 0.0605886)
(-0.00762377 -0.0361322 0.0751888)
(0.00108177 0.00301338 0.0801141)
(0.00948014 0.0430724 0.0677438)
(0.0141361 0.085923 0.0351088)
(0.0115561 0.131894 -0.0121366)
(-1.90678e-05 0.172496 -0.0594692)
(-0.0185559 0.190662 -0.0910859)
(-0.0380439 0.173435 -0.100102)
(-0.0521453 0.12302 -0.0901548)
(-0.0577974 0.0544226 -0.0694173)
(-0.055591 -0.0139909 -0.0451315)
(-0.0484591 -0.0677594 -0.0216091)
(-0.0399684 -0.0993916 -2.15386e-05)
(-0.0327141 -0.108007 0.0204777)
(-0.0252909 -0.0975153 0.040196)
(-0.0672133 -0.141717 0.0630568)
(-0.0449476 -0.0908395 0.0611758)
(-0.0274562 -0.0332531 0.0544108)
(-0.0120607 0.0278533 0.0370488)
(-0.00363237 0.0873597 0.00880108)
(-0.00478176 0.138045 -0.0236847)
(-0.0142362 0.171959 -0.050541)
(-0.0282744 0.182998 -0.0656231)
(-0.0432077 0.16789 -0.0684151)
(-0.0563122 0.126324 -0.0608224)
(-0.0656466 0.062443 -0.0445772)
(-0.0706383 -0.0132505 -0.0220785)
(-0.0730054 -0.0848176 0.00232558)
(-0.0748322 -0.136704 0.0236747)
(-0.0764554 -0.160742 0.0398301)
(-0.0718675 -0.15652 0.050661)
(-0.0999712 -0.139599 0.0550713)
(-0.0804381 -0.0927177 0.0467177)
(-0.0635114 -0.0371314 0.0369799)
(-0.0435873 0.0270425 0.0209209)
(-0.0266694 0.095163 -0.00214708)
(-0.0179044 0.157503 -0.0282581)
(-0.0195101 0.200336 -0.0504918)
(-0.0291565 0.21206 -0.0629695)
(-0.0414133 0.188589 -0.0634471)
(-0.0516375 0.133907 -0.0523939)
(-0.0582873 0.0589294 -0.031983)
(-0.0632905 -0.0204182 -0.00677651)
(-0.070004 -0.0879015 0.0167779)
(-0.0798263 -0.132658 0.0340453)
(-0.0911921 -0.152044 0.0443847)
(-0.0930621 -0.147158 0.0492894)
(-0.122886 -0.144856 0.0387985)
(-0.104386 -0.101624 0.0240325)
(-0.0882118 -0.0495073 0.0117694)
(-0.0659505 0.0123811 -0.00224039)
(-0.0432636 0.0799502 -0.0190598)
(-0.0252104 0.143898 -0.0370246)
(-0.0157413 0.189775 -0.0521439)
(-0.0157423 0.203816 -0.059467)
(-0.0218213 0.180877 -0.0555155)
(-0.0297816 0.126003 -0.0396741)
(-0.0382559 0.051649 -0.0148128)
(-0.0490527 -0.0254071 0.0123765)
(-0.0642998 -0.0894557 0.0338715)
(-0.0832747 -0.131507 0.0451912)
(-0.102726 -0.150124 0.0473544)
(-0.108217 -0.145512 0.0443066)
(-0.130126 -0.146111 0.0182708)
(-0.113771 -0.110982 -0.00214405)
(-0.0984447 -0.0660625 -0.0169405)
(-0.074967 -0.0100743 -0.0291381)
(-0.0482494 0.0538338 -0.0399547)
(-0.0225652 0.1179 -0.049261)
(-0.00242601 0.168496 -0.0555892)
(0.00805292 0.189728 -0.0557481)
(0.00838489 0.172935 -0.0459799)
(0.00141039 0.122308 -0.0247755)
(-0.0108052 0.0517437 0.00438478)
(-0.0286659 -0.0209211 0.0328721)
(-0.052317 -0.0807832 0.0513349)
(-0.0789711 -0.120744 0.0557563)
(-0.104119 -0.140283 0.04884)
(-0.112108 -0.138457 0.0370752)
(-0.120934 -0.145403 -0.00175808)
(-0.108115 -0.12065 -0.0271208)
(-0.0937434 -0.0848596 -0.0444689)
(-0.0703878 -0.0369483 -0.0555159)
(-0.0420595 0.0208231 -0.0613849)
(-0.0122025 0.0826185 -0.0628243)
(0.0149915 0.137067 -0.0601963)
(0.0339013 0.168157 -0.0522668)
(0.0403584 0.163031 -0.0358984)
(0.0347362 0.121978 -0.00916545)
(0.0195101 0.0586442 0.0239002)
(-0.00402807 -0.00823302 0.0530378)
(-0.0339595 -0.0643218 0.0680641)
(-0.0657699 -0.103818 0.0656205)
(-0.0939557 -0.126347 0.0498638)
(-0.103854 -0.129793 0.0293154)
(-0.0978415 -0.14245 -0.0169622)
(-0.0891707 -0.128683 -0.0465116)
(-0.0761763 -0.102578 -0.0663393)
(-0.0545275 -0.0635011 -0.0769673)
(-0.0274133 -0.0130382 -0.0792841)
(0.00246997 0.0446038 -0.0744377)
(0.0317419 0.100591 -0.0639097)
(0.0552009 0.140722 -0.0481568)
(0.0669502 0.149783 -0.025267)
(0.0642079 0.122514 0.00648319)
(0.0483838 0.0696672 0.042502)
(0.0219867 0.00984985 0.07163)
(-0.0111753 -0.0428518 0.0833431)
(-0.0451355 -0.0831565 0.0749328)
(-0.073685 -0.110166 0.0515665)
(-0.0847295 -0.120874 0.0228915)
(-0.0652572 -0.136667 -0.0241013)
(-0.0601663 -0.133262 -0.0569321)
(-0.0489299 -0.116269 -0.0789649)
(-0.0303216 -0.0855469 -0.0899157)
(-0.00675114 -0.0422211 -0.0903272)
(0.0197581 0.0106423 -0.0813147)
(0.0466793 0.0661586 -0.0648197)
(0.0701224 0.112382 -0.0425098)
(0.0846459 0.1341 -0.0140351)
(0.0855319 0.121772 0.021366)
(0.0717647 0.0814993 0.058896)
(0.0457579 0.0299738 0.0872557)
(0.0128073 -0.0192124 0.0962391)
(-0.0200988 -0.060776 0.0835874)
(-0.0464557 -0.0928618 0.0548314)
(-0.0572539 -0.111998 0.0197644)
(-0.0279551 -0.128354 -0.0220703)
(-0.0248093 -0.133528 -0.0566879)
(-0.0155802 -0.124154 -0.0803713)
(-0.000875587 -0.100433 -0.0924111)
(0.0176457 -0.0632592 -0.0928578)
(0.038604 -0.0150322 -0.0823422)
(0.0602329 0.0386184 -0.0626125)
(0.0799721 0.0875585 -0.0359518)
(0.0938733 0.117905 -0.00354681)
(0.0970467 0.118468 0.0337903)
(0.0864166 0.0909411 0.0710981)
(0.063408 0.0485471 0.0979665)
(0.0339128 0.00342794 0.105182)
(0.0052956 -0.039007 0.0907032)
(-0.0163454 -0.0758821 0.0596574)
(-0.024729 -0.103489 0.0212081)
(0.00943184 -0.118594 -0.0121229)
(0.0128084 -0.129611 -0.0462155)
(0.0199893 -0.125506 -0.0705883)
(0.0304463 -0.106746 -0.0843725)
(0.0432439 -0.0742506 -0.0869308)
(0.0575948 -0.0301215 -0.0779172)
(0.0723571 0.0207642 -0.0582605)
(0.08601 0.0695302 -0.030241)
(0.0961079 0.10394 0.00374206)
(0.0987413 0.113236 0.0410619)
(0.0902664 0.0963883 0.076534)
(0.0713549 0.0626533 0.101318)
(0.0478164 0.0218729 0.107834)
(0.0264501 -0.0206183 0.0942112)
(0.0120472 -0.0611614 0.0647388)
(0.00893352 -0.0959265 0.0270611)
(0.0423004 -0.109087 0.00254094)
(0.0480699 -0.12246 -0.0279951)
(0.0534815 -0.120469 -0.0515852)
(0.0599245 -0.104034 -0.0673437)
(0.0671299 -0.074376 -0.0738373)
(0.0747051 -0.0335344 -0.0692473)
(0.0819287 0.0140911 -0.0530802)
(0.0880312 0.0605451 -0.0270583)
(0.0918307 0.0951507 0.00561882)
(0.0908258 0.108483 0.0408478)
(0.0822659 0.098389 0.0730134)
(0.0671084 0.0708399 0.0950723)
(0.0508587 0.0333872 0.101579)
(0.0390205 -0.00874818 0.0911978)
(0.0341093 -0.0513114 0.0671045)
(0.0389943 -0.0905017 0.0351943)
(0.0662897 -0.101977 0.0176999)
(0.0758459 -0.113671 -0.0058943)
(0.0802756 -0.110008 -0.0266709)
(0.0836371 -0.0927789 -0.0439922)
(0.0861675 -0.0637838 -0.0556225)
(0.0875187 -0.0251128 -0.057852)
(0.0871117 0.019191 -0.0481845)
(0.0847624 0.061938 -0.0272854)
(0.0804102 0.0938303 0.0012679)
(0.0732738 0.106916 0.0321771)
(0.0625566 0.0987374 0.0595911)
(0.0503395 0.0731031 0.0781673)
(0.0417205 0.0361714 0.0847893)
(0.0403763 -0.00634732 0.0791789)
(0.0459944 -0.0493773 0.0636481)
(0.0602483 -0.0889895 0.0421266)
(0.0777386 -0.0993007 0.0302668)
(0.0912281 -0.105127 0.016252)
(0.095958 -0.0957815 0.000363205)
(0.0978868 -0.0744546 -0.0176273)
(0.0973627 -0.0436627 -0.0348226)
(0.0936334 -0.00564624 -0.0454189)
(0.0859554 0.0357861 -0.044418)
(0.0747168 0.0741029 -0.0310712)
(0.0612301 0.101179 -0.00906848)
(0.0467965 0.11027 0.0155711)
(0.0331243 0.0989326 0.0370924)
(0.0236848 0.0699892 0.0518669)
(0.0226157 0.0295822 0.0589241)
(0.0311535 -0.0150602 0.0590179)
(0.046219 -0.0573914 0.0537808)
(0.0682963 -0.0930083 0.0452139)
(0.0745902 -0.101949 0.0397825)
(0.0908558 -0.098335 0.0358376)
(0.0972662 -0.0799408 0.0257882)
(0.0997821 -0.0514933 0.00808211)
(0.0982738 -0.0161958 -0.0143743)
(0.0910473 0.023339 -0.0338279)
(0.0769582 0.0631606 -0.0424772)
(0.0571873 0.097048 -0.0379738)
(0.0348513 0.11764 -0.0239863)
(0.0138147 0.119001 -0.00676438)
(-0.00162724 0.0992173 0.00880212)
(-0.0073451 0.061675 0.0208541)
(-0.00125057 0.0141272 0.029756)
(0.0149188 -0.0339431 0.036337)
(0.0360313 -0.0744449 0.041251)
(0.0613705 -0.102688 0.0448871)
(0.0569792 -0.109262 0.047569)
(0.074223 -0.0940302 0.0514583)
(0.0831788 -0.0648801 0.046418)
(0.0880858 -0.0273689 0.0293413)
(0.0877073 0.0147259 0.00239116)
(0.0788771 0.0579665 -0.0253209)
(0.0596669 0.0975462 -0.0432819)
(0.032323 0.127066 -0.0474931)
(0.00273668 0.139583 -0.0414851)
(-0.0220249 0.129844 -0.0309756)
(-0.0360047 0.0972034 -0.0193427)
(-0.0363798 0.0473941 -0.00724687)
(-0.0243672 -0.00886926 0.0054973)
(-0.00436871 -0.0598806 0.01861)
(0.0179329 -0.0969721 0.0315778)
(0.041091 -0.116253 0.0437862)
(0.0274358 -0.119826 0.053725)
(0.0443943 -0.092125 0.0613306)
(0.0555381 -0.0523549 0.0591559)
(0.0631473 -0.00587348 0.0424755)
(0.0646482 0.0432865 0.0120104)
(0.0555073 0.0905642 -0.0231217)
(0.0328907 0.129916 -0.0502005)
(0.00045903 0.154458 -0.0626158)
(-0.0321336 0.157523 -0.0622912)
(-0.0551283 0.134881 -0.0540808)
(-0.0636388 0.0881636 -0.0412189)
(-0.0583964 0.0263352 -0.0252849)
(-0.043638 -0.0370737 -0.00762406)
(-0.0246202 -0.0890024 0.0102895)
(-0.00584952 -0.121253 0.0275178)
(0.0115875 -0.131622 0.0433588)
(-0.00592629 -0.117599 0.0531876)
(0.00930063 -0.0830031 0.0610284)
(0.0190382 -0.0373046 0.0606721)
(0.0255391 0.0173857 0.0451716)
(0.0255779 0.0788186 0.0127703)
(0.015693 0.140959 -0.0289751)
(-0.00460703 0.190938 -0.0655738)
(-0.0307565 0.212861 -0.0855701)
(-0.0548524 0.197736 -0.086769)
(-0.0703383 0.148904 -0.0738567)
(-0.0747865 0.0792951 -0.0531704)
(-0.0695018 0.00514534 -0.0300884)
(-0.0578035 -0.0592164 -0.00837395)
(-0.0436349 -0.10481 0.0102689)
(-0.0303818 -0.12831 0.0262136)
(-0.0185489 -0.130847 0.0402378)
(-0.0355876 -0.17899 0.0565549)
(-0.0152164 -0.132544 0.0502808)
(-0.00105045 -0.0700423 0.0407001)
(0.00851971 0.0021141 0.0238902)
(0.00952994 0.0738805 -0.000235057)
(0.000123202 0.133438 -0.0259853)
(-0.0169442 0.171665 -0.0456212)
(-0.0362948 0.184753 -0.0552224)
(-0.0535152 0.172126 -0.0552813)
(-0.0661488 0.134686 -0.0472861)
(-0.072804 0.0756546 -0.0319342)
(-0.0730281 0.00249 -0.0105943)
(-0.0684062 -0.0726103 0.0126924)
(-0.0617518 -0.135131 0.0325471)
(-0.0551507 -0.173969 0.0456686)
(-0.0466574 -0.183783 0.0521043)
(-0.060885 -0.170494 0.0483252)
(-0.0458193 -0.128955 0.0380443)
(-0.0327064 -0.0716351 0.0278644)
(-0.0179797 -0.000154739 0.0138825)
(-0.00621348 0.0783492 -0.00496278)
(-0.00279692 0.150354 -0.0258333)
(-0.0103816 0.199412 -0.0431226)
(-0.0257469 0.214741 -0.0519646)
(-0.0421398 0.194862 -0.0506037)
(-0.0542441 0.144884 -0.0393556)
(-0.0600641 0.0742057 -0.0198256)
(-0.0609624 -0.00440845 0.00410144)
(-0.0602272 -0.0770415 0.0262895)
(-0.060732 -0.132091 0.0414833)
(-0.0632106 -0.163764 0.0484663)
(-0.0619834 -0.169994 0.049418)
(-0.0786372 -0.174923 0.0339327)
(-0.0659342 -0.136395 0.0184232)
(-0.0535612 -0.0833217 0.00701712)
(-0.0364365 -0.0159973 -0.0039435)
(-0.0182451 0.0602152 -0.0162237)
(-0.00408867 0.133704 -0.0294274)
(0.000818508 0.187449 -0.0408534)
(-0.00481739 0.206928 -0.0461629)
(-0.0163608 0.188551 -0.0417958)
(-0.027996 0.13846 -0.026744)
(-0.037004 0.0676858 -0.00323455)
(-0.0441801 -0.00996844 0.0226706)
(-0.0518778 -0.0803539 0.0429735)
(-0.0612714 -0.133075 0.0524048)
(-0.0713028 -0.163404 0.0514295)
(-0.0739411 -0.169084 0.0446151)
(-0.0849743 -0.174106 0.014942)
(-0.0744689 -0.142728 -0.00566775)
(-0.06266 -0.0976639 -0.018926)
(-0.0443203 -0.0382428 -0.0277257)
(-0.0221885 0.0321204 -0.0339907)
(-9.26654e-05 0.104775 -0.0387739)
(0.0163702 0.164351 -0.0419028)
(0.0218263 0.193143 -0.0408965)
(0.0162025 0.182235 -0.0317273)
(0.0043294 0.136355 -0.0121221)
(-0.00953722 0.0682688 0.0153289)
(-0.0243668 -0.00661483 0.0425492)
(-0.0406567 -0.0740638 0.0599883)
(-0.057647 -0.124743 0.062675)
(-0.072963 -0.154955 0.052766)
(-0.0777401 -0.162275 0.0371361)
(-0.0796829 -0.170987 -0.00495848)
(-0.0714876 -0.14869 -0.0302116)
(-0.0601647 -0.113131 -0.0458295)
(-0.0417148 -0.0633102 -0.0535898)
(-0.018182 -0.00105627 -0.0552293)
(0.00772255 0.0678663 -0.0524484)
(0.0313134 0.131332 -0.0467251)
(0.0457412 0.171498 -0.037676)
(0.0463625 0.173689 -0.0220985)
(0.035182 0.137448 0.00280168)
(0.0174 0.0754039 0.0340605)
(-0.00377021 0.00459122 0.0619586)
(-0.0266642 -0.0602533 0.0759253)
(-0.0488271 -0.110394 0.0716498)
(-0.0669529 -0.142449 0.0528495)
(-0.0727599 -0.153701 0.0282182)
(-0.0645874 -0.165838 -0.0215904)
(-0.0583501 -0.153152 -0.0508968)
(-0.0476289 -0.127283 -0.0689521)
(-0.0303697 -0.0872452 -0.0765423)
(-0.00815724 -0.0337197 -0.0750457)
(0.0171242 0.0297003 -0.0662865)
(0.0421265 0.0940654 -0.0525906)
(0.0609975 0.143804 -0.0352671)
(0.0671187 0.161269 -0.0126747)
(0.0586654 0.139089 0.0175206)
(0.0397457 0.0864724 0.0519188)
(0.0151363 0.0211215 0.0797033)
(-0.0114017 -0.0414059 0.0900057)
(-0.0358819 -0.0922455 0.0793446)
(-0.0543595 -0.12763 0.0526797)
(-0.0600976 -0.144578 0.0198187)
(-0.0424417 -0.158417 -0.0314466)
(-0.0371912 -0.154933 -0.063808)
(-0.0272006 -0.138075 -0.0839814)
(-0.0122877 -0.106922 -0.0920965)
(0.00632045 -0.0613552 -0.0890458)
(0.0274274 -0.00357405 -0.0763621)
(0.0489652 0.0596713 -0.0565617)
(0.0670699 0.115414 -0.0320528)
(0.0759426 0.146053 -0.00297759)
(0.0713168 0.139104 0.0316753)
(0.0544032 0.0983109 0.0678572)
(0.0298583 0.0399243 0.0945898)
(0.00303561 -0.020008 0.101414)
(-0.0207927 -0.0719895 0.0857148)
(-0.0373012 -0.111395 0.0532399)
(-0.0415738 -0.135093 0.014095)
(-0.016063 -0.149176 -0.032631)
(-0.0103827 -0.153652 -0.0665496)
(-0.00122021 -0.144347 -0.0882762)
(0.010476 -0.12039 -0.0976495)
(0.0238379 -0.0812438 -0.0949233)
(0.0383919 -0.028391 -0.0808846)
(0.0532761 0.0326424 -0.0576442)
(0.0665975 0.090816 -0.0281156)
(0.0746464 0.130118 0.0059084)
(0.0728994 0.136215 0.0435486)
(0.0597529 0.107833 0.0799961)
(0.0382415 0.0577398 0.104876)
(0.0142977 0.00123558 0.108856)
(-0.00599347 -0.0515502 0.0901798)
(-0.0183134 -0.0949458 0.0548588)
(-0.0192574 -0.125689 0.0126138)
(0.0116634 -0.139238 -0.0255298)
(0.0193043 -0.149605 -0.0589538)
(0.0275829 -0.145565 -0.0814718)
(0.0355429 -0.126423 -0.0929015)
(0.0427272 -0.0917138 -0.0926008)
(0.0494261 -0.0427646 -0.0801152)
(0.0559329 0.0154472 -0.056621)
(0.062044 0.0731213 -0.0250104)
(0.0661684 0.116201 0.0116217)
(0.0648961 0.131032 0.0504253)
(0.0552617 0.11343 0.0857282)
(0.0384332 0.0719256 0.108261)
(0.0199272 0.0196323 0.110391)
(0.00583892 -0.0332202 0.09126)
(-0.000146257 -0.08004 0.0567577)
(0.00446776 -0.117223 0.0155601)
(0.0374385 -0.130253 -0.0127429)
(0.048353 -0.143606 -0.0430779)
(0.0558281 -0.141666 -0.0653513)
(0.0600414 -0.124325 -0.0794033)
(0.0609062 -0.0917569 -0.08346)
(0.0593735 -0.0455625 -0.0753367)
(0.0567762 0.00947911 -0.0548061)
(0.0543398 0.0644439 -0.0243503)
(0.052262 0.107156 0.0120629)
(0.0486951 0.125832 0.0498478)
(0.040885 0.115453 0.0825994)
(0.0290424 0.080988 0.1024)
(0.0177316 0.0326804 0.103716)
(0.0120841 -0.0197731 0.086745)
(0.0144146 -0.0691225 0.0568967)
(0.0266242 -0.111155 0.0213478)
(0.0577246 -0.124195 0.00191244)
(0.0725453 -0.136873 -0.0225041)
(0.0795912 -0.133129 -0.0430965)
(0.0807063 -0.114097 -0.0597739)
(0.0759731 -0.0811212 -0.0695094)
(0.0666692 -0.0363761 -0.0679924)
(0.0549479 0.0154263 -0.053189)
(0.0432939 0.0661494 -0.0268888)
(0.0334537 0.105364 0.0063553)
(0.0252913 0.12339 0.0406991)
(0.0173872 0.115547 0.0693279)
(0.0101167 0.0845509 0.0859021)
(0.0069576 0.0382428 0.087257)
(0.0111859 -0.0142625 0.0747425)
(0.0229408 -0.0651007 0.0529667)
(0.0436261 -0.109329 0.0272462)
(0.0692306 -0.122733 0.015212)
(0.0876313 -0.130746 -0.00104318)
(0.094915 -0.121083 -0.0183927)
(0.0942636 -0.096729 -0.0370536)
(0.085509 -0.0605996 -0.0529148)
(0.0696883 -0.0157294 -0.0593606)
(0.0494786 0.0331512 -0.0522202)
(0.0285894 0.0787145 -0.0324332)
(0.0103402 0.112168 -0.00494122)
(-0.00354266 0.125663 0.0235902)
(-0.01255 0.115251 0.0466377)
(-0.0155369 0.0827105 0.0598033)
(-0.010326 0.0348514 0.0622358)
(0.00380916 -0.0190581 0.056058)
(0.024422 -0.0702989 0.0446244)
(0.0521283 -0.113141 0.0310316)
(0.0697523 -0.12639 0.0260732)
(0.0903611 -0.126222 0.0184567)
(0.0986159 -0.107231 0.00527935)
(0.0979676 -0.0743432 -0.014343)
(0.0874337 -0.0321786 -0.0358804)
(0.0670879 0.014967 -0.0506145)
(0.0397877 0.0619813 -0.0520273)
(0.0106068 0.102179 -0.0401368)
(-0.0153586 0.128069 -0.0201857)
(-0.0343572 0.133291 0.00100812)
(-0.0438964 0.114943 0.0181024)
(-0.0423522 0.075396 0.028913)
(-0.0294082 0.0222188 0.0341268)
(-0.00722319 -0.0342895 0.0355584)
(0.0195104 -0.0845737 0.0348)
(0.0502621 -0.122514 0.0328215)
(0.0587424 -0.134514 0.0350722)
(0.079648 -0.123846 0.0342639)
(0.0892692 -0.0937583 0.0250004)
(0.0903264 -0.0503732 0.00536451)
(0.0806411 0.000209072 -0.020722)
(0.0584928 0.0517589 -0.0431958)
(0.0261849 0.0980335 -0.0531456)
(-0.00976545 0.132677 -0.0494406)
(-0.0417257 0.14934 -0.0373369)
(-0.0634989 0.142993 -0.0230375)
(-0.0713625 0.112327 -0.0100547)
(-0.0646121 0.0618463 0.00105036)
(-0.0456162 0.00127484 0.0109299)
(-0.019044 -0.0577006 0.0199494)
(0.0094042 -0.105261 0.0279245)
(0.0382075 -0.135812 0.034405)
(0.0375765 -0.14681 0.0423606)
(0.0573965 -0.124371 0.0447869)
(0.068044 -0.0829301 0.0381829)
(0.071349 -0.0290338 0.0193586)
(0.06412 0.0301535 -0.00953077)
(0.0426999 0.0863101 -0.0388812)
(0.00800931 0.131642 -0.0576893)
(-0.0320992 0.159952 -0.0623403)
(-0.066531 0.166098 -0.0564452)
(-0.0868544 0.14665 -0.0451654)
(-0.0901908 0.102635 -0.0314991)
(-0.0786206 0.0412354 -0.0165515)
(-0.0569885 -0.0257889 -0.00111534)
(-0.0308641 -0.0858702 0.0136018)
(-0.00532504 -0.129434 0.026517)
(0.0178739 -0.151881 0.0368973)
(0.0125256 -0.142926 0.043885)
(0.0304599 -0.114646 0.0461108)
(0.0396356 -0.0687012 0.0416938)
(0.0418284 -0.00762132 0.0257225)
(0.0341155 0.0639067 -0.00276267)
(0.0138951 0.135598 -0.0365814)
(-0.0167528 0.191582 -0.0636996)
(-0.0501278 0.216846 -0.0761704)
(-0.0769401 0.205053 -0.0737334)
(-0.0912618 0.160374 -0.0606045)
(-0.0919696 0.0941173 -0.0414759)
(-0.0813809 0.0202044 -0.0203197)
(-0.0634354 -0.0483077 -0.000416349)
(-0.0424315 -0.10205 0.0159545)
(-0.0222895 -0.135999 0.0282842)
(-0.00489103 -0.149144 0.0372621)
(0.00685962 -0.182621 0.0489427)
(0.0237344 -0.148806 0.0433211)
(0.0316817 -0.0910024 0.0342731)
(0.0326222 -0.017402 0.0200881)
(0.0240662 0.0584792 0.000933437)
(0.0052313 0.121081 -0.018756)
(-0.0196773 0.16014 -0.0334343)
(-0.0439355 0.173517 -0.040791)
(-0.0626968 0.162868 -0.0415368)
(-0.0737875 0.130509 -0.0362722)
(-0.076385 0.0795274 -0.0245766)
(-0.070474 0.0151926 -0.00674795)
(-0.0575159 -0.0540527 0.0140379)
(-0.0407302 -0.117138 0.0326362)
(-0.0241425 -0.163337 0.0447165)
(-0.00904583 -0.185299 0.0490994)
(-0.0142253 -0.170711 0.0394209)
(-0.00394633 -0.140496 0.0313848)
(0.00320155 -0.0892185 0.0238167)
(0.0105505 -0.0195479 0.0141429)
(0.0153986 0.0601169 0.000834902)
(0.0126654 0.134074 -0.0147462)
(-0.000462956 0.184333 -0.0285184)
(-0.0202263 0.200965 -0.0362993)
(-0.0391405 0.184695 -0.0362064)
(-0.0516512 0.141648 -0.0278139)
(-0.0556512 0.0799772 -0.0118963)
(-0.0519203 0.00933407 0.0085388)
(-0.0434267 -0.0595715 0.0280974)
(-0.0340838 -0.116614 0.0413)
(-0.0269713 -0.154785 0.0461755)
(-0.0210294 -0.170559 0.0443761)
(-0.0299608 -0.173047 0.0263188)
(-0.0229107 -0.144935 0.0135877)
(-0.0161116 -0.0983341 0.00552661)
(-0.00564977 -0.0345101 -0.000576014)
(0.00696393 0.0409219 -0.00708849)
(0.0170572 0.115657 -0.0150463)
(0.0184541 0.17162 -0.0232284)
(0.00917817 0.19401 -0.0280246)
(-0.00566095 0.180331 -0.0255372)
(-0.0192577 0.137478 -0.0138778)
(-0.0278679 0.0752482 0.00566727)
(-0.031276 0.00442158 0.0279733)
(-0.0316287 -0.063611 0.0455463)
(-0.0315565 -0.118897 0.0527337)
(-0.0324643 -0.15514 0.0492778)
(-0.0316501 -0.169317 0.0393725)
(-0.0388118 -0.169602 0.00841954)
(-0.0338039 -0.147032 -0.00944925)
(-0.0270098 -0.108614 -0.019164)
(-0.0147094 -0.0542429 -0.0231412)
(0.00243203 0.0132215 -0.0238644)
(0.0212614 0.0855836 -0.0234818)
(0.035451 0.147454 -0.0231466)
(0.0383186 0.180519 -0.0213954)
(0.0294423 0.175496 -0.0141267)
(0.01482 0.13704 0.00187637)
(0.00038859 0.0766376 0.0251749)
(-0.0114048 0.00708134 0.0486791)
(-0.0208999 -0.0592426 0.0631943)
(-0.0290156 -0.112539 0.0632619)
(-0.0357728 -0.14739 0.0504555)
(-0.0377368 -0.161481 0.0313535)
(-0.040569 -0.163771 -0.0116696)
(-0.0367658 -0.148373 -0.0344018)
(-0.0297264 -0.119324 -0.0464099)
(-0.0165851 -0.0755905 -0.0495789)
(0.00232605 -0.0178916 -0.0461616)
(0.0249841 0.0491184 -0.0385814)
(0.0464428 0.114033 -0.0292274)
(0.058844 0.158806 -0.0187503)
(0.0566618 0.167653 -0.00436662)
(0.0425322 0.138876 0.0173428)
(0.0235967 0.083495 0.0445575)
(0.00486045 0.0165475 0.0686097)
(-0.0118225 -0.048063 0.0792377)
(-0.025677 -0.100351 0.0717053)
(-0.0357695 -0.135339 0.0494591)
(-0.0387908 -0.15118 0.0210536)
(-0.0359483 -0.156325 -0.0300381)
(-0.0323259 -0.148705 -0.0567942)
(-0.0249101 -0.129107 -0.0710507)
(-0.0120716 -0.0957728 -0.0741587)
(0.00585684 -0.0477953 -0.0680117)
(0.0275469 0.0126322 -0.0548855)
(0.049703 0.0774825 -0.0375851)
(0.0660706 0.131279 -0.0181716)
(0.069367 0.15529 0.00427741)
(0.0579727 0.140237 0.0321257)
(0.0376901 0.0932592 0.0627681)
(0.0151981 0.030512 0.0864518)
(-0.00549073 -0.0322692 0.092707)
(-0.0220502 -0.084386 0.0779204)
(-0.0328771 -0.120745 0.0471649)
(-0.0353847 -0.139777 0.0104986)
(-0.0259069 -0.147379 -0.0428667)
(-0.0212314 -0.14752 -0.0722627)
(-0.0133915 -0.136788 -0.0881868)
(-0.00202815 -0.112685 -0.0916552)
(0.0124366 -0.0730801 -0.0841041)
(0.0292753 -0.0186725 -0.0673534)
(0.0467469 0.0445449 -0.0440828)
(0.0611102 0.103594 -0.0170956)
(0.066446 0.139944 0.0127466)
(0.0587252 0.139238 0.0459313)
(0.0405342 0.102988 0.078698)
(0.0182092 0.0462355 0.100918)
(-0.00278335 -0.0140563 0.102727)
(-0.0188239 -0.0661941 0.0818516)
(-0.0278661 -0.104575 0.0446851)
(-0.0282298 -0.127772 0.00202966)
(-0.011278 -0.137619 -0.0475352)
(-0.00430499 -0.144891 -0.0778504)
(0.00387131 -0.141686 -0.0947431)
(0.0126072 -0.124865 -0.0991363)