/*--------------------------------*- C++ -*----------------------------------*\
| =========                 |                                                 |
| \\      /  F ield         | OpenFOAM: The Open Source CFD Toolbox           |
|  \\    /   O peration     | Version:  3.0.0                                 |
|   \\  /    A nd           | Web:      www.OpenFOAM.org                      |
|    \\/     M anipulation  |                                                 |
\*---------------------------------------------------------------------------*/
FoamFile
{
    version     2.0;
    format      ascii;
    class       volScalarField;
    location    "0.5";
    object      p;
}
// * * * * * * * * * * * * * * * * * * * * * * * * * * * * * * * * * * * * * //

dimensions      [0 2 -2 0 0 0 0];

internalField   nonuniform List<scalar> 
4096
(
-0.00494367
-0.00193022
0.000126923
0.000190588
-0.0015816
-0.00452857
-0.0078699
-0.0110178
-0.0136891
-0.0158243
-0.0173966
-0.0182443
-0.0180629
-0.0165908
-0.0137869
-0.0094205
-0.00820127
-0.00529333
-0.00303878
-0.00246468
-0.00359093
-0.00596743
-0.00894922
-0.0119403
-0.0145624
-0.0166222
-0.0181046
-0.0189234
-0.0188977
-0.0178326
-0.0156288
-0.0119699
-0.0100409
-0.00769059
-0.00547487
-0.00432693
-0.00435764
-0.00531299
-0.0067855
-0.00841001
-0.00999404
-0.0115074
-0.0129708
-0.0143062
-0.0152673
-0.0155263
-0.0147833
-0.0125556
-0.0104303
-0.00905195
-0.00722772
-0.0057522
-0.00478471
-0.00424865
-0.00398694
-0.00390831
-0.00407125
-0.00464808
-0.00578186
-0.00744308
-0.00932421
-0.0109736
-0.0118865
-0.0113889
-0.00933961
-0.00921723
-0.00812873
-0.00668277
-0.00502185
-0.00318791
-0.00124202
0.000627168
0.00207643
0.00268918
0.00215529
0.000448205
-0.00212757
-0.00498402
-0.00745543
-0.0086913
-0.00681186
-0.00802386
-0.0078973
-0.00683827
-0.00490002
-0.00214755
0.00119459
0.00469184
0.0077176
0.00959644
0.00983648
0.00831521
0.00536769
0.00165297
-0.00204807
-0.00476598
-0.0030702
-0.00545478
-0.00632398
-0.00589523
-0.00408625
-0.000915894
0.00332372
0.00802124
0.0123155
0.0153039
0.0163263
0.0151846
0.0122056
0.00808952
0.0036629
-5.58611e-05
0.00142765
-0.00175089
-0.0034331
-0.00370258
-0.00233678
0.000749761
0.00527791
0.0105564
0.0155833
0.0193066
0.0209501
0.020259
0.0175436
0.0135004
0.00893069
0.00483257
0.00599394
0.00253753
0.000392841
-0.000476639
0.000269166
0.00283809
0.00703321
0.0121887
0.017281
0.0212159
0.0231809
0.0228987
0.0206602
0.0171126
0.0129655
0.00915927
0.00982883
0.00663056
0.00444239
0.00317498
0.00323271
0.00494737
0.00825538
0.0126141
0.0170994
0.0206913
0.0226248
0.0226424
0.0210116
0.0182962
0.0150663
0.0121643
0.0121599
0.00969515
0.00785334
0.00640046
0.00576543
0.00639223
0.00838858
0.0114124
0.014739
0.0175189
0.0191088
0.0193039
0.0183478
0.0166977
0.0147507
0.0132277
0.0125255
0.0111143
0.0098859
0.00840849
0.00710384
0.00651923
0.00695449
0.0083164
0.0101425
0.0118133
0.0128506
0.0131302
0.0128616
0.0123924
0.0119356
0.0120731
0.0108678
0.010653
0.0101671
0.00876337
0.0068483
0.00505805
0.00389092
0.00351786
0.00375437
0.00422639
0.00463046
0.00492305
0.00529463
0.00598154
0.00702614
0.00886598
0.00754507
0.00850181
0.00876584
0.00751419
0.0051021
0.00224606
-0.00037529
-0.00234191
-0.00357274
-0.00421134
-0.00440343
-0.00412691
-0.00321406
-0.0015268
0.000840891
0.00419016
0.00322011
0.00517462
0.00613353
0.00513055
0.0024479
-0.00117074
-0.00491957
-0.00817212
-0.0106102
-0.0121686
-0.0128574
-0.0126174
-0.0113134
-0.00890345
-0.00556891
-0.00111359
-0.00123112
0.0014525
0.00306431
0.00260033
0.000312266
-0.00306576
-0.00673859
-0.0101166
-0.0129143
-0.0150597
-0.0164681
-0.0169492
-0.0162148
-0.0141019
-0.0107334
-0.0059584
-0.00792636
-0.0045159
-0.00215317
-0.00182747
-0.00333619
-0.00604856
-0.00916314
-0.0121967
-0.0149399
-0.0173678
-0.0194058
-0.0207698
-0.0210123
-0.0197648
-0.0169339
-0.0123545
-0.0118953
-0.00858689
-0.00606219
-0.00517457
-0.00593673
-0.00798725
-0.0107899
-0.0138461
-0.016791
-0.0193768
-0.0214105
-0.0226653
-0.0228696
-0.0218146
-0.0194317
-0.0155806
-0.0139745
-0.0112707
-0.00890034
-0.00755381
-0.00729953
-0.00793227
-0.00914771
-0.0106997
-0.012459
-0.0143636
-0.0163126
-0.0180909
-0.0193222
-0.0196411
-0.0187547
-0.0163968
-0.0141232
-0.0124351
-0.0105377
-0.00897505
-0.00783527
-0.00705764
-0.00655541
-0.00634811
-0.00657692
-0.00741586
-0.00893346
-0.0109638
-0.0131026
-0.0148358
-0.0156178
-0.0150265
-0.012375
-0.0119295
-0.0107642
-0.00926876
-0.00752829
-0.00556736
-0.00348635
-0.0015458
-0.000151784
0.000267662
-0.000568876
-0.00255582
-0.00533573
-0.0082557
-0.0106095
-0.0117482
-0.00888787
-0.00970611
-0.00941421
-0.00825681
-0.00626567
-0.00349711
-0.000172619
0.00325768
0.00615002
0.00783799
0.00786397
0.00610306
0.00299317
-0.000764273
-0.00435181
-0.00694664
-0.00402537
-0.00594126
-0.00652998
-0.00591192
-0.00403231
-0.000918111
0.00316155
0.00763403
0.0116803
0.0144354
0.0152558
0.0139465
0.0108572
0.00671731
0.00240487
-0.00117937
0.00160493
-0.0010992
-0.00243809
-0.0024609
-0.00100682
0.00198171
0.00626076
0.0112158
0.0159283
0.0194048
0.0208817
0.0200856
0.0173123
0.013263
0.00879188
0.00482299
0.00716537
0.00407371
0.00223237
0.00157572
0.0023748
0.00481486
0.00874431
0.0135866
0.0184082
0.0221659
0.0240452
0.0237334
0.0214882
0.0179501
0.0138732
0.010176
0.0117029
0.00866552
0.00664636
0.00545797
0.00546975
0.00702208
0.0101118
0.0142761
0.0186476
0.0222154
0.0241848
0.0242538
0.0226596
0.0199614
0.0167598
0.0139562
0.0143481
0.0118052
0.00995866
0.00840755
0.00759554
0.00802582
0.00988432
0.0128858
0.0163061
0.0192436
0.0209898
0.0212985
0.0204023
0.0187652
0.0168084
0.0154016
0.0145602
0.0128995
0.0115452
0.00983224
0.00825273
0.00745278
0.00782582
0.00931122
0.0113927
0.0133461
0.0146037
0.0150036
0.0147937
0.0143256
0.0138397
0.0141425
0.0122874
0.0117907
0.0111797
0.00949281
0.00730478
0.00531952
0.00413711
0.00394299
0.00447171
0.00522504
0.00581139
0.00617361
0.0065642
0.00723904
0.00826442
0.0103423
0.00797849
0.0087623
0.00899545
0.00760015
0.00500959
0.00202266
-0.000604477
-0.00245562
-0.00351855
-0.00403015
-0.00418581
-0.00394315
-0.00306155
-0.0013798
0.001019
0.00467248
0.00244801
0.00443455
0.00552887
0.00458666
0.00192063
-0.00170662
-0.00547904
-0.00877989
-0.0113131
-0.013022
-0.0138897
-0.0137957
-0.0125426
-0.0100914
-0.00663709
-0.00183782
-0.00322665
-0.000296196
0.00155829
0.00126996
-0.000863628
-0.00408669
-0.00760765
-0.0108882
-0.0137167
-0.0160593
-0.0178199
-0.0187027
-0.018294
-0.0163385
-0.0129409
-0.0078964
-0.00889551
-0.00485725
-0.00219066
-0.00173272
-0.00320806
-0.00590361
-0.00905235
-0.0121801
-0.0151447
-0.017948
-0.0204579
-0.0222667
-0.0227879
-0.0215536
-0.0184266
-0.0134184
-0.0131554
-0.00926596
-0.00642852
-0.00532858
-0.00594357
-0.00790864
-0.0107284
-0.0139549
-0.0172513
-0.0203391
-0.0229123
-0.0246026
-0.0250244
-0.0239176
-0.0212177
-0.0169823
-0.0153456
-0.0121084
-0.00942752
-0.00790986
-0.0075967
-0.00825938
-0.00958203
-0.0113254
-0.0133737
-0.0156553
-0.018016
-0.0201421
-0.0215803
-0.0218936
-0.0207875
-0.0179951
-0.0155687
-0.0134237
-0.0111942
-0.00948023
-0.0083416
-0.00768248
-0.00737867
-0.00741572
-0.00791858
-0.00905168
-0.0108602
-0.0131418
-0.0154366
-0.0171642
-0.0177582
-0.0168126
-0.0138643
-0.0130032
-0.0114974
-0.00982596
-0.00809592
-0.00630525
-0.0044966
-0.00286577
-0.00176926
-0.00160932
-0.00264608
-0.00481772
-0.00769897
-0.0106136
-0.0128174
-0.0136259
-0.0103949
-0.0107926
-0.0101306
-0.00875911
-0.0067607
-0.00417869
-0.00117314
0.00189085
0.00444908
0.00587576
0.00570632
0.00384463
0.000671668
-0.00308225
-0.00654095
-0.0088412
-0.00548945
-0.00695714
-0.00716152
-0.00629905
-0.00438253
-0.00144314
0.00230605
0.00638763
0.0100783
0.0125709
0.0132281
0.0118313
0.00869948
0.00457075
0.000370769
-0.00297415
0.000286766
-0.00197132
-0.0029547
-0.00273432
-0.00122146
0.00162141
0.00559537
0.0101775
0.0145484
0.0177813
0.0191239
0.0182709
0.0154825
0.0114571
0.00708928
0.00328586
0.00611064
0.00339026
0.001825
0.00136897
0.00222995
0.00456215
0.00824305
0.0127722
0.0173066
0.0208708
0.022666
0.02235
0.0201408
0.0166355
0.0126595
0.00905391
0.010993
0.00817838
0.00632391
0.00526432
0.00532731
0.00681597
0.00973567
0.0136731
0.0178352
0.021276
0.0232235
0.0233514
0.0218455
0.0192247
0.0161043
0.0133442
0.0139849
0.0114899
0.00970036
0.0082079
0.00743811
0.00785755
0.00963358
0.0124981
0.0157795
0.0186388
0.020406
0.0208225
0.0200607
0.0185349
0.0166483
0.0152807
0.0144472
0.0127081
0.0113465
0.00965791
0.00812951
0.00738001
0.00775377
0.00917295
0.0111499
0.0130239
0.0142865
0.014789
0.0147295
0.0143953
0.0139853
0.0143698
0.0122558
0.0116636
0.0110371
0.00941279
0.00730155
0.00542948
0.00431531
0.00409186
0.00449847
0.00510405
0.0056035
0.00599042
0.00649769
0.00731381
0.00844945
0.0106874
0.00783899
0.00863234
0.00892476
0.00762346
0.0052012
0.00236815
-0.000130978
-0.00201149
-0.00326678
-0.00405876
-0.00446133
-0.00433359
-0.00341376
-0.00159093
0.000984695
0.00488895
0.002058
0.00422861
0.00547197
0.00470651
0.00228651
-0.00108914
-0.00470838
-0.00806618
-0.0108937
-0.0130491
-0.0143547
-0.0145405
-0.0133507
-0.0107553
-0.00704536
-0.00193789
-0.00381449
-0.000456314
0.00162156
0.00147361
-0.000529448
-0.0036155
-0.00703162
-0.0103098
-0.013305
-0.0159911
-0.0181942
-0.0194853
-0.0193259
-0.0173992
-0.0137593
-0.00837011
-0.00748464
-0.00283305
8.4168e-05
0.000593522
-0.000981015
-0.00388099
-0.00731589
-0.0107886
-0.0141397
-0.0173374
-0.0201894
-0.022213
-0.0227519
-0.0213012
-0.0177217
-0.012226
-0.0116545
-0.00739273
-0.00439667
-0.00324011
-0.00383962
-0.00580396
-0.00865362
-0.0119937
-0.0155355
-0.0189953
-0.0219884
-0.0240276
-0.0245968
-0.0233927
-0.0203658
-0.0157201
-0.0138624
-0.0104243
-0.00762075
-0.00611676
-0.00589365
-0.00666325
-0.00809049
-0.00995687
-0.0121857
-0.0147208
-0.0173739
-0.0197479
-0.0212945
-0.0215212
-0.0201208
-0.016948
-0.0144529
-0.0122677
-0.0099494
-0.00827439
-0.00728671
-0.00680905
-0.00667191
-0.00685473
-0.00750386
-0.0088054
-0.0107981
-0.0132357
-0.0155901
-0.0172415
-0.0176413
-0.0162171
-0.0134611
-0.0126514
-0.0110206
-0.00937357
-0.00779683
-0.0062119
-0.00460895
-0.00315533
-0.00220654
-0.0021772
-0.00333215
-0.00559931
-0.0085115
-0.0113706
-0.0134467
-0.0137762
-0.0109278
-0.0113508
-0.0105118
-0.00910405
-0.00721415
-0.00482758
-0.00205237
0.000791351
0.00316792
0.00445764
0.00418758
0.00226288
-0.000924968
-0.00464156
-0.00801881
-0.00989357
-0.00699376
-0.00837473
-0.00835073
-0.00738057
-0.00550743
-0.00273332
0.000773758
0.0045945
0.00805921
0.0103895
0.0109489
0.00950181
0.00635857
0.00225492
-0.00188126
-0.00489433
-0.00200481
-0.00404637
-0.00477682
-0.00440116
-0.00287866
-0.000171873
0.00355643
0.00785131
0.0119607
0.0150131
0.0162639
0.0153832
0.012603
0.0086114
0.00431652
0.00073304
0.00338804
0.000967619
-0.000361738
-0.00065729
0.00023402
0.00244437
0.00587838
0.0101052
0.0143689
0.0177585
0.0194913
0.0191942
0.0170342
0.0136113
0.00973169
0.00624172
0.00826322
0.00575884
0.00409095
0.00315982
0.00324317
0.00461036
0.00728443
0.0109212
0.0148197
0.0181115
0.0200409
0.0202525
0.0188693
0.0163724
0.0133851
0.0106938
0.0116277
0.00940115
0.00774208
0.00633479
0.00556534
0.00586337
0.00740296
0.00997894
0.0130067
0.0157314
0.0175215
0.0180702
0.0175014
0.0161548
0.0144371
0.0131347
0.0127205
0.0112101
0.00994591
0.00831513
0.0067843
0.00592835
0.00608957
0.00723331
0.00895978
0.0106902
0.0119656
0.0126161
0.0127734
0.0126583
0.0124516
0.0129391
0.0112752
0.0109225
0.010397
0.00883901
0.0067492
0.00480885
0.00352523
0.00304201
0.0031755
0.00358383
0.00402855
0.00450851
0.00520989
0.0062593
0.00763776
0.0100357
0.00759604
0.00869469
0.00912205
0.00792241
0.00556928
0.00277366
0.000156515
-0.00195521
-0.00351586
-0.00459796
-0.00518426
-0.00508602
-0.00404823
-0.00200965
0.000845733
0.00496194
0.00248195
0.00503088
0.00644048
0.00582765
0.0035717
0.000321132
-0.003289
-0.00679459
-0.00992735
-0.0124663
-0.0141167
-0.0145051
-0.0133274
-0.0105804
-0.00658104
-0.00124164
-0.00263578
0.00125097
0.00354725
0.00350226
0.00152234
-0.00162228
-0.00518554
-0.00870372
-0.012006
-0.0150264
-0.0175291
-0.0190174
-0.0188984
-0.0168232
-0.0128517
-0.00713507
-0.00356702
0.00145225
0.00448593
0.00495535
0.00320334
7.75097e-06
-0.00380906
-0.00771299
-0.0114746
-0.0149939
-0.0180192
-0.0200339
-0.0203833
-0.0185892
-0.0145578
-0.00861972
-0.00728747
-0.00302618
-7.0043e-05
0.000959888
0.000227444
-0.00181374
-0.00467644
-0.00800839
-0.0115849
-0.0151632
-0.018342
-0.0205511
-0.021195
-0.0199121
-0.0166764
-0.0116893
-0.00944936
-0.00625284
-0.00354886
-0.00224371
-0.00224567
-0.00317488
-0.00466937
-0.00653864
-0.00876121
-0.0113329
-0.0140654
-0.0165171
-0.0180684
-0.0181932
-0.0166261
-0.0130261
-0.0106784
-0.00893379
-0.00673466
-0.00529327
-0.00458424
-0.00431944
-0.00429
-0.00448804
-0.00510762
-0.00638561
-0.00838109
-0.0108251
-0.0131352
-0.0146764
-0.0149682
-0.0130365
-0.0109511
-0.0106717
-0.00912782
-0.00768824
-0.00637978
-0.00501404
-0.00353659
-0.00211629
-0.00114301
-0.00107447
-0.00220118
-0.00444438
-0.00729901
-0.0100682
-0.0120915
-0.0118922
-0.0101122
-0.0110034
-0.0101773
-0.0088957
-0.00721054
-0.00501753
-0.00238114
0.000386014
0.00273865
0.00403293
0.00377699
0.00187219
-0.0012694
-0.00491858
-0.00828196
-0.00966096
-0.00799491
-0.00965824
-0.00955482
-0.00860582
-0.00684974
-0.00423093
-0.000882725
0.00280021
0.00616579
0.0084363
0.00896941
0.00752233
0.00440927
0.000353157
-0.00377093
-0.00636795
-0.0045878
-0.00666971
-0.00724374
-0.00680103
-0.00532258
-0.00274839
0.0007868
0.00486507
0.00879703
0.0117238
0.0129145
0.0120282
0.00928467
0.0053426
0.00109668
-0.00217185
-0.000238201
-0.00248127
-0.00361362
-0.00379815
-0.00291961
-0.000851371
0.00233837
0.00627584
0.0102814
0.0134968
0.0151626
0.014887
0.0127999
0.00947618
0.00570875
0.00244935
0.00428993
0.00211101
0.00063999
-0.000181366
-0.000121347
0.00106535
0.00343332
0.00670935
0.0102915
0.0133859
0.0152679
0.0155574
0.0143185
0.0119963
0.0092061
0.00667811
0.00800414
0.00617583
0.00468996
0.00336225
0.00253833
0.00261398
0.00379464
0.00595514
0.00863172
0.0111536
0.0129231
0.0136124
0.0132631
0.0121683
0.0107235
0.00955955
0.0100156
0.00892937
0.00781239
0.00623265
0.00462399
0.00352616
0.00330784
0.0040186
0.00537109
0.00689134
0.00815843
0.0089772
0.00940256
0.00959406
0.00971306
0.0103399
0.00986695
0.00995085
0.00955689
0.00803982
0.00587792
0.00371761
0.00207395
0.00117523
0.000935916
0.00111462
0.0015242
0.00215197
0.00311611
0.00448539
0.00621557
0.00876112
0.00765514
0.00919148
0.00973783
0.00858415
0.00619652
0.00325582
0.000367458
-0.002083
-0.00398191
-0.00531304
-0.00599821
-0.00583748
-0.00461101
-0.00229685
0.000897747
0.00515841
0.00401073
0.00695729
0.0084558
0.00788913
0.00565539
0.00237679
-0.00135712
-0.00500905
-0.00836105
-0.0111308
-0.0129632
-0.0134371
-0.0122247
-0.00932242
-0.00505324
0.000408504
0.000424208
0.00472853
0.00714545
0.00712225
0.00506756
0.00173642
-0.00209255
-0.00599145
-0.00965
-0.0129415
-0.0155805
-0.0170537
-0.0167823
-0.0144402
-0.0101041
-0.00413152
0.00229574
0.00729488
0.0102629
0.0106072
0.00866462
0.00521257
0.00108397
-0.00313856
-0.00716067
-0.0108147
-0.0138052
-0.015628
-0.015681
-0.0135575
-0.00924809
-0.00307248
-0.000690704
0.00321668
0.00593367
0.00667774
0.005685
0.00349562
0.00062856
-0.00258463
-0.00598093
-0.00939025
-0.0124539
-0.0146074
-0.0152157
-0.013882
-0.0106069
-0.00543239
-0.00278895
-0.000163777
0.00225695
0.00322157
0.0029018
0.00178009
0.000250067
-0.00151845
-0.00356608
-0.00594747
-0.00852952
-0.0108656
-0.012309
-0.0123248
-0.0107152
-0.00680917
-0.00483553
-0.00381471
-0.00190771
-0.000827962
-0.000467194
-0.000422629
-0.000451797
-0.000567666
-0.00102209
-0.00211265
-0.00394063
-0.00624047
-0.0084049
-0.00980558
-0.0100637
-0.00771944
-0.00672859
-0.00721946
-0.00592633
-0.00481468
-0.00383457
-0.00268273
-0.00127
0.000211452
0.00132317
0.00155127
0.000571027
-0.00154097
-0.0042548
-0.00688742
-0.0088911
-0.00821997
-0.00806951
-0.00964885
-0.00897733
-0.00793395
-0.00650932
-0.00450245
-0.0019303
0.000850221
0.00327717
0.0046644
0.00449788
0.00268116
-0.000351052
-0.00389047
-0.00724407
-0.0081311
-0.00831655
-0.0104651
-0.0103954
-0.00956635
-0.00797906
-0.00550603
-0.00225556
0.00137454
0.00472142
0.00699256
0.00754044
0.00612949
0.00308936
-0.000882261
-0.00498423
-0.0071152
-0.00702654
-0.00931841
-0.00981287
-0.00938061
-0.00799403
-0.00555213
-0.00216759
0.00176275
0.00556213
0.00839095
0.00953026
0.00864464
0.0059558
0.00210598
-0.00206849
-0.00492692
-0.00415403
-0.00634035
-0.0073144
-0.00743817
-0.00661743
-0.00470812
-0.00175043
0.00191628
0.00568333
0.0087154
0.0102918
0.0100206
0.00801931
0.00482955
0.00121799
-0.00169606
-0.000251231
-0.00215813
-0.00343522
-0.00417563
-0.00418045
-0.00320926
-0.00117595
0.00171697
0.00495653
0.0078168
0.00961186
0.00994939
0.00886358
0.0067526
0.00421661
0.00196848
0.00373827
0.00232005
0.00101912
-0.000245291
-0.00116866
-0.00137357
-0.000612055
0.00108191
0.00335125
0.00562177
0.00732936
0.0081314
0.00801208
0.00721195
0.00610254
0.00516026
0.00681424
0.00619267
0.00522623
0.00367632
0.0019347
0.000517866
-0.000159728
5.05784e-05
0.000982269
0.00226093
0.00350466
0.0044892
0.00520094
0.00573981
0.00623723
0.00702691
0.00830784
0.00884607
0.00855466
0.00703438
0.00472702
0.00225539
0.000175912
-0.00119188
-0.00181645
-0.00184281
-0.00142633
-0.000612436
0.00064779
0.00236561
0.00446707
0.00711345
0.00806135
0.00998155
0.0105687
0.00937641
0.00685076
0.00365748
0.000435918
-0.00236863
-0.00454523
-0.00601406
-0.00667434
-0.00635409
-0.00488893
-0.00229429
0.00120705
0.00550123
0.00645403
0.00965138
0.0111089
0.0104505
0.00808456
0.0046452
0.000767529
-0.00305588
-0.00648451
-0.00926706
-0.0110539
-0.011444
-0.0101262
-0.0070887
-0.00264751
0.00280171
0.00488254
0.00932695
0.0117046
0.0116014
0.00940597
0.00584821
0.00169881
-0.00248097
-0.00640207
-0.00981257
-0.0123993
-0.0136739
-0.0131238
-0.0104851
-0.00588076
0.000207964
0.00890051
0.0135198
0.0162514
0.0164057
0.0143082
0.0107197
0.00646492
0.00215185
-0.00188642
-0.00544059
-0.00819174
-0.0097024
-0.00944716
-0.00710888
-0.00272125
0.0033929
0.00681369
0.0101838
0.0125342
0.0129016
0.0115799
0.00919344
0.00630576
0.00325445
0.000159838
-0.00289247
-0.00558463
-0.00746313
-0.0079047
-0.00650767
-0.00330648
0.00186099
0.00476782
0.00675898
0.0087866
0.00934635
0.00867843
0.00735288
0.00579236
0.00416123
0.0023724
0.000325286
-0.00196004
-0.0040259
-0.0052558
-0.005132
-0.00353255
0.000489256
0.00183672
0.00218281
0.00371176
0.00437945
0.00438407
0.00421981
0.00415273
0.00414417
0.00389741
0.00306252
0.00149034
-0.000565384
-0.0025044
-0.00371667
-0.00392073
-0.00134401
-0.00178425
-0.00292826
-0.00196628
-0.00122916
-0.000581556
0.000373881
0.00174395
0.00330925
0.00458056
0.00499506
0.00420199
0.00227881
-0.000231267
-0.00266986
-0.00458731
-0.00358112
-0.0054408
-0.00758696
-0.00715135
-0.00640342
-0.00525186
-0.00340587
-0.000889563
0.00194379
0.00446766
0.00595927
0.00589559
0.00419337
0.00131483
-0.00204968
-0.00529827
-0.00578121
-0.00821125
-0.0107765
-0.0108208
-0.0101782
-0.00878575
-0.00644622
-0.00326163
0.000360632
0.00371863
0.00600198
0.00656552
0.00519726
0.0022575
-0.00156958
-0.00555524
-0.00724344
-0.00921418
-0.0117288
-0.0122101
-0.0118541
-0.0105924
-0.00827649
-0.0050088
-0.00118015
0.00253316
0.00527632
0.00635824
0.00546559
0.00284597
-0.000871085
-0.00490144
-0.00731116
-0.00802292
-0.0102098
-0.0110713
-0.0111899
-0.0104553
-0.00870077
-0.00595169
-0.00252815
0.00109347
0.00393339
0.00540482
0.00511846
0.00319684
0.000163816
-0.00324897
-0.00574275
-0.00491296
-0.00662918
-0.00774199
-0.0084417
-0.00853831
-0.00778272
-0.00605537
-0.00350141
-0.000560445
0.0020743
0.00376538
0.00412119
0.00316531
0.00126749
-0.00100067
-0.00288871
-0.000754437
-0.00185085
-0.00299393
-0.00422568
-0.00527353
-0.00576094
-0.00539326
-0.00412219
-0.00221466
-0.000175633
0.00146203
0.00234659
0.00242672
0.00190281
0.00111617
0.000444421
0.00337062
0.00311152
0.00225594
0.000699928
-0.00120434
-0.002947
-0.00405879
-0.00429566
-0.00372008
-0.00263184
-0.00139164
-0.00025143
0.000717865
0.00156872
0.00239982
0.00334347
0.00659547
0.00745125
0.00719262
0.0056138
0.00311601
0.000316103
-0.0021727
-0.00393623
-0.00484232
-0.00497206
-0.00447577
-0.00344505
-0.00190285
0.00011435
0.00250618
0.00517669
0.00850226
0.0106175
0.0111413
0.00982414
0.00708426
0.00359443
5.20258e-05
-0.00301743
-0.0053298
-0.00676862
-0.00725296
-0.00667947
-0.00495623
-0.00213189
0.00158026
0.00575924
0.00917488
0.0123924
0.0136803
0.0128105
0.0101908
0.00649242
0.00241874
-0.00148116
-0.00484777
-0.00743128
-0.00893062
-0.00905635
-0.00754979
-0.00440776
4.55913e-05
0.00536655
0.00974238
0.0140177
0.016191
0.0159136
0.0135471
0.00980475
0.00546234
0.00112332
-0.00283476
-0.00613698
-0.00849059
-0.00944333
-0.00857988
-0.00571215
-0.00102929
0.00492475
0.0147699
0.0188272
0.0212116
0.021125
0.0189152
0.0153021
0.0110954
0.00690192
0.00308289
-0.000149226
-0.00252772
-0.00366869
-0.00314047
-0.000702265
0.00353082
0.00933877
0.0136225
0.0165111
0.0184698
0.0184549
0.0168024
0.0141945
0.0112438
0.00830956
0.00551406
0.00290361
0.00066618
-0.000801284
-0.000962616
0.000541331
0.00366497
0.00867131
0.0116107
0.0131838
0.0148254
0.0149954
0.0140049
0.0124751
0.0108601
0.0093101
0.00773795
0.00599113
0.00408898
0.00237935
0.00143677
0.0017458
0.00338875
0.00734813
0.00786632
0.00789877
0.00907767
0.00934548
0.00903465
0.00867476
0.00854498
0.00859149
0.00849119
0.00786781
0.00655578
0.00477689
0.00310107
0.00214294
0.00209782
0.00471176
0.00267957
0.00131123
0.00192255
0.00232265
0.00268143
0.00345622
0.0047667
0.00636941
0.0077352
0.0082801
0.00764597
0.00591975
0.00365796
0.0014675
-0.000215507
0.000924769
-0.00306626
-0.00537292
-0.00520353
-0.00475935
-0.003861
-0.00216134
0.000309547
0.00317022
0.00575002
0.00730529
0.00731365
0.00572559
0.00302729
-9.83655e-05
-0.00308486
-0.00334448
-0.00812369
-0.010812
-0.0110234
-0.0106042
-0.00941311
-0.00718762
-0.00404189
-0.000416791
0.00296006
0.00524719
0.00581372
0.00448752
0.00166596
-0.00196246
-0.00569968
-0.0070861
-0.0112405
-0.0138309
-0.0143724
-0.0141491
-0.0130311
-0.0108153
-0.00760878
-0.00382471
-0.000154744
0.00253575
0.00356769
0.00266815
0.000122821
-0.00343305
-0.00723946
-0.0092915
-0.0116482
-0.0138348
-0.014661
-0.0148359
-0.0142035
-0.0125663
-0.00993492
-0.00660585
-0.0031606
-0.000400746
0.000993515
0.000681198
-0.00117756
-0.00406192
-0.00726111
-0.00938144
-0.00937212
-0.0109959
-0.0120187
-0.0127291
-0.0129212
-0.0123265
-0.0107988
-0.00844915
-0.00570051
-0.00320507
-0.00158972
-0.00123841
-0.00211034
-0.00384528
-0.00589236
-0.00744566
-0.0051783
-0.00611648
-0.00716319
-0.00840132
-0.00956646
-0.0102685
-0.010172
-0.00917198
-0.00748344
-0.00557709
-0.00397573
-0.00303751
-0.00282705
-0.00316202
-0.00372277
-0.0041572
-0.000191373
-0.00027375
-0.00108332
-0.00268355
-0.00474157
-0.00673868
-0.00815451
-0.00867254
-0.00828987
-0.00727152
-0.00598297
-0.00470827
-0.00355812
-0.00250642
-0.00147621
-0.000425862
0.00458894
0.00554758
0.00524266
0.00356151
0.000873206
-0.00219424
-0.00496937
-0.00695981
-0.00796894
-0.00805466
-0.00739291
-0.00613833
-0.00437779
-0.00217932
0.0003385
0.00295831
0.00850298
0.0105837
0.0109565
0.00945978
0.00648398
0.00272558
-0.00105163
-0.00424502
-0.00651882
-0.00775693
-0.00794079
-0.00705714
-0.00509468
-0.00214181
0.00156181
0.00558243
0.011349
0.014371
0.0154089
0.0142678
0.0113459
0.00736312
0.00310323
-0.000809098
-0.003982
-0.00619399
-0.00726312
-0.00699989
-0.00524711
-0.00202537
0.00238267
0.00741175
0.0138575
0.0177146
0.0195755
0.0190589
0.0165151
0.0126563
0.0082689
0.00397726
0.00020294
-0.0027983
-0.00475256
-0.00531997
-0.00417843
-0.00121263
0.00336521
0.00902066
0.0186493
0.0221915
0.0241743
0.0238567
0.0215188
0.0179126
0.0138245
0.0098641
0.00637592
0.00356514
0.00163697
0.000887937
0.00165673
0.00412177
0.00813678
0.0135288
0.0183721
0.0210011
0.0226296
0.0223067
0.0203742
0.017546
0.0144759
0.0115712
0.00897664
0.00672858
0.00494671
0.00392692
0.00410702
0.00577988
0.0088885
0.01365
0.0164113
0.0179278
0.0192463
0.0191187
0.0178733
0.0161473
0.0144169
0.0128629
0.0114059
0.00989238
0.00832096
0.0069703
0.00634963
0.00688831
0.00866121
0.0124278
0.0120739
0.0122335
0.0131037
0.0131005
0.0125566
0.0120193
0.0117821
0.0117961
0.0117394
0.0112399
0.0101315
0.00861791
0.00724169
0.00655101
0.00677342
0.0092458
0.00573719
0.00463609
0.00498383
0.00507476
0.00520317
0.0058328
0.00705377
0.00862527
0.0100023
0.0106013
0.0100764
0.00852802
0.00649775
0.00461621
0.00329302
0.0043445
-0.00155541
-0.00358259
-0.00367783
-0.00351355
-0.00281749
-0.00124528
0.00118781
0.00405068
0.00664547
0.00823416
0.0082903
0.00681211
0.00430108
0.00145143
-0.00116016
-0.00145005
-0.00832762
-0.0108158
-0.011258
-0.0110881
-0.0100614
-0.00792153
-0.00477685
-0.00111012
0.00230112
0.00461992
0.00520243
0.00393376
0.00124239
-0.00216354
-0.00557369
-0.00691961
-0.013075
-0.0155735
-0.0162828
-0.0162541
-0.0152645
-0.0130995
-0.00987112
-0.00602895
-0.00231802
0.00039772
0.0014283
0.000547585
-0.00192021
-0.00531746
-0.00887719
-0.0108148
-0.014784
-0.0169553
-0.0178723
-0.0181745
-0.0176395
-0.0160417
-0.013399
-0.0100274
-0.00655783
-0.00378251
-0.00240199
-0.00272046
-0.00453998
-0.00732068
-0.0103509
-0.0123043
-0.0132788
-0.01491
-0.0159604
-0.0167437
-0.0170157
-0.0164738
-0.0149718
-0.0126242
-0.0098704
-0.00737174
-0.00576677
-0.00542082
-0.00626853
-0.00793455
-0.00987034
-0.0112534
-0.0092033
-0.0101467
-0.0111981
-0.012489
-0.01373
-0.014522
-0.0144979
-0.0135376
-0.0118544
-0.00992882
-0.00830092
-0.00733492
-0.0070881
-0.00736994
-0.00786118
-0.00818494
-0.00366464
-0.00377278
-0.00462308
-0.00628408
-0.00844808
-0.0105688
-0.0120881
-0.012653
-0.0122476
-0.0111484
-0.00975418
-0.00838354
-0.00716281
-0.00606654
-0.00501249
-0.0039709
0.00224319
0.00310999
0.00269851
0.000899416
-0.00193479
-0.00515245
-0.00803513
-0.0100385
-0.0109542
-0.0108532
-0.00996916
-0.0085235
-0.00664554
-0.0044156
-0.00194229
0.000543823
0.00771396
0.00958955
0.00977102
0.00808743
0.00491167
0.000970993
-0.00291138
-0.00607328
-0.00815843
-0.00908072
-0.00890496
-0.00771733
-0.00558359
-0.00260969
0.000976008
0.00475855
0.0123039
0.015013
0.0157923
0.0143921
0.0111995
0.0069805
0.00259388
-0.00126333
-0.00417705
-0.00596189
-0.00654506
-0.00586452
-0.00386754
-0.000612043
0.00363442
0.00836912
0.0162813
0.0196594
0.0211688
0.0203874
0.017664
0.0137326
0.00940144
0.0053216
0.0018811
-0.000674838
-0.00215822
-0.00233794
-0.000982743
0.00197888
0.0063243
0.0116003
0.019917
0.0231156
0.0247459
0.0241763
0.0217078
0.0180684
0.0140555
0.0102907
0.00712806
0.00473949
0.00326267
0.00290231
0.00390452
0.00640187
0.0102473
0.0152392
0.0203411
0.0229467
0.0243534
0.02383
0.0217129
0.0187017
0.0154866
0.0125292
0.0100254
0.00802563
0.00660906
0.00599096
0.00649883
0.0083599
0.0115135
0.0160012
0.0184971
0.0202166
0.0213426
0.0210341
0.0196261
0.017739
0.0158672
0.0142306
0.0127911
0.0114192
0.0101025
0.00906613
0.00874514
0.00951317
0.0114557
0.0149511
0.0139212
0.0145026
0.0151679
0.0149856
0.0143001
0.0136318
0.0132736
0.0131981
0.0131113
0.0126674
0.0117104
0.0104284
0.00931713
0.00888428
0.00938837
0.0115834
0.00703579
0.00645054
0.00657972
0.00647139
0.00646677
0.00698772
0.00813986
0.00965754
0.0110104
0.0116312
0.0111953
0.00981355
0.0080079
0.00639299
0.00541596
0.00617924
-0.00103763
-0.00259214
-0.00295363
-0.00301946
-0.00245373
-0.000937266
0.00149403
0.00437656
0.00700638
0.0086391
0.0087674
0.00741429
0.00508486
0.00247949
0.000209293
-0.000371191
-0.00872591
-0.0108957
-0.011641
-0.0117248
-0.0108211
-0.00869751
-0.00548219
-0.0016916
0.00181742
0.00427991
0.00492299
0.00374921
0.00119181
-0.0020228
-0.0051591
-0.00677081
-0.0144196
-0.0167931
-0.0178023
-0.0180166
-0.0171422
-0.0149384
-0.0115603
-0.0075281
-0.00363147
-0.000767705
0.000352462
-0.000453734
-0.00285047
-0.00613169
-0.00952347
-0.0116714
-0.0169836
-0.019186
-0.0203548
-0.0208606
-0.0203996
-0.0187384
-0.0159231
-0.0123081
-0.00861078
-0.0056725
-0.00420425
-0.00449393
-0.00629124
-0.00903971
-0.0120137
-0.0141086
-0.0161082
-0.0178513
-0.0190807
-0.0200058
-0.0203174
-0.0197024
-0.0180231
-0.0154384
-0.0124569
-0.00978477
-0.00810463
-0.00775318
-0.00863821
-0.0103469
-0.0123176
-0.0137898
-0.0123183
-0.0133942
-0.0145633
-0.0159468
-0.0172234
-0.0179435
-0.017768
-0.0165966
-0.0146927
-0.012592
-0.0108757
-0.00991248
-0.00972756
-0.0101017
-0.0106908
-0.0110928
-0.00664981
-0.0069011
-0.00784686
-0.00959093
-0.0117901
-0.0138821
-0.0152898
-0.0156679
-0.0150351
-0.0137272
-0.0121967
-0.0107893
-0.00962265
-0.00864124
-0.00772905
-0.00680143
-0.000203168
0.000479904
-5.56535e-05
-0.00196006
-0.00486743
-0.00809821
-0.0109098
-0.0127419
-0.0133966
-0.0130196
-0.0119115
-0.0103485
-0.00847848
-0.00636068
-0.00406598
-0.00175898
0.00614473
0.00777275
0.00778211
0.00594845
0.00264761
-0.00136305
-0.00521784
-0.00822231
-0.010023
-0.010594
-0.0100863
-0.00867111
-0.00646466
-0.00357511
-0.00019369
0.00334986
0.0118024
0.0142244
0.0147946
0.0132029
0.00982815
0.005469
0.00104082
-0.00270636
-0.00534128
-0.00672703
-0.00688516
-0.00586425
-0.00369569
-0.000465678
0.00358299
0.008051
0.0166281
0.0196277
0.020824
0.0197935
0.0168962
0.0128955
0.00863543
0.00478698
0.00173766
-0.000339324
-0.0013508
-0.00117251
0.00034634
0.00325264
0.00734751
0.0122571
0.0186955
0.021752
0.0231369
0.0223686
0.0197518
0.016014
0.0119799
0.00830644
0.00536766
0.00331535
0.00222473
0.00221214
0.00344187
0.0060022
0.00976319
0.0144483
0.0195507
0.0222525
0.0235493
0.0229473
0.0207552
0.0176404
0.0143085
0.011276
0.00879693
0.00694917
0.00578994
0.00546896
0.0062213
0.00821925
0.0114065
0.015619
0.0179084
0.0198893
0.0209268
0.02056
0.0191039
0.0171308
0.0151466
0.0134164
0.0119562
0.010671
0.00954339
0.00875274
0.00865428
0.00957846
0.0116211
0.0148093
0.0134953
0.0144596
0.0150235
0.014785
0.0140722
0.013355
0.0129238
0.0127755
0.0126589
0.0122611
0.0114368
0.0103422
0.00942183