/*--------------------------------*- C++ -*----------------------------------*\
| =========                 |                                                 |
| \\      /  F ield         | OpenFOAM: The Open Source CFD Toolbox           |
|  \\    /   O peration     | Version:  3.0.0                                 |
|   \\  /    A nd           | Web:      www.OpenFOAM.org                      |
|    \\/     M anipulation  |                                                 |
\*---------------------------------------------------------------------------*/
FoamFile
{
    version     2.0;
    format      ascii;
    class       surfaceScalarField;
    location    "0.5";
    object      phi;
}
// * * * * * * * * * * * * * * * * * * * * * * * * * * * * * * * * * * * * * //

dimensions      [0 3 -1 0 0 0 0];

internalField   nonuniform List<scalar> 
11520
(
-9.96859e-05
1.32281e-05
-8.6548e-05
-6.16916e-05
1.2027e-05
-9.76541e-05
-2.15258e-05
2.93556e-05
-9.35929e-05
1.41006e-05
6.30624e-05
-7.31087e-05
3.89322e-05
0.000108386
-3.91187e-05
4.86085e-05
0.000158521
2.19181e-06
4.1747e-05
0.000205533
4.29727e-05
2.0101e-05
0.000241709
7.5996e-05
-1.2113e-05
0.000261048
9.63713e-05
-4.94124e-05
0.000260367
0.000102203
-8.62507e-05
0.000240062
9.4096e-05
-0.000117749
0.000203749
7.4172e-05
-0.000139981
0.000157467
4.52844e-05
-0.000150095
0.000108426
1.07717e-05
-0.000146519
6.38697e-05
-2.53057e-05
3.02761e-05
-5.74561e-05
-9.73284e-05
-2.75308e-06
-8.40064e-05
-6.97999e-05
2.39451e-06
-0.000113101
-3.88877e-05
2.26685e-05
-0.000127182
-9.76416e-06
5.58048e-05
-0.000122636
1.24514e-05
9.72837e-05
-9.97568e-05
2.38527e-05
0.000140796
-6.2501e-05
2.26744e-05
0.00017911
-1.75388e-05
9.63498e-06
0.000205492
2.74024e-05
-1.25503e-05
0.000215241
6.52827e-05
-3.98273e-05
0.000206884
9.09801e-05
-6.81407e-05
0.000182273
0.000101569
-9.37689e-05
0.000146056
9.62517e-05
-0.000113592
0.000104357
7.59623e-05
-0.000125083
6.34865e-05
4.32325e-05
-0.000126441
2.90885e-05
2.26626e-06
5.82846e-06
-4.04542e-05
-9.35404e-05
-2.37997e-05
-7.92155e-05
-7.30245e-05
-1.30629e-05
-0.000122965
-4.74664e-05
8.44531e-06
-0.000152369
-2.11408e-05
3.84787e-05
-0.000161807
1.51468e-06
7.30269e-05
-0.000149441
1.67949e-05
0.000106726
-0.000117417
2.24517e-05
0.000133652
-7.13327e-05
1.80176e-05
0.000148644
-1.89249e-05
4.65992e-06
0.000148722
3.15519e-05
-1.52752e-05
0.000134003
7.27525e-05
-3.88561e-05
0.000107601
9.91549e-05
-6.29641e-05
7.46146e-05
0.000107457
-8.44445e-05
4.0643e-05
9.6612e-05
-0.000100279
1.06219e-05
6.79497e-05
-0.00010789
-1.16779e-05
2.52456e-05
-2.35648e-05
-2.47295e-05
-8.89836e-05
-4.66584e-05
-7.27705e-05
-7.08097e-05
-3.21528e-05
-0.00012562
-4.56882e-05
-1.14396e-05
-0.000165389
-1.76932e-05
1.33991e-05
-0.000185119
8.78689e-06
3.90538e-05
-0.000181422
2.97489e-05
6.13945e-05
-0.000154982
4.21774e-05
7.61669e-05
-0.000110349
4.44009e-05
8.00962e-05
-5.4902e-05
3.62339e-05
7.20117e-05
2.6092e-06
1.89079e-05
5.34344e-05
5.35881e-05
-5.11389e-06
2.81492e-05
9.08115e-05
-3.2403e-05
1.06491e-06
0.00010921
-5.90233e-05
-2.32445e-05
0.000106301
-8.09016e-05
-4.15292e-05
8.23682e-05
-9.4457e-05
-5.18402e-05
4.05666e-05
-5.32159e-05
-1.25509e-05
-8.47303e-05
-6.80539e-05
-6.56686e-05
-6.3898e-05
-5.21912e-05
-0.000120811
-3.43268e-05
-3.41758e-05
-0.00016447
-5.51217e-07
-1.57856e-05
-0.000189263
3.24382e-05
5.05845e-07
-0.000191022
5.98809e-05
1.19014e-05
-0.0001695
7.78103e-05
1.58366e-05
-0.000128312
8.35111e-05
1.08741e-05
-7.42001e-05
7.59423e-05
-2.57844e-06
-1.57469e-05
5.59608e-05
-2.20262e-05
3.81843e-05
2.64638e-05
-4.36718e-05
7.97364e-05
-8.08433e-06
-6.326e-05
0.000103067
-4.22569e-05
-7.76319e-05
0.000105004
-7.06624e-05
-8.51203e-05
8.52188e-05
-8.8728e-05
-8.53761e-05
4.63746e-05
-7.8755e-05
-5.47623e-06
-8.17404e-05
-8.48977e-05
-5.9154e-05
-5.38591e-05
-7.01294e-05
-0.000109577
-1.58736e-05
-5.62089e-05
-0.000150065
2.66162e-05
-4.44254e-05
-0.000173837
6.75379e-05
-3.64233e-05
-0.000176877
0.000101088
-3.38216e-05
-0.00015864
0.000122341
-3.77175e-05
-0.000122131
0.000127873
-4.81013e-05
-7.32926e-05
0.000116384
-6.34747e-05
-1.9909e-05
8.91943e-05
-8.09821e-05
2.98153e-05
5.02849e-05
-9.71817e-05
6.85134e-05
5.81934e-06
-0.000109035
9.07999e-05
-3.70039e-05
-0.000114755
9.36102e-05
-7.1311e-05
-0.000114018
7.6559e-05
-9.17379e-05
-0.000107562
4.19936e-05
-9.64713e-05
-4.68645e-06
-8.05448e-05
-9.46475e-05
-5.44786e-05
-4.24799e-05
-8.30169e-05
-9.39154e-05
6.37036e-06
-7.3807e-05
-0.000124615
5.89838e-05
-6.77236e-05
-0.000141351
0.000107931
-6.56875e-05
-0.000141189
0.00014626
-6.84479e-05
-0.000124028
0.000168254
-7.61263e-05
-9.26426e-05
0.000170185
-8.78434e-05
-5.21593e-05
0.000151104
-0.000101636
-9.09973e-06
0.000113377
-0.000114856
2.98972e-05
6.27069e-05
-0.000124906
5.90577e-05
7.2542e-06
-0.000130023
7.43737e-05
-4.39167e-05
-0.000129662
7.38477e-05
-8.26006e-05
-0.00012438
5.76102e-05
-0.000102915
-0.000115365
2.79247e-05
-0.000103786
-1.05166e-05
-8.1169e-05
-9.56755e-05
-5.25694e-05
-3.1387e-05
-8.85757e-05
-7.63073e-05
2.90882e-05
-8.38754e-05
-9.2009e-05
9.16923e-05
-8.17071e-05
-9.67367e-05
0.000147602
-8.25055e-05
-8.93956e-05
0.000188814
-8.65743e-05
-7.09864e-05
0.00020905
-9.36455e-05
-4.44891e-05
0.000204674
-0.000102634
-1.43026e-05
0.000175554
-0.000111766
1.46536e-05
0.000125597
-0.000119109
3.78973e-05
6.2508e-05
-0.000123225
5.21442e-05
-3.47237e-06
-0.000123577
5.56307e-05
-6.15568e-05
-0.000120512
4.81072e-05
-0.000102524
-0.000114898
3.07223e-05
-0.000120327
-0.000107704
5.90872e-06
-9.95674e-05
-2.23667e-05
-8.32531e-05
-8.76029e-05
-5.37594e-05
-2.18991e-05
-8.57345e-05
-5.92887e-05
4.93371e-05
-8.46748e-05
-5.69953e-05
0.000120466
-8.41043e-05
-4.65935e-05
0.000181448
-8.42968e-05
-2.92918e-05
0.000223435
-8.55988e-05
-7.66682e-06
0.00023986
-8.7942e-05
1.47146e-05
0.000227488
-9.06667e-05
3.4016e-05
0.000187343
-9.27734e-05
4.70007e-05
0.000125108
-9.34708e-05
5.17446e-05
5.05532e-05
-9.26206e-05
4.79022e-05
-2.41724e-05
-9.0748e-05
3.64965e-05
-8.69128e-05
-8.86416e-05
1.9481e-05
-0.000127849
-8.68811e-05
-6.52009e-07
-0.000141179
-8.55918e-05
-2.11048e-05
-8.42984e-05
-3.8669e-05
-8.62665e-05
-7.14472e-05
-5.77043e-05
-1.50549e-05
-7.48917e-05
-4.51393e-05
6.46837e-05
-7.6155e-05
-2.45662e-05
0.000141843
-7.47173e-05
1.70514e-06
0.000205476
-7.10508e-05
3.0091e-05
0.000246185
-6.60033e-05
5.62284e-05
0.000257376
-6.02356e-05
7.57002e-05
0.000236456
-5.40508e-05
8.49977e-05
0.00018577
-4.76833e-05
8.24397e-05
0.000112796
-4.17616e-05
6.86358e-05
2.91651e-05
-3.74609e-05
4.62435e-05
-5.1457e-05
-3.60861e-05
1.91846e-05
-0.000116068
-3.8397e-05
-8.2594e-06
-0.000154751
-4.41379e-05
-3.21208e-05
-0.000162309
-5.20497e-05
-4.91617e-05
-6.01103e-05
-5.69057e-05
-8.97172e-05
-4.96886e-05
-6.35488e-05
-1.16762e-05
-5.79223e-05
-3.57297e-05
7.32232e-05
-5.99699e-05
5.75677e-07
0.000153188
-5.53914e-05
4.0954e-05
0.000216774
-4.51925e-05
7.97599e-05
0.000254366
-3.10984e-05
0.000110926
0.000259609
-1.49141e-05
0.000129063
0.000230719
1.6861e-06
0.000130714
0.000171372
1.69254e-05
0.000115385
9.06244e-05
2.86562e-05
8.58085e-05
1.53133e-06
3.45351e-05
4.72532e-05
-8.13542e-05
3.28214e-05
6.21163e-06
-0.000144815
2.32463e-05
-3.09298e-05
-0.000179358
7.34527e-06
-5.88458e-05
-0.000180666
-1.18844e-05
-7.38484e-05
-3.05915e-05
-7.40793e-05
-9.32096e-05
-2.58032e-05
-7.01554e-05
-1.23358e-05
-3.7742e-05
-3.23741e-05
7.36601e-05
-3.90081e-05
1.45965e-05
0.000152791
-2.95068e-05
6.51341e-05
0.000213581
-1.09997e-05
0.000112094
0.00024656
1.36557e-05
0.000148077
0.00024587
4.12239e-05
0.00016674
0.000210636
6.84125e-05
0.000164381
0.000145724
9.17818e-05
0.000141119
6.13389e-05
0.000107746
0.000101055
-2.87309e-05
0.000113112
5.12645e-05
-0.000109795
0.00010613
6.59739e-08
-0.000169166
8.74025e-05
-4.45464e-05
-0.000198226
6.00389e-05
-7.62782e-05
-0.000193708
2.89334e-05
-9.10373e-05
-2.88576e-07
-8.72701e-05
-9.64799e-05
-3.71252e-06
-7.64561e-05
-1.72633e-05
-1.77139e-05
-3.57158e-05
6.54815e-05
-1.67548e-05
1.51741e-05
0.000140118
-1.23887e-06
7.03574e-05
0.000195593
2.62277e-05
0.000122043
0.000222955
6.15516e-05
0.000162044
0.000217077
9.99623e-05
0.000183216
0.000178013
0.000136468
0.000181328
0.000111528
0.00016605
0.000156407
2.83604e-05
0.00018399
0.000112923
-5.78044e-05
0.000186702
5.86472e-05
-0.000133026
0.000172891
2.71857e-06
-0.000185798
0.000144356
-4.61533e-05
-0.000208755
0.000105847
-8.10892e-05
-0.000199645
6.40172e-05
-9.76845e-05
2.60349e-05
-9.42625e-05
-9.93296e-05
1.3007e-05
-8.16694e-05
-2.61712e-05
-1.00604e-06
-4.55513e-05
4.92517e-05
3.37807e-06
1.90966e-06
0.000116196
2.51988e-05
5.55464e-05
0.00016444
6.10262e-05
0.000107949
0.000185888
0.000105629
0.000150746
0.000176296
0.00015278
0.000176281
0.000136524
0.000195927
0.000179565
7.28051e-05
0.000228759
0.000159792
-4.30229e-06
0.000245906
0.000120686
-8.20592e-05
0.000243965
6.94443e-05
-0.000148061
0.000222587
1.48452e-05
-0.000192528
0.000184944
-3.46172e-05
-0.000209548
0.000137299
-7.19761e-05
-0.000197738
8.76287e-05
-9.2546e-05
4.40829e-05
-9.39706e-05
-0.000101457
2.16551e-05
-8.52858e-05
-3.80747e-05
9.98156e-06
-6.06914e-05
2.68137e-05
1.86225e-05
-2.34613e-05
8.37765e-05
4.61385e-05
2.2795e-05
0.000123805
8.846e-05
7.1841e-05
0.000139905
0.000139453
0.000115877
0.000128718
0.000191717
0.000147146
9.16161e-05
0.000237523
0.000159798
3.4735e-05
0.000269788
0.000151527
-3.22489e-05
0.000283133
0.000124187
-9.8229e-05
0.000274974
8.31053e-05
-0.0001529
0.000246323
3.5515e-05
-0.000188462
0.000201784
-1.10961e-05
-0.000200509
0.000148672
-5.00769e-05
-0.000188263
9.55818e-05
-7.64385e-05
5.08486e-05
-8.66616e-05
-0.000102364
-8.70702e-05
-5.12145e-05
-7.89556e-05
1.19027e-06
-5.7094e-05
4.70437e-05
-2.29261e-05
7.88292e-05
1.91266e-05
9.08407e-05
6.25725e-05
8.05732e-05
9.99785e-05
4.95458e-05
0.000124679
3.14392e-06
0.000132435
-5.05887e-05
0.000122397
-0.000102824
9.70196e-05
-0.00014564
6.1043e-05
-0.000173194
2.02984e-05
-0.000182213
-1.92886e-05
-0.00017209
-5.23083e-05
-7.38635e-05
-9.77873e-05
-2.04232e-05
-9.87987e-05
-7.21591e-05
-3.42055e-05
-0.000122436
-4.40648e-05
-2.27996e-05
-0.000125016
-1.8118e-05
1.26494e-05
-0.000104179
1.27623e-06
6.74169e-05
-6.27574e-05
1.08956e-05
0.000133613
-8.10767e-06
9.15736e-06
0.000201136
4.97767e-05
-3.37849e-06
0.000259107
0.000100763
-2.43064e-05
0.00029793
0.000136988
-5.00283e-05
0.000311161
0.000154116
-7.65861e-05
0.000296873
0.000151265
-0.000100284
0.000257859
0.000130109
-0.000118018
0.00020084
9.39265e-05
-0.000127436
0.000134976
4.71442e-05
-0.000127098
7.03264e-05
-4.56969e-06
1.67768e-05
-5.34425e-05
-7.97066e-05
-3.75174e-05
-7.63942e-05
-6.41826e-05
-4.48886e-05
-0.000117941
-4.51954e-05
-3.064e-05
-0.000138329
-2.57584e-05
3.85416e-06
-0.000133277
-8.98569e-06
5.41046e-05
-0.000103217
2.36806e-06
0.000112936
-5.31785e-05
6.43986e-06
0.000171243
8.28295e-06
2.60806e-06
0.000219406
7.09354e-05
-8.32175e-06
0.000249172
0.00012497
-2.44032e-05
0.000255513
0.00016271
-4.30369e-05
0.000237664
0.000179411
-6.14984e-05
0.000199169
0.000173403
-7.72615e-05
0.000146758
0.000145807
-8.81792e-05
8.88456e-05
0.00010028
-9.25732e-05
3.40789e-05
4.29078e-05
-9.45035e-06
-1.76118e-05
-6.22418e-05
-6.14106e-05
-5.74893e-05
-5.3282e-05
-6.30954e-05
-0.000113718
-3.93113e-05
-4.77067e-05
-0.000149273
-2.25704e-05
-1.66685e-05
-0.000158026
-5.55087e-06
2.6101e-05
-0.000138457
9.31001e-06
7.45135e-05
-9.38553e-05
1.98519e-05
0.000120968
-3.16004e-05
2.4475e-05
0.000157582
3.82754e-05
2.23987e-05
0.000177832
0.000104969
1.38566e-05
0.000178163
0.000158644
5.69578e-08
0.000158854
0.000191764
-1.69299e-05
0.000123755
0.000199859
-3.45849e-05
7.91406e-05
0.000181884
-5.01401e-05
3.21338e-05
0.000140217
-6.09563e-05
-1.04678e-05
8.06086e-05
-4.25987e-05
1.18714e-05
-4.81344e-05
-8.83071e-05
-4.43342e-05
-4.1174e-05
-8.61041e-05
-0.000109572
-2.73336e-05
-7.15411e-05
-0.000155395
-8.82859e-06
-4.59262e-05
-0.000174367
1.18023e-05
-1.24256e-05
-0.000163526
3.18859e-05
2.42233e-05
-0.000124776
4.87254e-05
5.81413e-05
-6.43617e-05
5.97756e-05
8.33946e-05
8.23533e-06
6.30297e-05
9.52756e-05
8.1911e-05
5.7536e-05
9.15959e-05
0.000145649
4.3782e-05
7.33144e-05
0.000190105
2.38152e-05
4.4086e-05
0.000208846
9.15269e-07
9.22747e-06
0.000199115
-2.09524e-05
-2.57865e-05
0.000162156
-3.79989e-05
-5.60121e-05
0.000103157
-7.73754e-05
3.08215e-05
-3.98516e-05
-0.000114215
-3.8744e-05
-3.00793e-05
-0.000110552
-0.000106135
-1.15817e-05
-9.87138e-05
-0.000155794
1.27932e-05
-7.96632e-05
-0.0001799
3.97898e-05
-5.57021e-05
-0.000174742
6.60124e-05
-3.02483e-05
-0.000141251
8.79709e-05
-7.44461e-06
-8.46842e-05
0.000102319
8.56756e-06
-1.37207e-05
0.000106328
1.46574e-05
6.08618e-05
9.86666e-05
9.64594e-06
0.000127796
7.99374e-05
-5.22079e-06
0.000177001
5.30976e-05
-2.71511e-05
0.000201144
2.27011e-05
-5.19305e-05
0.000196559
-5.95261e-06
-7.57668e-05
0.000163853
-2.7881e-05
-9.54317e-05
0.000107723
-0.000108327
3.64294e-05
-3.88069e-05
-0.000135332
-4.16494e-05
-2.19973e-05
-0.000132711
-0.000104228
5.02481e-06
-0.000125029
-0.000150773
3.82455e-05
-0.000112675
-0.000174046
7.32057e-05
-9.70797e-05
-0.000170459
0.000105402
-8.04931e-05
-0.000140592
0.000130477
-6.56855e-05
-8.8965e-05
0.000144533
-5.54119e-05
-2.33691e-05
0.000144725
-5.16987e-05
4.62549e-05
0.000130132
-5.52223e-05
0.000109277
0.000102478
-6.5095e-05
0.000156041
6.6038e-05
-7.92771e-05
0.000179366
2.71097e-05
-9.51657e-05
0.000175774
-7.59575e-06
-0.000110332
0.00014583
-3.22221e-05
-0.000122763
9.3951e-05
-0.000130707
2.78911e-05
-4.50316e-05
-0.000148494
-5.28924e-05
-1.81645e-05
-0.00014902
-0.000104474
1.97902e-05
-0.00014621
-0.000141388
6.33301e-05
-0.000139666
-0.000157901
0.000106514
-0.00013004
-0.000151413
0.000143581
-0.000118767
-0.000122822
0.000169347
-0.000107766
-7.63282e-05
0.000179687
-9.90276e-05
-1.88835e-05
0.000172222
-9.41029e-05
4.07699e-05
0.0001472
-9.37144e-05
9.34116e-05
0.000107987
-9.76644e-05
0.000130839
6.08396e-05
-0.000105023
0.000147267
1.37428e-05
-0.000114477
0.000140255
-2.53556e-05
-0.000124615
0.000110992
-5.01166e-05
-0.000134022
6.3945e-05
-0.000141113
6.37958e-06
-5.72792e-05
-0.000151614
-7.10829e-05
-1.88826e-05
-0.000156743
-0.00010698
3.07339e-05
-0.000158711
-0.000129124
8.44928e-05
-0.000156224
-0.000133938
0.000134935
-0.000149363
-0.000120514
0.000175082
-0.000139204
-9.06959e-05
0.000199092
-0.000127443
-4.88219e-05
0.000202949
-0.000116003
-1.18454e-06
0.000185232
-0.000106631
4.4899e-05
0.00014787
-0.000100627
8.21718e-05
9.63252e-05
-9.87392e-05
0.000104764
3.89043e-05
-0.000101155
0.000109184
-1.48425e-05
-0.000107499
9.48767e-05
-5.60982e-05
-0.000116839
6.42021e-05
-7.84686e-05
-0.000127701
2.19582e-05
-0.000137996
-2.50393e-05
-7.34059e-05
-0.000144068
-9.36188e-05
-2.36551e-05
-0.000154534
-0.000111249
3.67039e-05
-0.000160443
-0.000115622
9.91643e-05
-0.000159672
-0.000105606
0.000154926
-0.000152032
-8.2385e-05
0.000196003
-0.000138737
-4.921e-05
0.000216149
-0.000121896
-1.09791e-05
0.000211761
-0.000104043
2.6445e-05
0.000182719
-8.77401e-05
5.71513e-05
0.000132913
-7.52937e-05
7.62181e-05
6.99944e-05
-6.8546e-05
8.06272e-05
4.1569e-06
-6.86077e-05
6.97866e-05
-5.38378e-05
-7.55784e-05
4.5555e-05
-9.48001e-05
-8.83878e-05
1.18586e-05
-0.000112697
-0.000104881
-2.60281e-05
-0.000121907
-6.1736e-05
-9.08617e-05
-0.00012688
-0.000116974
-3.14997e-05
-0.000142743
-0.000116292
3.72497e-05
-0.000151196
-0.000102563
0.000105767
-0.000149558
-7.69259e-05
0.000164264
-0.000137729
-4.27087e-05
0.000204076
-0.000117532
-4.78958e-06
0.00021885
-9.20412e-05
3.10715e-05
0.000205648
-6.49881e-05
5.91448e-05
0.000165809
-4.02528e-05
7.47919e-05
0.000105185
-2.14507e-05
7.54164e-05
3.3399e-05
-1.15115e-05
6.09948e-05
-3.78916e-05
-1.21543e-05
3.40218e-05
-9.72516e-05
-2.3416e-05
-1.06182e-06
-0.000135585
-4.34989e-05
-3.86761e-05
-0.000147606
-6.9036e-05
-7.29855e-05
-9.53606e-05
-9.81151e-05
-0.000107111
-0.000102664
-0.000137289
-4.12122e-05
-0.000123369
-0.000121003
3.24511e-05
-0.000132654
-9.16297e-05
0.000103605
-0.000127693
-5.20651e-05
0.000161944
-0.000108847
-7.46159e-06
0.000198528
-7.8912e-05
3.57224e-05
0.0002072
-4.2351e-05
7.07003e-05
0.000185851
-4.51784e-06
9.15927e-05
0.000137246
2.90485e-05
9.46886e-05
6.89272e-05
5.32885e-05
7.93876e-05
-8.00843e-06
6.43236e-05
4.83538e-05
-8.10715e-05
6.02319e-05
6.88853e-06
-0.000138753
4.15351e-05
-3.81989e-05
-0.000172532
1.12895e-05
-7.98561e-05
-0.000178137
-2.55156e-05
-0.000111764
-6.24467e-05
-0.000128495
-0.000119946
-7.52228e-05
-0.000151129
-5.15451e-05
-9.96438e-05
-0.0001245
2.28287e-05
-0.000107999
-8.44322e-05
9.28269e-05
-9.77377e-05
-3.4819e-05
0.000148136
-7.00127e-05
1.79509e-05
0.00017998
-2.88114e-05
6.61322e-05
0.000182678
1.97851e-05
0.000101905
0.000155004
6.85828e-05
0.000118954
0.000100913
0.000110249
0.00011401
2.91342e-05
0.000138315
8.78067e-05
-4.84807e-05
0.000148227
4.49757e-05
-0.000119351
0.000138256
-7.08764e-06
-0.000172518
0.000109975
-5.98189e-05
-0.000200454
6.80208e-05
-0.000105073
-0.000200013
1.92124e-05
-0.000136206
-2.8178e-05
-0.000148073
-0.000127695
-4.89162e-05
-0.000156227
-6.12919e-05
-7.53959e-05
-0.000126367
9.35123e-06
-8.11944e-05
-8.22736e-05
7.4492e-05
-6.45066e-05
-2.80144e-05
0.000124252
-2.72822e-05
2.95521e-05
0.000150477
2.51563e-05
8.18517e-05
0.000148178
8.51052e-05
0.000120195
0.000116934
0.000143563
0.000137592
6.1486e-05
0.000191504
0.000130599
-8.94925e-06
0.00022129
0.000100383
-8.25797e-05
0.000228032
5.2473e-05
-0.000147505
0.000210598
-4.69793e-06
-0.000193898
0.000171899
-6.16849e-05
-0.000215478
0.000118315
-0.000109803
-0.000210216
5.84814e-05
-0.000142216
2.25843e-06
-0.000153755
-0.000129328
-2.7952e-05
-0.000151919
-6.92495e-05
-5.43969e-05
-0.000126629
-6.27315e-06
-5.6424e-05
-8.58371e-05
5.07293e-05
-3.30355e-05
-3.29273e-05
9.31154e-05
1.28436e-05
2.54367e-05
0.000113622
7.48133e-05
8.05823e-05
0.000108058
0.000143785
0.000123165
7.65685e-05
0.000209211
0.000145407
2.41283e-05
0.000260703
0.000143034
-4.03154e-05
0.000289833
0.000116586
-0.000105824
0.000291778
7.12063e-05
-0.000161824
0.000266323
1.51202e-05
-0.000200039
0.000217866
-4.23693e-05
-0.000215569
0.000154461
-9.25921e-05
-0.00020732
8.62593e-05
-0.000128573
2.42817e-05
-0.000144701
-0.000124503
-1.56088e-05
-0.000139176
-7.43093e-05
-3.97151e-05
-0.000125566
-2.21598e-05
-3.72205e-05
-9.48142e-05
2.45686e-05
-7.95392e-06
-4.9015e-05
5.86735e-05
4.43999e-05
6.17983e-06
7.41354e-05
0.000112634
6.25948e-05
6.75428e-05
0.000186713
0.00011081
3.92727e-05
0.000255094
0.000142185
-6.1134e-06
0.000306604
0.000151012
-6.06808e-05
0.000332561
0.000136026
-0.000114995
0.000328651
0.000100546
-0.000160271
0.000295827
5.12875e-05
-0.000189966
0.000239934
-3.46999e-06
-0.000200549
0.0001703
-5.53319e-05
-0.000191581
9.79854e-05
-9.71326e-05
3.43919e-05
-0.000122303
-0.000113499
-0.000120325
-7.53593e-05
-0.000123452
-3.574e-05
-0.000107806
-3.94317e-07
-7.37518e-05
2.51545e-05
-2.51948e-05
3.6417e-05
3.10108e-05
3.09771e-05
8.59299e-05
9.26448e-06
0.000130148
-2.51744e-05
0.000155859
-6.63461e-05
0.000158777
-0.000107186
0.000139028
-0.000141164
0.00010075
-0.000163444
5.07651e-05
-0.000171354
-3.01013e-06
-0.000164497
-5.25798e-05
-9.02508e-05
-8.28925e-05
-5.64711e-05
-9.92829e-05
-7.47872e-05
-8.27074e-05
-0.000132343
-6.49568e-05
-7.93292e-05
-0.000140811
-5.50628e-05
-4.6386e-05
-0.000121704
-4.66504e-05
1.18256e-05
-7.76067e-05
-4.10448e-05
8.70819e-05
-1.62312e-05
-3.91269e-05
0.000168063
5.14018e-05
-4.12172e-05
0.000241997
0.000113633
-4.69731e-05
0.000296843
0.000160744
-5.54476e-05
0.000323591
0.000186604
-6.52932e-05
0.000318073
0.000189007
-7.50184e-05
0.000281656
0.000168999
-8.32026e-05
0.000220702
0.00012989
-8.86456e-05
0.00014512
7.66293e-05
-9.0412e-05
6.66251e-05
1.57609e-05
-2.68541e-06
-4.40309e-05
-4.95339e-05
-6.94792e-05
-5.87141e-05
-5.12697e-05
-8.93525e-05
-0.000109561
-5.02269e-05
-8.32564e-05
-0.000135444
-4.65304e-05
-5.16384e-05
-0.000131721
-4.05635e-05
1.47554e-06
-9.8834e-05
-3.31056e-05
6.87307e-05
-4.22852e-05
-2.53782e-05
0.000140128
2.84908e-05
-1.88116e-05
0.000204339
0.000102027
-1.46599e-05
0.0002507
0.000166961
-1.36148e-05
0.000271345
0.000213912
-1.5698e-05
0.000262938
0.000236629
-2.03917e-05
0.000227315
0.000232438
-2.68397e-05
0.000170838
0.00020212
-3.40298e-05
0.000102844
0.000149747
-4.07542e-05
3.38635e-05
8.23938e-05
-2.59885e-05
9.79909e-06
-1.87161e-05
-8.87312e-05
-2.64626e-05
-2.67508e-05
-0.000102949
-9.20875e-05
-3.03301e-05
-9.58412e-05
-0.000133109
-2.8951e-05
-6.80149e-05
-0.000143028
-2.25304e-05
-2.29421e-05
-0.00012046
-1.16636e-05
3.32934e-05
-6.92847e-05
2.21334e-06
9.23972e-05
2.25296e-06
1.68262e-05
0.000144967
8.30353e-05
2.95737e-05
0.000182058
0.000160863
3.81467e-05
0.000197145
0.000224271
4.10828e-05
0.000187676
0.00026409
3.80371e-05
0.000155643
0.000274577
2.97649e-05
0.000106916
0.000254078
1.78605e-05
4.96823e-05
0.000205283
4.6656e-06
-7.29761e-06
0.000134964
-5.58034e-05
5.32934e-05
4.76483e-06
-0.000111156
-6.50261e-06
-5.07239e-06
-0.000121471
-8.12119e-05
-8.54728e-06
-0.000115209
-0.000132553
-5.14753e-06
-9.30725e-05
-0.000152709
4.97386e-06
-5.77056e-05
-0.000138884
2.0905e-05
-1.37842e-05
-9.36295e-05
4.06786e-05
3.23102e-05
-2.40482e-05
6.13096e-05
7.31856e-05
5.93853e-05
7.91979e-05
0.000101752
0.000144329
9.09608e-05
0.000112808
0.000218223
9.43269e-05
0.000104396
0.000270019
8.87545e-05
7.82877e-05
0.000291773
7.55153e-05
3.93834e-05
0.000279887
5.72086e-05
-5.65205e-06
0.000235797
3.7297e-05
-5.00109e-05
0.000165782
-8.75566e-05
7.96997e-05
1.7014e-05
-0.000133315
-1.55422e-06
9.96948e-06
-0.000142102
-7.84601e-05
1.13215e-05
-0.000138571
-0.000133784
2.07297e-05
-0.000123172
-0.000159209
3.72185e-05
-9.7691e-05
-0.000151246
5.90713e-05
-6.53822e-05
-0.000111506
8.36203e-05
-3.08821e-05
-4.6041e-05
0.00010725
2.70399e-07
3.55644e-05
0.000125857
2.25931e-05
0.000121414
0.000135746
3.19385e-05
0.000198776
0.000134699
2.66095e-05
0.000255834
0.000122764
7.82708e-06
0.000283539
0.000102286
-2.08089e-05
0.000277229
7.7229e-05
-5.43028e-05
0.000237561
5.21405e-05
-8.75361e-05
0.000170336
-0.000116015
8.49842e-05
1.61352e-05
-0.000151878
-1.24425e-05
1.60423e-05
-0.000161621
-8.46158e-05
2.59493e-05
-0.00016227
-0.000136981
4.42481e-05
-0.000153709
-0.000161808
6.86442e-05
-0.000136826
-0.00015572
9.62814e-05
-0.000113681
-0.00011993
0.000123686
-8.75502e-05
-5.97016e-05
0.000146855
-6.26145e-05
1.63465e-05
0.000161725
-4.32358e-05
9.7214e-05
0.000165072
-3.29604e-05
0.000170829
0.000155587
-3.36001e-05
0.000225735
0.000134574
-4.47998e-05
0.000253006
0.000105837
-6.42701e-05
0.000247972
7.46654e-05
-8.85529e-05
0.000211252
4.65695e-05
-0.000113853
0.000148364
-0.000136609
6.82752e-05
2.53091e-06
-0.000164023
-3.77998e-05
1.23577e-05
-0.000176833
-9.90893e-05
3.31561e-05
-0.000182456
-0.000142
6.17484e-05
-0.000179849
-0.000160353
9.42773e-05
-0.00016906
-0.000151708
0.000126615
-0.000151341
-0.000117499
0.00015453
-0.000129197
-6.25972e-05
0.000173914
-0.000106125
5.2429e-06
0.000181265
-8.60222e-05
7.62049e-05
0.000174526
-7.23721e-05
0.000139563
0.000153966
-6.74622e-05
0.000185262
0.000122627
-7.19048e-05
0.00020571
8.59062e-05
-8.46297e-05
0.000197336
5.02646e-05
-0.000103304
0.000161385
2.17837e-05
-0.00012489
0.000103463
-0.000146072
3.21478e-05
-2.12943e-05
-0.000167861
-7.41306e-05
-8.46492e-08
-0.000185213
-0.00011981
3.22573e-05
-0.000195794
-0.000148128
7.09414e-05
-0.000197383
-0.000155088
0.000110558
-0.000189355
-0.000139837
0.000145785
-0.000172646
-0.000104618
0.000171808
-0.000149672
-5.43696e-05
0.000184705
-0.000123998
3.79312e-06
0.000181968
-9.97553e-05
6.13688e-05
0.000163194
-8.08968e-05
0.00010947
0.000130658
-7.04551e-05
0.000140293
8.93401e-05
-6.99795e-05
0.000148576
4.61283e-05
-7.93015e-05
0.00013276
8.30441e-06
-9.66548e-05
9.53763e-05
-1.79131e-05
-0.000119139
4.24249e-05
-0.000143029
-1.78163e-05
-5.13511e-05
-0.000162761
-0.000116126
-1.89748e-05
-0.000185395
-0.000143443
2.38982e-05
-0.000200132
-0.000154157
7.10076e-05
-0.000203508
-0.00014659
0.000115641
-0.000194536
-0.000121836
0.000151541
-0.000174367
-8.33895e-05
0.000173567
-0.000145997
-3.66804e-05
0.000178262
-0.000113779
1.15308e-05
0.000164388
-8.27254e-05
5.39952e-05
0.000133444
-5.77018e-05
8.39674e-05
8.98172e-05
-4.26355e-05
9.64341e-05
4.03211e-05
-3.98271e-05
8.91302e-05
-7.00216e-06
-4.95436e-05
6.31204e-05
-4.43993e-05
-7.00272e-05
2.26282e-05
-6.6053e-05
-9.77951e-05
-2.57185e-05
-0.000128172
-7.38871e-05
-8.30532e-05
-0.00014949
-0.000157283
-4.12498e-05
-0.000177464
-0.000166027
9.66676e-06
-0.000194882
-0.000158729
6.23841e-05
-0.000197338
-0.000135813
0.000109302
-0.000183834
-0.000100329
0.000143609
-0.000156246
-5.72166e-05
0.000160146
-0.000118738
-1.27252e-05
0.000156121
-7.7037e-05
2.64279e-05
0.000131682
-3.75527e-05
5.40586e-05
9.01915e-05
-6.37146e-06
6.55765e-05
3.79483e-05
1.16657e-05
5.89367e-05
-1.67716e-05
1.38194e-05
3.50952e-05
-6.52043e-05
-9.93215e-08
-2.07336e-06
-9.97586e-05
-2.76841e-05
-4.64648e-05
-0.000115287
-6.43954e-05
-9.08567e-05
-0.00010403
-0.000127453
-0.000111813
-0.000130114
-0.000190999
-6.36977e-05
-0.000162866
-0.000183716
-8.31182e-06
-0.000181108
-0.00016079
4.64686e-05
-0.000180009
-0.000124175
9.26884e-05
-0.000158992
-7.85235e-05
0.000123427
-0.000121044
-3.02185e-05
0.000133813
-7.19041e-05
1.34804e-05
0.000121821
-1.91078e-05
4.56554e-05
8.89056e-05
2.92304e-05
6.08209e-05
3.99879e-05
6.56643e-05
5.62695e-05
-1.72034e-05
8.4571e-05
3.26398e-05
-7.34947e-05
8.3117e-05
-6.1178e-06
-0.000120014
6.17007e-05
-5.34792e-05
-0.000149684
2.39188e-05
-0.00010179
-0.000158422
-2.4158e-05
-0.000143263
-7.44557e-05
-0.000170344
-0.000133642
-0.000107664
-0.000211751
-8.32707e-05
-0.000144063
-0.000193675
-2.7638e-05
-0.000161187
-0.000159985
2.5379e-05
-0.000154413
-0.000113431
6.80645e-05
-0.000123957
-5.97701e-05
9.38332e-05
-7.41319e-05
-6.54832e-06
9.83176e-05
-1.24604e-05
3.79773e-05
8.02944e-05
5.15682e-05
6.63016e-05
4.22181e-05
0.000108014
7.33021e-05
-9.9392e-06
0.000148095
5.75331e-05
-6.77004e-05
0.000165633
2.16745e-05
-0.000121725
0.00015808
-2.80263e-05
-0.000163562
0.000126889
-8.31697e-05
-0.000187078
7.72005e-05
-0.000134839
-0.000189373
1.6887e-05
-0.000174955
-4.39437e-05
-0.000196144
-0.000145543
-8.56303e-05
-0.000216202
-9.73853e-05
-0.000124028
-0.000194559
-4.58448e-05
-0.000138314
-0.000156687
1.79879e-06
-0.000124636
-0.000105435
3.8618e-05
-8.42115e-05
-4.70122e-05
5.8739e-05
-2.26703e-05
1.02692e-05
5.84839e-05
5.06885e-05
5.7301e-05
3.72768e-05
0.000124556
8.58115e-05
-1.85492e-06
0.000187294
9.04512e-05
-5.25793e-05
0.000228989
7.02137e-05
-0.000106448
0.000243183
2.87922e-05
-0.000154663
0.000227946
-2.63497e-05
-0.000189731
0.000186075
-8.58025e-05
-0.000206702
0.000124441
-0.000140074
-0.000203866
5.27883e-05
-0.000180954
-1.69858e-05
-0.000201095
-0.000145777
-6.74133e-05
-0.000203803
-0.000104085
-0.000105766
-0.000186584
-6.05103e-05
-0.000115971
-0.000151756
-2.1157e-05
-9.52636e-05
-0.000101653
8.1981e-06
-4.58664e-05
-4.22635e-05
2.28778e-05
2.53654e-05
1.78668e-05
1.97906e-05
0.000107908
6.90333e-05
-1.23352e-06
0.000188879
0.000102109
-3.71531e-05
0.000255316
0.000110931
-8.20018e-05
0.000296482
9.39417e-05
-0.000128108
0.000305912
5.45839e-05
-0.000167794
0.000282528
2.24765e-07
-0.000194927
0.000230605
-5.97659e-05
-0.000205853
0.000158733
-0.000115958
-0.00019986
7.83167e-05
-0.000160094
2.4565e-06
-0.000184559
-0.000134072
-5.58065e-05
-0.000176828
-0.000102218
-9.18822e-05
-0.000171303
-6.94271e-05
-9.73765e-05
-0.0001462
-4.02443e-05
-7.0633e-05
-0.000102828
-1.8892e-05
-1.47379e-05
-4.6301e-05
-8.95648e-06
6.27223e-05
1.53024e-05
-1.26522e-05
0.000150363
7.20503e-05
-3.01239e-05
0.000234489
0.000114047
-5.89078e-05
0.000301362
0.00013375
-9.41258e-05
0.000339855
0.000127872
-0.000129535
0.000343773
9.80942e-05
-0.000159057
0.00031303
5.03074e-05
-0.000178125
0.000253332
-7.12814e-06
-0.000184337
0.000174709
-6.50964e-05
-0.000177601
8.96188e-05
-0.00011517
1.17832e-05
-0.000149115
-0.000111719
-0.000139787
-9.14748e-05
-0.000151069
-7.06568e-05
-0.000140706
-5.23787e-05
-0.000108646
-3.93281e-05
-5.83719e-05
-3.35621e-05
3.40307e-06
-3.62139e-05
6.7339e-05
-4.72021e-05
0.000122848
-6.50168e-05
0.000160193
-8.67856e-05
0.000172795
-0.000108795
0.000158841
-0.000127336
0.000121501
-0.000139507
6.77851e-05
-0.000143681
6.7116e-06
-0.000139527
-5.23046e-05
-9.99106e-05
-5.65371e-05
-8.87342e-05
-8.77587e-05
-6.90634e-05
-0.000125196
-0.000125701
-8.13973e-05
-0.000130639
-0.000138547
-9.16182e-05
-0.000104174
-0.000123114
-9.78951e-05
-4.93546e-05
-8.15182e-05
-9.90766e-05
2.60114e-05
-2.10227e-05
-9.50513e-05
0.000110724
4.76372e-05
-8.67444e-05
0.000191713
0.000112777
-7.57814e-05
0.000256126
0.000164202
-6.40296e-05
0.000293595
0.000194945
-5.32017e-05
0.000298186
0.000201872
-4.46581e-05
0.000269469
0.000185301
-3.93625e-05
0.000212384
0.00014815
-3.79097e-05
0.000136179
9.52363e-05
-4.03283e-05
5.27024e-05
3.30772e-05
-2.53775e-05
-3.01129e-05
-1.01768e-05
-9.32436e-05
-3.35544e-05
-3.23744e-05
-0.000123394
-8.91655e-05
-5.31779e-05
-0.000126197
-0.000119083
-6.93077e-05
-0.000101316
-0.00011845
-7.7945e-05
-5.2035e-05
-8.75162e-05
-7.74584e-05
1.48478e-05
-3.16083e-05
-6.79314e-05
8.965e-05
4.00378e-05
-5.11806e-05
0.000160934
0.000116055
-3.02617e-05
0.000217255
0.000184914
-8.68454e-06
0.000249243
0.000236687
1.03119e-05
0.000251533
0.000264286
2.42197e-05
0.000223897
0.000264102
3.13259e-05
0.000171217
0.000236181
3.0817e-05
0.00010227
0.000184165
2.30179e-05
2.78568e-05
0.000115038
-4.13034e-05
3.82693e-05
3.20938e-05
-0.000101431
9.39155e-06
3.74367e-06
-0.00012599
-6.1141e-05
-2.1446e-05
-0.000127856
-0.00010626
-3.96237e-05
-0.00010703
-0.000119136
-4.76648e-05
-6.61901e-05
-9.82635e-05
-4.3884e-05
-1.07403e-05
-4.74774e-05
-2.86199e-05
5.15345e-05
2.51044e-05
-4.33166e-06
0.000111185
0.000108495
2.48355e-05
0.000158518
0.000190433
5.39439e-05
0.000185376
0.00025903
7.832e-05
0.000186981
0.000304266
9.4381e-05
0.000163098
0.000319314
0.000100093
0.00011807
0.000301514
9.50192e-05
5.96551e-05
0.000252971