/*--------------------------------*- C++ -*----------------------------------*\
| =========                 |                                                 |
| \\      /  F ield         | OpenFOAM: The Open Source CFD Toolbox           |
|  \\    /   O peration     | Version:  3.0.0                                 |
|   \\  /    A nd           | Web:      www.OpenFOAM.org                      |
|    \\/     M anipulation  |                                                 |
\*---------------------------------------------------------------------------*/
FoamFile
{
    version     2.0;
    format      ascii;
    class       volVectorField;
    location    "0.5";
    object      U;
}
// * * * * * * * * * * * * * * * * * * * * * * * * * * * * * * * * * * * * * //

dimensions      [0 1 -1 0 0 0 0];

internalField   nonuniform List<vector> 
4096
(
(-0.030313 0.00479906 -0.020056)
(-0.0207993 0.00368059 -0.0211602)
(-0.010539 0.0076303 -0.0192399)
(-0.000475868 0.0161095 -0.0141338)
(0.00759136 0.0278467 -0.00659219)
(0.0121982 0.0410367 0.00196568)
(0.012562 0.053612 0.00986272)
(0.00872909 0.0635924 0.015678)
(0.00151336 0.0694131 0.0185949)
(-0.00776248 0.0701664 0.0184761)
(-0.0176088 0.0657693 0.0156933)
(-0.0266431 0.0569479 0.0108531)
(-0.0337142 0.0451074 0.00461868)
(-0.037969 0.0320737 -0.00232639)
(-0.0389181 0.0198071 -0.00921351)
(-0.0357872 0.0101569 -0.0150107)
(-0.0282619 0.00175684 -0.0220105)
(-0.0215777 0.00226781 -0.0277667)
(-0.0139173 0.00718967 -0.030568)
(-0.0059502 0.015957 -0.0295578)
(0.000891892 0.0273715 -0.0247846)
(0.00537159 0.0397247 -0.017119)
(0.00672035 0.0510183 -0.00801231)
(0.0047943 0.0593267 0.000915128)
(6.65582e-05 0.0632082 0.00827203)
(-0.0065361 0.0620265 0.0131129)
(-0.0139168 0.0560781 0.0149914)
(-0.0210447 0.0464712 0.0138263)
(-0.0270289 0.0348346 0.00981202)
(-0.0311591 0.0229695 0.00340114)
(-0.0329389 0.0125759 -0.00463948)
(-0.0315187 0.00510679 -0.0130462)
(-0.0262567 -0.00318718 -0.0226002)
(-0.0216083 -0.00107933 -0.0321601)
(-0.0155646 0.00439361 -0.0389841)
(-0.00867946 0.012648 -0.0416403)
(-0.00216456 0.0225749 -0.0395822)
(0.00287773 0.0326515 -0.0331982)
(0.00565125 0.0411561 -0.0236866)
(0.00579204 0.0465291 -0.0127275)
(0.00339938 0.0477659 -0.00207927)
(-0.00104471 0.0446959 0.00673854)
(-0.00682832 0.037982 0.0126174)
(-0.0131492 0.0289131 0.01488)
(-0.0191798 0.0190308 0.0132561)
(-0.0241277 0.00980312 0.00790312)
(-0.0273081 0.00244657 -0.000530808)
(-0.0276936 -0.00208676 -0.0107087)
(-0.0246484 -0.0090156 -0.0217604)
(-0.0208872 -0.00566344 -0.0336999)
(-0.0151911 -0.000137637 -0.0432608)
(-0.00814125 0.00699757 -0.0486363)
(-0.000906325 0.0147961 -0.0488432)
(0.00539273 0.0220265 -0.0438703)
(0.0098278 0.0273684 -0.0346511)
(0.0117733 0.0297301 -0.0228088)
(0.0109776 0.0285825 -0.0102757)
(0.00757765 0.0241564 0.00107814)
(0.00206914 0.0173703 0.00970841)
(-0.00476486 0.00954081 0.0145177)
(-0.0119384 0.00199945 0.0148958)
(-0.0183946 -0.00419384 0.0107505)
(-0.0231601 -0.00832548 0.00257536)
(-0.0250236 -0.0099358 -0.00833455)
(-0.023779 -0.0148695 -0.0196561)
(-0.0196223 -0.0108488 -0.0322052)
(-0.0129689 -0.00580217 -0.042789)
(-0.00455965 -0.000233482 -0.0494909)
(0.00430479 0.00511686 -0.0511153)
(0.0123328 0.00936087 -0.0473957)
(0.0183744 0.0116344 -0.0390282)
(0.0215361 0.011344 -0.0274862)
(0.0213015 0.00841039 -0.014677)
(0.0176299 0.00337068 -0.0025619)
(0.0110171 -0.00275395 0.00715637)
(0.00245596 -0.008781 0.0131994)
(-0.00671746 -0.0137033 0.0147986)
(-0.015063 -0.0168925 0.0117143)
(-0.0212863 -0.0180897 0.00430941)
(-0.0240377 -0.0172458 -0.00625667)
(-0.0238333 -0.019925 -0.0166705)
(-0.0181088 -0.015886 -0.0279925)
(-0.00939782 -0.0117607 -0.0377228)
(0.00128579 -0.00794544 -0.0441208)
(0.0123656 -0.00496027 -0.046046)
(0.0222704 -0.00335545 -0.0431666)
(0.0295849 -0.0035715 -0.0360198)
(0.0331883 -0.00576226 -0.0258698)
(0.0324248 -0.00965178 -0.0144114)
(0.0272698 -0.0145286 -0.00342262)
(0.018423 -0.0194215 0.00553588)
(0.00725785 -0.0234014 0.0112921)
(-0.00441084 -0.025837 0.0131112)
(-0.0146979 -0.026495 0.0107348)
(-0.0220095 -0.025465 0.00443571)
(-0.0249288 -0.0229702 -0.00480326)
(-0.0247982 -0.023441 -0.0133261)
(-0.0166169 -0.0199744 -0.0217877)
(-0.00511525 -0.0170286 -0.0289222)
(0.00835315 -0.0148577 -0.0334278)
(0.021851 -0.0137737 -0.0344764)
(0.0334737 -0.014051 -0.0318747)
(0.0415441 -0.0158086 -0.0261063)
(0.0447878 -0.018892 -0.0182058)
(0.0425451 -0.0228189 -0.00950783)
(0.0349715 -0.0268534 -0.00135987)
(0.0231371 -0.0302036 0.00510588)
(0.00892044 -0.0322552 0.00907368)
(-0.00533635 -0.0327295 0.0100588)
(-0.0173155 -0.0316917 0.00791499)
(-0.0251837 -0.0294315 0.00288105)
(-0.0275412 -0.0262807 -0.0042596)
(-0.0264803 -0.0248682 -0.0101704)
(-0.0153389 -0.0224165 -0.0145667)
(-0.000751239 -0.0206915 -0.0177676)
(0.0155814 -0.0197924 -0.0191055)
(0.0313392 -0.0198706 -0.0182665)
(0.0442879 -0.0210267 -0.015367)
(0.05253 -0.0232008 -0.0109452)
(0.0547192 -0.0260981 -0.00582098)
(0.0503075 -0.0292013 -0.0008777)
(0.0397613 -0.0318948 0.0031437)
(0.0246291 -0.0336512 0.00575495)
(0.00734368 -0.0341849 0.00671043)
(-0.00923893 -0.0334986 0.00594646)
(-0.0224337 -0.0318154 0.00354936)
(-0.0302628 -0.0294551 -0.000216855)
(-0.0314229 -0.0266907 -0.00478488)
(-0.0285703 -0.0239422 -0.00767099)
(-0.014389 -0.0227696 -0.00739072)
(0.00314166 -0.0221109 -0.0059272)
(0.0220249 -0.0219287 -0.00334446)
(0.0395951 -0.0222895 5.11273e-05)
(0.0533377 -0.023243 0.00371966)
(0.0611967 -0.0247072 0.00698127)
(0.0618298 -0.0264189 0.00919212)
(0.0548883 -0.0279878 0.00994177)
(0.0412298 -0.0290417 0.00917388)
(0.0229238 -0.0293734 0.00715891)
(0.00294219 -0.0289968 0.00434789)
(-0.0154178 -0.0280883 0.00121225)
(-0.0292129 -0.0268728 -0.00184069)
(-0.0364364 -0.0255307 -0.00447186)
(-0.035939 -0.0241178 -0.00634099)
(-0.0307247 -0.0207431 -0.00614302)
(-0.013835 -0.0209472 -0.0012637)
(0.00610283 -0.0210598 0.004881)
(0.0269033 -0.020958 0.0115136)
(0.0456317 -0.0207148 0.0176953)
(0.0595714 -0.0204547 0.0224305)
(0.0665812 -0.0202211 0.0248442)
(0.0653896 -0.0199349 0.024411)
(0.0559034 -0.0194698 0.0211468)
(0.0394002 -0.0187887 0.015651)
(0.0184478 -0.0180262 0.00894712)
(-0.00352334 -0.0174361 0.00220207)
(-0.0229007 -0.017247 -0.00354034)
(-0.0366241 -0.0175344 -0.00751117)
(-0.042777 -0.0181859 -0.00926425)
(-0.0403964 -0.0189059 -0.00867553)
(-0.0326275 -0.0157292 -0.00576624)
(-0.0137311 -0.0172549 0.00295789)
(0.00776429 -0.0177636 0.0130943)
(0.0296102 -0.0171191 0.0232793)
(0.0487094 -0.0154932 0.0320384)
(0.0622405 -0.0131949 0.0379552)
(0.0680556 -0.0105153 0.0399408)
(0.0650127 -0.00768235 0.0375177)
(0.0533026 -0.00493419 0.031019)
(0.0345993 -0.00262174 0.0215732)
(0.0118821 -0.00120497 0.0108377)
(-0.0111045 -0.00109706 0.000601292)
(-0.0306049 -0.00245715 -0.00757088)
(-0.0436007 -0.00508076 -0.0125652)
(-0.0483722 -0.0084429 -0.0138175)
(-0.0441467 -0.0118056 -0.0113742)
(-0.0340343 -0.00968621 -0.0065435)
(-0.0141174 -0.0123316 0.00466813)
(0.0078668 -0.0128342 0.0174942)
(0.0297384 -0.0111173 0.030211)
(0.0483607 -0.00752602 0.0409699)
(0.0609152 -0.00263521 0.0480276)
(0.06533 0.00292551 0.0500864)
(0.0606442 0.00853417 0.0466396)
(0.0473327 0.0135307 0.0381845)
(0.0273936 0.0171727 0.026173)
(0.00406771 0.018732 0.0126821)
(-0.0187845 0.0177353 -6.21742e-05)
(-0.0374683 0.0142024 -0.0101191)
(-0.0491672 0.00871483 -0.0161039)
(-0.052439 0.00227973 -0.017339)
(-0.0466778 -0.00388629 -0.0139485)
(-0.03479 -0.0035853 -0.00836236)
(-0.0150113 -0.0070065 0.00357364)
(0.00629686 -0.00711466 0.0173813)
(0.0271368 -0.00394992 0.0312563)
(0.0444621 0.00192987 0.0431809)
(0.0555668 0.00963719 0.0512161)
(0.0585368 0.0181511 0.0538862)
(0.0526318 0.0264111 0.0505753)
(0.0385808 0.0333252 0.0417654)
(0.0185877 0.0378069 0.0289833)
(-0.00404262 0.0389575 0.0144453)
(-0.0255684 0.0363599 0.000550168)
(-0.0425648 0.0303071 -0.0105849)
(-0.0525543 0.021809 -0.0174265)
(-0.0544125 0.0123608 -0.0191933)
(-0.047659 0.00362592 -0.015957)
(-0.0348309 0.00156896 -0.0110046)
(-0.0163714 -0.00214501 -0.000242345)
(0.00314884 -0.00151665 0.0126984)
(0.0219985 0.00327394 0.0262052)
(0.0373468 0.0114462 0.0383323)
(0.0467009 0.0217974 0.0470929)
(0.0483737 0.0329117 0.0508823)
(0.0418545 0.0432998 0.0489049)
(0.0280571 0.0514894 0.0414426)
(0.00923751 0.0561549 0.0298291)
(-0.0114464 0.0563628 0.0161159)
(-0.0305938 0.0518736 0.00258276)
(-0.0452293 0.0433162 -0.00870851)
(-0.0533122 0.0321176 -0.0162122)
(-0.0540328 0.020187 -0.0190532)
(-0.0469823 0.00952698 -0.0171005)
(-0.0341643 0.00490857 -0.014148)
(-0.0180513 0.0014877 -0.00628814)
(-0.00122266 0.00311674 0.00406836)
(0.0149104 0.00947586 0.0157464)
(0.0278419 0.0195764 0.0270864)
(0.0353824 0.0319368 0.0362252)
(0.0361093 0.0447983 0.0415064)
(0.0297072 0.0563322 0.0419081)
(0.0171595 0.0648259 0.0373458)
(0.000601772 0.0688909 0.0287028)
(-0.0171442 0.0677268 0.0175711)
(-0.033186 0.0613749 0.00583383)
(-0.0451073 0.0507998 -0.00471869)
(-0.0513415 0.0377405 -0.012643)
(-0.0513539 0.0243537 -0.0169779)
(-0.0447518 0.0128031 -0.0172694)
(-0.0328102 0.00600144 -0.0173948)
(-0.0197751 0.00348244 -0.0137048)
(-0.00621001 0.00632068 -0.00726381)
(0.00679991 0.0141227 0.00136234)
(0.0171581 0.025805 0.0109859)
(0.0230472 0.0397126 0.0200276)
(0.0233313 0.0537909 0.0268667)
(0.0178376 0.0658603 0.0302515)
(0.00748099 0.0739518 0.0296343)
(-0.00591618 0.0766666 0.0252755)
(-0.0200544 0.0734984 0.0180948)
(-0.0326708 0.064973 0.00936104)
(-0.0419399 0.0525437 0.000409596)
(-0.0467105 0.038268 -0.00753939)
(-0.0466074 0.0244009 -0.0134741)
(-0.0411799 0.0130357 -0.0165709)
(-0.0281881 -0.0038068 -0.0244807)
(-0.021852 -0.0081698 -0.0290485)
(-0.0148536 -0.00571681 -0.0288738)
(-0.0077089 0.00330041 -0.0234558)
(-0.0016685 0.0175923 -0.0135319)
(0.00221111 0.0350062 -0.000870384)
(0.00326754 0.0528266 0.0121766)
(0.00135656 0.0682306 0.0233039)
(-0.00313076 0.0787788 0.0308084)
(-0.00937312 0.0828315 0.0338555)
(-0.0163372 0.0798256 0.0324082)
(-0.0229929 0.0703258 0.0269741)
(-0.0284419 0.05588 0.0183715)
(-0.0320046 0.0387277 0.00763417)
(-0.0332688 0.0214658 -0.00394439)
(-0.0314065 0.00678919 -0.014607)
(-0.0221331 -0.00687817 -0.021274)
(-0.0185674 -0.00958446 -0.0304135)
(-0.014083 -0.00620167 -0.034822)
(-0.00901519 0.00293954 -0.0334663)
(-0.00421635 0.0166621 -0.0264463)
(-0.000474595 0.0330283 -0.0149392)
(0.00158691 0.0495387 -0.000944561)
(0.00162144 0.0634946 0.0131721)
(-0.000359064 0.0725207 0.0251894)
(-0.00397764 0.0750769 0.033424)
(-0.00860406 0.070799 0.0368817)
(-0.0135215 0.0605393 0.0352604)
(-0.0180328 0.0461035 0.0288574)
(-0.0215487 0.0298367 0.0185109)
(-0.0236204 0.014209 0.005594)
(-0.0234425 0.00156031 -0.00788982)
(-0.0166716 -0.0123484 -0.0182534)
(-0.0150472 -0.0134422 -0.0311197)
(-0.0120625 -0.00953287 -0.0393968)
(-0.00801361 -0.000991234 -0.0415783)
(-0.00355439 0.0110915 -0.0372538)
(0.000668767 0.024997 -0.0271481)
(0.00404875 0.0385586 -0.0129604)
(0.00607491 0.049506 0.00298634)
(0.00641659 0.0559243 0.0182017)
(0.00499732 0.0567069 0.0304467)
(0.00201904 0.0518038 0.0380301)
(-0.00208131 0.0421915 0.0399637)
(-0.00668455 0.0295729 0.0360085)
(-0.0110941 0.0159707 0.0266842)
(-0.0146271 0.00338471 0.0132679)
(-0.016307 -0.00635746 -0.00217706)
(-0.0126703 -0.0190941 -0.0157742)
(-0.0118421 -0.0189117 -0.0309367)
(-0.00911068 -0.0149634 -0.0418237)
(-0.00483728 -0.00761066 -0.0466054)
(0.000328265 0.00222864 -0.0445008)
(0.00571367 0.0131541 -0.0358753)
(0.0106203 0.0234362 -0.0221447)
(0.0143482 0.0312997 -0.00550336)
(0.0162747 0.03531 0.0114706)
(0.0159865 0.0347467 0.0262322)
(0.0134129 0.0297922 0.0366431)
(0.00889737 0.021437 0.0412324)
(0.00317241 0.0111868 0.0393531)
(-0.00280347 0.000667832 0.0312432)
(-0.00800906 -0.00862206 0.0180294)
(-0.0112505 -0.0153957 0.00173781)
(-0.010799 -0.0260893 -0.0141892)
(-0.00952731 -0.0252008 -0.0299105)
(-0.00578604 -0.0217299 -0.0417719)
(-0.00010861 -0.0159808 -0.0478444)
(0.0066819 -0.00865403 -0.0471567)
(0.0137261 -0.000793374 -0.0398339)
(0.0201322 0.00633447 -0.027046)
(0.0249919 0.0114545 -0.0107989)
(0.0274758 0.0135839 0.00639856)
(0.0270105 0.0123147 0.0219337)
(0.0234786 0.00794179 0.0334978)
(0.0173596 0.00135764 0.0394041)
(0.00968428 -0.00624803 0.0388012)
(0.00178785 -0.0136797 0.0317662)
(-0.00496415 -0.0199133 0.0193)
(-0.0091885 -0.0241288 0.0033027)
(-0.011353 -0.0323151 -0.0137695)
(-0.00851685 -0.0313819 -0.0282733)
(-0.0027019 -0.0288336 -0.0393365)
(0.00528663 -0.0248552 -0.0451752)
(0.0143161 -0.0199191 -0.0448493)
(0.0232202 -0.0147319 -0.0384003)
(0.0308461 -0.010151 -0.0268273)
(0.0360961 -0.00702522 -0.0119243)
(0.0380457 -0.00597997 0.0040032)
(0.0361535 -0.00722212 0.0185066)
(0.0304985 -0.0104681 0.0293909)
(0.0218894 -0.0150424 0.0350511)
(0.0117781 -0.0201169 0.0346775)
(0.00193081 -0.0249065 0.0283392)
(-0.00598176 -0.028775 0.0169606)
(-0.0104716 -0.0312099 0.00229294)
(-0.0141993 -0.0368514 -0.0146504)
(-0.00894766 -0.0364846 -0.0263538)
(-0.000349399 -0.035142 -0.0349534)
(0.010463 -0.0328289 -0.0390432)
(0.021967 -0.0297996 -0.0379381)
(0.0326276 -0.026497 -0.0317724)
(0.0410108 -0.0234825 -0.021478)
(0.0458735 -0.0213196 -0.00864616)
(0.0463165 -0.0204247 0.00472134)
(0.0420111 -0.0209434 0.0165441)
(0.0334138 -0.0227179 0.0250179)
(0.0218236 -0.0253663 0.0288957)
(0.00918911 -0.0284051 0.0276452)
(-0.0023285 -0.0313774 0.0214856)
(-0.0108375 -0.0338867 0.01134)
(-0.0148517 -0.0355532 -0.00119173)
(-0.0188357 -0.0390067 -0.0167709)
(-0.0106761 -0.0396708 -0.024478)
(0.000984206 -0.0396106 -0.0292945)
(0.0146996 -0.0386069 -0.030368)
(0.028539 -0.036735 -0.0274551)
(0.0405955 -0.0342817 -0.0209476)
(0.0491773 -0.0316672 -0.0118264)
(0.0529585 -0.0293458 -0.00151639)
(0.0511743 -0.0276977 0.00834857)
(0.0438483 -0.0269512 0.016216)
(0.0319494 -0.0271648 0.0208895)
(0.0173405 -0.0282527 0.0217103)
(0.00245827 -0.0300272 0.0186173)
(-0.0102171 -0.0322288 0.0121155)
(-0.0186907 -0.0345312 0.00319198)
(-0.0215652 -0.0365084 -0.0067038)
(-0.0245141 -0.0384248 -0.0198391)
(-0.0133519 -0.0403997 -0.0229016)
(0.00120992 -0.0414912 -0.0231626)
(0.0175005 -0.0412494 -0.0204098)
(0.0332167 -0.0396372 -0.0149544)
(0.0461284 -0.0369127 -0.00757146)
(0.0543443 -0.0335221 0.000603409)
(0.0565261 -0.029993 0.00825722)
(0.0521305 -0.0268398 0.014144)
(0.041621 -0.0244995 0.0173299)
(0.026535 -0.0233 0.0173634)
(0.00929114 -0.0234246 0.0143185)
(-0.00726179 -0.0248719 0.00872926)
(-0.0204423 -0.0274273 0.00147393)
(-0.0282808 -0.0306662 -0.00635518)
(-0.0295139 -0.0339542 -0.0134613)
(-0.0303767 -0.0351585 -0.0233558)
(-0.0165209 -0.0385413 -0.0217845)
(0.000384327 -0.0404826 -0.0174011)
(0.0185823 -0.0403473 -0.0106103)
(0.0354799 -0.0380733 -0.0023002)
(0.0486112 -0.0340183 0.00631086)
(0.055967 -0.0288119 0.0138543)
(0.0562683 -0.0232211 0.0190636)
(0.0492492 -0.0180411 0.0210482)
(0.0358398 -0.0140145 0.0194993)
(0.01812 -0.0117559 0.0147415)
(-0.00102212 -0.0116506 0.00762042)
(-0.0184559 -0.0137508 -0.000700897)
(-0.0314409 -0.0177264 -0.00894917)
(-0.0381562 -0.022904 -0.0159062)
(-0.0374761 -0.0283061 -0.0204347)
(-0.0355787 -0.029687 -0.0267143)
(-0.019715 -0.0344104 -0.021216)
(-0.00134467 -0.0367871 -0.0128201)
(0.0178424 -0.036089 -0.00242317)
(0.0350804 -0.0323273 0.00858809)
(0.047782 -0.0260705 0.0185634)
(0.0539142 -0.0182594 0.0258624)
(0.0523201 -0.0100328 0.0291931)
(0.043032 -0.0025778 0.0279335)
(0.0274092 0.00299937 0.0223117)
(0.00797109 0.00581733 0.0133428)
(-0.0120766 0.00538415 0.00256756)
(-0.0294893 0.0017312 -0.00828242)
(-0.0416169 -0.00454889 -0.017576)
(-0.0468881 -0.0124117 -0.0239846)
(-0.0442947 -0.0204426 -0.0265095)
(-0.0393907 -0.022856 -0.0293235)
(-0.0225144 -0.0287027 -0.0212438)
(-0.00376827 -0.0310554 -0.0101119)
(0.0153462 -0.0292068 0.00288703)
(0.0320339 -0.0233347 0.0160223)
(0.0437169 -0.0142965 0.0272943)
(0.0484332 -0.00343057 0.0347941)
(0.0451959 0.00766701 0.0371298)
(0.0343157 0.0173539 0.0338139)
(0.0174836 0.0241483 0.0254315)
(-0.00250523 0.026955 0.0134945)
(-0.0223297 0.0252822 5.59351e-05)
(-0.0388161 0.0193744 -0.0127362)
(-0.0495405 0.0101992 -0.0229828)
(-0.0532477 -0.000743201 -0.0292729)
(-0.0490238 -0.011563 -0.0306872)
(-0.0412796 -0.015738 -0.0307536)
(-0.0245786 -0.0223497 -0.0218917)
(-0.00662234 -0.0242343 -0.00974719)
(0.0113418 -0.0208223 0.00444796)
(0.026641 -0.0125052 0.0188196)
(0.0368444 -0.000474687 0.0311577)
(0.0401478 0.0135008 0.0393281)
(0.0357581 0.027341 0.0417757)
(0.0242036 0.0389388 0.0379764)
(0.00735897 0.0464691 0.0286251)
(-0.0119136 0.0487006 0.0154476)
(-0.030393 0.0452475 0.000740254)
(-0.0451563 0.0366736 -0.0131425)
(-0.054114 0.0243896 -0.0241644)
(-0.0563475 0.0103839 -0.0308548)
(-0.051028 -0.00299902 -0.0322789)
(-0.0409693 -0.00946358 -0.030821)
(-0.0256498 -0.0163561 -0.0231379)
(-0.00957736 -0.0174023 -0.0118658)
(0.00628294 -0.012243 0.00194894)
(0.01953 -0.00151071 0.0165071)
(0.0279882 0.0132785 0.0295672)
(0.030087 0.0299572 0.0388447)
(0.0252154 0.0460013 0.0425809)
(0.014015 0.0589023 0.0400349)
(-0.00163467 0.0665779 0.031724)
(-0.0190165 0.0677613 0.0192538)
(-0.0352044 0.0622634 0.00484876)
(-0.0476682 0.051017 -0.00917079)
(-0.0547205 0.0358826 -0.0207672)
(-0.0557556 0.0192928 -0.0284147)
(-0.0500423 0.00395976 -0.0310366)
(-0.0384635 -0.00505842 -0.0295912)
(-0.0255629 -0.011658 -0.024873)
(-0.0122256 -0.011611 -0.0162081)
(0.000833407 -0.00478543 -0.00427095)
(0.011604 0.00793096 0.00942158)
(0.0182739 0.024746 0.0227777)
(0.019547 0.0431767 0.0334984)
(0.0149531 0.0603889 0.0396071)
(0.00511509 0.0736431 0.0399811)
(-0.00827471 0.0807717 0.0346577)
(-0.0228366 0.0806027 0.0247633)
(-0.0360888 0.0731972 0.0121313)
(-0.0459786 0.0598231 -0.00116503)
(-0.0512361 0.0426818 -0.0131784)
(-0.0515105 0.0245034 -0.0222981)
(-0.0461737 0.00820469 -0.0271829)
(-0.0340106 -0.00314658 -0.0273442)
(-0.0242217 -0.00884986 -0.0268681)
(-0.0141094 -0.00757752 -0.0221129)
(-0.00421938 0.000643373 -0.0132539)
(0.00388841 0.0148425 -0.00134365)
(0.00884155 0.0331463 0.0118721)
(0.0096862 0.05288 0.0242135)
(0.00610448 0.0709094 0.0335057)
(-0.00140305 0.0841705 0.0381055)
(-0.0115425 0.0903263 0.037306)
(-0.0225159 0.0883341 0.0314477)
(-0.0324658 0.0786727 0.0217136)
(-0.0398695 0.0631528 0.00977738)
(-0.0437929 0.044429 -0.00253753)
(-0.0439753 0.0254647 -0.0134929)
(-0.0398139 0.00916919 -0.0214016)
(-0.0220837 -0.0135364 -0.0261881)
(-0.0201642 -0.0211369 -0.0336755)
(-0.0179159 -0.0207312 -0.0351594)
(-0.0153563 -0.0122454 -0.0299158)
(-0.0129486 0.00311925 -0.018648)
(-0.0110763 0.0230418 -0.00333398)
(-0.0100458 0.0444174 0.013256)
(-0.0100477 0.0638756 0.0282395)
(-0.0110991 0.0783637 0.0392832)
(-0.0130221 0.0856619 0.0449938)
(-0.0154857 0.0847354 0.0449564)
(-0.0180874 0.0758485 0.0395299)
(-0.020429 0.0604518 0.0295867)
(-0.0221988 0.0409118 0.0163689)
(-0.0231801 0.0201838 0.00149964)
(-0.0226232 0.00152272 -0.0128403)
(-0.0121708 -0.0156203 -0.0179071)
(-0.0129449 -0.0215097 -0.0299668)
(-0.0131262 -0.0201992 -0.0359595)
(-0.0125537 -0.0117668 -0.0347166)
(-0.0113127 0.00272721 -0.0263591)
(-0.00954103 0.0212946 -0.0122752)
(-0.0075045 0.04119 0.00516413)
(-0.00557795 0.0592653 0.0230947)
(-0.00414217 0.0725173 0.0387193)
(-0.00346248 0.0786937 0.0497885)
(-0.00361975 0.0767888 0.0548635)
(-0.00452784 0.067239 0.0533933)
(-0.00598918 0.0517594 0.0456566)
(-0.00777617 0.0329253 0.0326951)
(-0.00963126 0.0136788 0.0162591)
(-0.0108443 -0.00307972 -0.00121572)
(-0.0033699 -0.0199397 -0.011235)
(-0.00597161 -0.0242468 -0.0270635)
(-0.0075716 -0.0224477 -0.0369262)
(-0.00791249 -0.0146933 -0.0391958)
(-0.00692673 -0.00195786 -0.0335123)
(-0.00465458 0.0140187 -0.0208311)
(-0.00135865 0.0308755 -0.00321378)
(0.00245479 0.0459341 0.0165546)
(0.00611842 0.0566603 0.0354449)
(0.0089593 0.0611965 0.050662)
(0.0104749 0.0587899 0.0600293)
(0.0104385 0.0499514 0.0622414)
(0.00892563 0.0362819 0.0569883)
(0.00624155 0.0200628 0.0449756)
(0.00285823 0.00379316 0.0278744)
(-0.000282797 -0.0101591 0.00818191)
(0.00295085 -0.0254811 -0.00697419)
(-0.000341931 -0.0285149 -0.0251108)
(-0.0021467 -0.026694 -0.0375971)
(-0.0021873 -0.020204 -0.0424789)
(-0.000442105 -0.00983749 -0.0390356)
(0.00298123 0.00301773 -0.0278734)
(0.00772266 0.0164787 -0.0107584)
(0.0131221 0.0283958 0.00968215)
(0.0182838 0.03672 0.0303677)
(0.0222514 0.0399589 0.0482114)
(0.0242551 0.0375514 0.0605608)
(0.0239245 0.0299993 0.0655739)
(0.0213822 0.018702 0.0624736)
(0.017155 0.0055701 0.0516634)
(0.0120502 -0.00738803 0.034679)
(0.00728347 -0.0183573 0.0139608)
(0.00579827 -0.0313963 -0.00569809)
(0.00299728 -0.0337056 -0.0243815)
(0.00221806 -0.0323598 -0.0378583)
(0.00361909 -0.0275255 -0.0440665)
(0.00701287 -0.019773 -0.0421016)
(0.0120665 -0.0101091 -0.0323249)
(0.0182256 6.97806e-05 -0.0162375)
(0.0246607 0.00913103 0.00375398)
(0.0303276 0.0154856 0.0246701)
(0.0341547 0.0179569 0.0433684)
(0.0353243 0.0160965 0.057)
(0.0335438 0.0103034 0.0634622)
(0.0291639 0.00168035 0.0617265)
(0.0230487 -0.00828704 0.0520191)
(0.0163413 -0.018078 0.035755)
(0.0105108 -0.0263758 0.0152639)
(0.0047616 -0.0367937 -0.0076141)
(0.00349677 -0.0390326 -0.0250668)
(0.00478923 -0.0386071 -0.0377611)
(0.00851813 -0.0355794 -0.0437836)
(0.0141547 -0.0302886 -0.0422594)
(0.0210343 -0.0233942 -0.0334516)
(0.0283458 -0.0158767 -0.0186641)
(0.0351043 -0.00894287 -6.39344e-05)
(0.0402196 -0.00381673 0.0195907)
(0.0426838 -0.00145349 0.03732)
(0.0418566 -0.00228123 0.0503691)
(0.0377306 -0.00608914 0.0566682)
(0.0310239 -0.0121227 0.0552129)
(0.0229825 -0.0193208 0.0462232)
(0.0150561 -0.0265776 0.0310492)
(0.00885797 -0.0329057 0.0119016)
(7.89336e-05 -0.0408558 -0.0125022)
(0.00114378 -0.0436375 -0.0271481)
(0.00520842 -0.0444325 -0.0374006)
(0.0117606 -0.043106 -0.0417297)
(0.0198594 -0.0397684 -0.0395047)
(0.0284589 -0.0348132 -0.0310557)
(0.0364746 -0.0289375 -0.0175937)
(0.0428053 -0.0230772 -0.00106828)
(0.0464193 -0.0182456 0.0160635)
(0.0465371 -0.0153092 0.0311691)
(0.0428843 -0.0147741 0.0418546)
(0.0358992 -0.0166727 0.0463965)
(0.0267479 -0.0205919 0.0440649)
(0.0170499 -0.025823 0.035245)
(0.00848362 -0.0315327 0.0213116)
(0.0026569 -0.03689 0.00437331)
(-0.00745227 -0.0429628 -0.0197092)
(-0.0035814 -0.0467595 -0.0303467)
(0.00352287 -0.0488776 -0.0368463)
(0.0129534 -0.0489011 -0.0382221)
(0.0233497 -0.0467395 -0.0342595)
(0.033295 -0.042637 -0.0255114)
(0.041461 -0.0371767 -0.0132151)
(0.0466868 -0.031214 0.000844476)
(0.0480938 -0.0257325 0.0145506)
(0.0452559 -0.0216528 0.0257564)
(0.038394 -0.0196437 0.0326487)
(0.0284807 -0.0199905 0.0340954)
(0.0171415 -0.0225626 0.029867)
(0.00630312 -0.0268752 0.0206671)
(-0.00224153 -0.0322113 0.0079699)
(-0.00699792 -0.0377179 -0.00620058)
(-0.0166503 -0.0427886 -0.0281936)
(-0.00985359 -0.0478869 -0.0341424)
(0.000110326 -0.0512151 -0.0361208)
(0.012055 -0.0520346 -0.0337412)
(0.0242508 -0.0501148 -0.0273015)
(0.0349744 -0.0456862 -0.0176934)
(0.0427195 -0.0393979 -0.00629106)
(0.0463328 -0.0322194 0.00521413)
(0.0451604 -0.0252827 0.0150438)
(0.0392032 -0.0196922 0.0216147)
(0.0292303 -0.016334 0.0238358)
(0.0167524 -0.0157176 0.0213311)
(0.00379837 -0.0178891 0.0145182)
(-0.00750967 -0.0224399 0.00452051)
(-0.0153957 -0.0285942 -0.00704279)
(-0.0185103 -0.0353176 -0.0182279)
(-0.0261434 -0.0403586 -0.0366437)
(-0.0166858 -0.0468559 -0.0378713)
(-0.00444802 -0.0510864 -0.0352329)
(0.00930094 -0.0520203 -0.0288899)
(0.022556 -0.0493747 -0.0196597)
(0.0333927 -0.0435045 -0.00882799)
(0.0402171 -0.0352912 0.00201226)
(0.0419486 -0.0259907 0.011185)
(0.0381998 -0.0170361 0.0172061)
(0.0294125 -0.00981387 0.0190615)
(0.0168752 -0.00544876 0.0164257)
(0.0025607 -0.00461039 0.00973376)
(-0.0112183 -0.00738998 9.73746e-05)
(-0.0222724 -0.0132937 -0.0109109)
(-0.0289727 -0.0213311 -0.0215195)
(-0.0300936 -0.0301373 -0.0298723)
(-0.0345568 -0.0360513 -0.0436926)
(-0.0230892 -0.0438753 -0.0408714)
(-0.00948427 -0.0485606 -0.034234)
(0.00511578 -0.0488954 -0.0243533)
(0.0185597 -0.0446508 -0.0124822)
(0.0288468 -0.0364257 -0.000293729)
(0.034396 -0.0254653 0.0103561)
(0.0342538 -0.0134456 0.0177302)
(0.0283042 -0.00220863 0.0205563)
(0.0173797 0.00651711 0.0183134)
(0.00318519 0.0113851 0.0113688)
(-0.0119861 0.0116556 0.00090938)
(-0.0256913 0.00732643 -0.011322)
(-0.0358172 -0.000866266 -0.0233503)
(-0.040989 -0.0115922 -0.0332804)
(-0.0400546 -0.0230339 -0.0393412)
(-0.0406826 -0.0305372 -0.0481717)
(-0.0281958 -0.0394638 -0.0426446)
(-0.0143253 -0.0440968 -0.0332626)
(5.46402e-05 -0.0431968 -0.0208218)
(0.0127985 -0.0366982 -0.00687117)
(0.0219657 -0.0255243 0.00659966)
(0.0260806 -0.0113664 0.017468)
(0.0243509 0.00360258 0.0238679)
(0.0168976 0.0170744 0.0246168)
(0.00483827 0.0269661 0.0195316)
(-0.00986793 0.031756 0.00949934)
(-0.0247989 0.0307338 -0.00372806)
(-0.0375504 0.0241132 -0.0179303)
(-0.0462131 0.0129922 -0.0308441)
(-0.0497353 -0.000858126 -0.0404968)
(-0.0470097 -0.0151087 -0.0451773)
(-0.0436261 -0.0246659 -0.04935)
(-0.0313305 -0.0343329 -0.0429528)
(-0.0183458 -0.0384287 -0.0325226)
(-0.00523955 -0.0358468 -0.0188857)
(0.00600828 -0.0267615 -0.00370799)
(0.0136476 -0.0124493 0.0108187)
(0.0163847 0.0049283 0.0223403)
(0.0135972 0.0226956 0.0288073)
(0.00556786 0.0380759 0.0289818)
(-0.00645242 0.0486591 0.0227961)
(-0.02045 0.0528106 0.0113894)
(-0.0340747 0.0499428 -0.00319176)
(-0.0451265 0.0405912 -0.0184854)
(-0.0519996 0.0262918 -0.032088)
(-0.053983 0.0093071 -0.0419923)
(-0.050029 -0.00752844 -0.0464897)
(-0.0429219 -0.0193416 -0.0470725)
(-0.0320557 -0.0292726 -0.0418295)
(-0.0210034 -0.0324436 -0.0322151)
(-0.0100688 -0.0279991 -0.0189017)
(-0.000913157 -0.0163872 -0.00350011)
(0.00500642 0.000772995 0.0117525)
(0.00662915 0.020917 0.0243448)
(0.00348346 0.0409207 0.0320088)
(-0.00410125 0.0576109 0.033298)
(-0.0149169 0.0683258 0.0279976)
(-0.0270959 0.0713972 0.0171709)
(-0.038539 0.066432 0.00282983)
(-0.0473805 0.0543346 -0.0125874)
(-0.0523791 0.0370934 -0.0266921)
(-0.0531315 0.0174375 -0.0374574)
(-0.0487094 -0.00137754 -0.0430881)
(-0.0386142 -0.0154232 -0.0417718)
(-0.0302137 -0.0250747 -0.0395281)
(-0.0218753 -0.0270821 -0.0324485)
(-0.0137259 -0.0208839 -0.0209118)
(-0.0070121 -0.00720974 -0.00628808)
(-0.00280479 0.0120224 0.00930966)
(-0.00189772 0.0339471 0.0233335)
(-0.00465864 0.0551422 0.0333057)
(-0.0108206 0.0722156 0.0374199)
(-0.0193992 0.0824166 0.0350074)
(-0.0288633 0.0841541 0.0266726)
(-0.037518 0.0772643 0.0140454)
(-0.0439232 0.0629766 -0.000685341)
(-0.0472144 0.0436312 -0.0152302)
(-0.0472193 0.0222784 -0.0274959)
(-0.0431876 0.00241288 -0.0354967)
(-0.0312418 -0.0133294 -0.0343493)
(-0.0259344 -0.0220782 -0.0364104)
(-0.0206706 -0.0228462 -0.0331572)
(-0.0155488 -0.0153186 -0.0245793)
(-0.0114026 -0.000303762 -0.0116138)
(-0.00887876 0.0202719 0.00397879)
(-0.00841394 0.0434562 0.0197938)
(-0.0101881 0.0656045 0.0331677)
(-0.0140239 0.0829829 0.041733)
(-0.0193365 0.0925529 0.043999)
(-0.0252118 0.0926975 0.0397036)
(-0.0306167 0.0835768 0.0297996)
(-0.0346503 0.0669798 0.0161198)
(-0.0367622 0.0458034 0.000918425)
(-0.0368088 0.0234471 -0.0135094)
(-0.0340886 0.00342867 -0.024872)
(-0.0127299 -0.0227143 -0.0246758)
(-0.0158751 -0.0330192 -0.0340714)
(-0.0193078 -0.0349051 -0.0369086)
(-0.0223909 -0.0280046 -0.0323689)
(-0.0246377 -0.0133242 -0.0210703)
(-0.0256299 0.00688013 -0.00498395)
(-0.0252091 0.029454 0.0130235)
(-0.023522 0.0508727 0.0298709)
(-0.0209419 0.0678323 0.0429209)
(-0.0179408 0.0777765 0.0504337)
(-0.0149747 0.0792809 0.0516942)
(-0.0124194 0.0722218 0.0468788)
(-0.0105585 0.0577292 0.03681)
(-0.00962309 0.0379912 0.0227792)
(-0.00973911 0.0159624 0.00651597)
(-0.0103699 -0.00496214 -0.00973957)
(0.000401299 -0.022964 -0.0121742)
(-0.00530812 -0.0314567 -0.0261177)
(-0.0111111 -0.0324038 -0.0333693)
(-0.0160904 -0.0256787 -0.0327011)
(-0.0194427 -0.0121543 -0.0242178)
(-0.0205481 0.00631613 -0.00935034)
(-0.0191972 0.0270598 0.0094418)
(-0.0156654 0.0468981 0.02915)
(-0.0106295 0.0626387 0.0467527)
(-0.00497816 0.0716616 0.0597)
(0.000399817 0.0724615 0.066236)
(0.00475799 0.064962 0.0655447)
(0.0075594 0.0504945 0.0577579)
(0.00845871 0.0314764 0.0439159)
(0.00735998 0.0109098 0.0258901)
(0.00484598 -0.00815811 0.00621649)
(0.0120122 -0.0247092 -0.00231961)
(0.00463889 -0.0316644 -0.0200723)
(-0.00256187 -0.0321565 -0.0312061)
(-0.00838609 -0.0261665 -0.0340154)
(-0.0119283 -0.0144739 -0.0281476)
(-0.0125264 0.00134344 -0.0146329)
(-0.00998824 0.0190325 0.00437021)
(-0.00469773 0.035903 0.0259536)
(0.00244273 0.0492275 0.0468967)
(0.0102039 0.0567448 0.0641278)
(0.0173038 0.0571495 0.075131)
(0.0226578 0.0503945 0.0782761)
(0.025544 0.0376904 0.0730335)
(0.0256287 0.0211921 0.0600751)
(0.0229914 0.00349334 0.0412063)
(0.0185284 -0.0129207 0.0190752)
(0.0203242 -0.0272086 0.00364118)
(0.0123886 -0.0329017 -0.0164649)
(0.00497068 -0.033393 -0.0302682)
(-0.000525676 -0.0287241 -0.0357075)
(-0.00328145 -0.0194866 -0.0320777)
(-0.00275155 -0.00687322 -0.0200769)
(0.00114005 0.00737226 -0.00157266)
(0.00787914 0.0211041 0.0206999)
(0.0163974 0.0320746 0.0434968)
(0.0252501 0.0383625 0.0634754)
(0.0329212 0.0388179 0.0776325)
(0.0381526 0.0333596 0.083748)
(0.0401973 0.0229962 0.0807613)
(0.038869 0.00954084 0.0690055)
(0.0345065 -0.00487663 0.0501585)
(0.0284135 -0.0183269 0.0268226)
(0.0240452 -0.030101 0.00488241)
(0.0166459 -0.0350596 -0.0158115)
(0.0102298 -0.0360323 -0.0306608)
(0.00618238 -0.0330635 -0.0374741)
(0.00507135 -0.0265134 -0.0353679)
(0.00718376 -0.017167 -0.0248022)
(0.0123941 -0.00626347 -0.00737467)
(0.0200473 0.00457275 0.0144138)
(0.0289842 0.0135443 0.0374484)
(0.0377031 0.0190358 0.0583526)
(0.0446606 0.0200051 0.0739241)
(0.0486374 0.0162713 0.0816409)
(0.0490365 0.00856352 0.0801413)
(0.0459359 -0.00170892 0.0695441)
(0.0399648 -0.0129009 0.0513983)
(0.0327735 -0.0235384 0.0282103)
(0.0226339 -0.0329288 0.00119567)
(0.0167201 -0.0378067 -0.0183094)
(0.0123671 -0.0397041 -0.0324268)
(0.0106546 -0.03858 -0.0391188)
(0.0117761 -0.0345479 -0.0375303)
(0.0156637 -0.0280258 -0.0280159)
(0.0219386 -0.0198352 -0.0119668)
(0.029822 -0.0111862 0.00837035)