/*--------------------------------*- C++ -*----------------------------------*\
| =========                 |                                                 |
| \\      /  F ield         | OpenFOAM: The Open Source CFD Toolbox           |
|  \\    /   O peration     | Version:  3.0.0                                 |
|   \\  /    A nd           | Web:      www.OpenFOAM.org                      |
|    \\/     M anipulation  |                                                 |
\*---------------------------------------------------------------------------*/
FoamFile
{
    version     2.0;
    format      ascii;
    class       volScalarField;
    location    "2";
    object      p;
}
// * * * * * * * * * * * * * * * * * * * * * * * * * * * * * * * * * * * * * //

dimensions      [0 2 -2 0 0 0 0];

internalField   nonuniform List<scalar> 
4096
(
0.00787367
0.00932287
0.0108863
0.00659262
-0.00211676
-0.0110181
-0.0165717
-0.0178155
-0.0159127
-0.0126694
-0.00971656
-0.00812988
-0.00789925
-0.0079598
-0.00650596
0.00131792
0.0159695
0.0121524
0.0126282
0.00907528
0.00307213
-0.00153066
-0.00238193
0.000511619
0.00561022
0.0110052
0.0147616
0.0154649
0.0131442
0.00920169
0.00607996
0.0117943
0.0236594
0.0150343
0.015375
0.0134781
0.0107889
0.0104158
0.013741
0.0201083
0.0278176
0.0349167
0.0390767
0.0385419
0.0333825
0.0253313
0.0174986
0.0214018
0.0287656
0.0168328
0.0179673
0.0184229
0.0190666
0.0222596
0.028684
0.0375655
0.04738
0.0559797
0.0605135
0.0586443
0.05052
0.0383518
0.0260578
0.0281451
0.029927
0.0169074
0.0194032
0.0224301
0.0259305
0.031802
0.0402401
0.050707
0.0619445
0.0716153
0.0761306
0.0727844
0.0618696
0.0461746
0.0303624
0.030536
0.0267938
0.0150302
0.0190665
0.0241809
0.0298092
0.0369445
0.0459443
0.0567177
0.0683429
0.0783111
0.0827012
0.0780634
0.0651794
0.0473006
0.029641
0.0280491
0.0203365
0.0117191
0.0171194
0.0235351
0.0298677
0.036623
0.044387
0.0537054
0.0642554
0.0735953
0.0775398
0.0726616
0.0593212
0.0412808
0.023927
0.0212843
0.0121606
0.00778056
0.0142154
0.0209841
0.0265678
0.0312143
0.0359168
0.041746
0.0494969
0.0572865
0.0609183
0.0567128
0.0448099
0.0288608
0.0140548
0.0116447
0.00383474
0.00399406
0.01116
0.0173878
0.0209184
0.0219034
0.0217395
0.0226533
0.0262887
0.0317002
0.0350253
0.0324629
0.0236917
0.0118501
0.00149117
0.000766078
-0.00345554
0.000915029
0.00855916
0.0135438
0.0140347
0.010298
0.00437226
-0.000507409
-0.00163369
0.000996639
0.00410703
0.00382254
-0.000706834
-0.0071573
-0.01191
-0.00961065
-0.00892392
-0.00109526
0.00680806
0.0100811
0.00699302
-0.0018385
-0.0135429
-0.0239127
-0.0293818
-0.0292607
-0.0263214
-0.0242284
-0.0242995
-0.0251156
-0.0241
-0.0180937
-0.0120318
-0.00176524
0.006057
0.0074269
0.000786478
-0.0126286
-0.0289936
-0.0433343
-0.0517403
-0.053346
-0.0504629
-0.0464283
-0.0428097
-0.0389359
-0.0330628
-0.0235077
-0.0125095
-0.00106758
0.00628525
0.00575668
-0.00382284
-0.0203741
-0.0391928
-0.0550172
-0.0642971
-0.0664499
-0.0636056
-0.0585618
-0.0527971
-0.0460647
-0.0372701
-0.02514
-0.0103916
0.000771549
0.00716891
0.00494026
-0.00645795
-0.024021
-0.0424965
-0.0570045
-0.0649893
-0.0666322
-0.0638283
-0.0588312
-0.0527682
-0.0454099
-0.0357532
-0.0228508
-0.00588989
0.0034389
0.00835716
0.00478985
-0.00699025
-0.0231887
-0.0386355
-0.049451
-0.0545828
-0.0549896
-0.0523817
-0.0483949
-0.0436491
-0.037648
-0.0292733
-0.0170992
0.000980815
0.00697846
0.0100153
0.00563847
-0.00492462
-0.0172985
-0.0270481
-0.0324711
-0.0340768
-0.0336993
-0.0322544
-0.0303859
-0.0281063
-0.0247249
-0.0190987
-0.00845494
0.00897839
0.00756763
0.00782618
0.0039997
-0.00327397
-0.0113601
-0.0177343
-0.0209177
-0.0205905
-0.0173446
-0.0126236
-0.00824331
-0.00534087
-0.00382636
-0.00251681
0.00334999
0.0168112
0.0116927
0.0113847
0.0083137
0.00306866
-0.00194218
-0.00477852
-0.00437931
-0.000579083
0.00568213
0.0120542
0.0159625
0.0162022
0.0135379
0.0100998
0.0134457
0.0234053
0.0153461
0.0152216
0.0137326
0.0114149
0.0102853
0.0115829
0.0157506
0.0225826
0.0308047
0.0374727
0.0396065
0.0363082
0.0290462
0.0209704
0.0220308
0.0269875
0.0175078
0.0183153
0.0189337
0.0196172
0.0219385
0.0266562
0.0339186
0.0433362
0.0530997
0.0596598
0.0596148
0.0524833
0.0406882
0.0284231
0.0273478
0.0268658
0.0177807
0.0200028
0.0228472
0.0261505
0.0310627
0.0381105
0.0474178
0.0585094
0.0691717
0.0751766
0.0728498
0.0622274
0.046714
0.0314028
0.0285275
0.0234142
0.0162443
0.0200004
0.0246633
0.0296644
0.0357358
0.0434415
0.0532108
0.0647051
0.0754837
0.0807854
0.0767168
0.063752
0.0461169
0.0294936
0.0255177
0.0175333
0.0133287
0.0184228
0.0240786
0.0293553
0.0347096
0.0409669
0.0491756
0.0595295
0.0696286
0.0744403
0.0698487
0.0564035
0.038799
0.0229237
0.018932
0.0103345
0.00954642
0.0155896
0.0212195
0.0252239
0.0279667
0.0307321
0.035408
0.0431173
0.0518398
0.0565523
0.0528095
0.0409717
0.0256569
0.012532
0.0098078
0.00278097
0.00535261
0.0118991
0.0165566
0.0179779
0.016636
0.0144423
0.0142742
0.0182716
0.0251252
0.0299934
0.0282103
0.0196772
0.00848002
-0.000329636
-0.000600283
-0.00428717
0.00121322
0.00786201
0.0108651
0.00891336
0.00278615
-0.00487751
-0.0102372
-0.0103128
-0.0055791
-0.000571641
9.32008e-05
-0.00420443
-0.010235
-0.0138901
-0.0108817
-0.0100033
-0.0022899
0.00414034
0.00516731
-0.000282178
-0.0109891
-0.0235711
-0.0334616
-0.0371555
-0.0346137
-0.029725
-0.0267719
-0.0268005
-0.0275666
-0.0260457
-0.0195281
-0.0134779
-0.00447126
0.00137351
0.000501713
-0.00790819
-0.0221497
-0.0382072
-0.0512057
-0.057516
-0.0568851
-0.0524184
-0.0477861
-0.0442587
-0.0405486
-0.0346647
-0.0250902
-0.0140676
-0.00491469
7.48542e-05
-0.00238023
-0.0127655
-0.028863
-0.0463788
-0.0605617
-0.0681542
-0.0688271
-0.064942
-0.0594008
-0.0535201
-0.0467774
-0.0380625
-0.0265468
-0.0116195
-0.00356942
0.0003421
-0.00324255
-0.0143982
-0.0305653
-0.0474763
-0.0609372
-0.0683101
-0.0693599
-0.0658289
-0.0599811
-0.0530926
-0.0451394
-0.0355487
-0.0236405
-0.00639702
-0.000590372
0.00197769
-0.00221695
-0.0129951
-0.0276343
-0.042252
-0.0534108
-0.0592538
-0.0596984
-0.0561065
-0.0503541
-0.0436756
-0.036282
-0.0277692
-0.0169219
0.00136151
0.00383241
0.00497695
0.000770336
-0.00811881
-0.0189833
-0.0289645
-0.0362176
-0.0399869
-0.0402273
-0.0374756
-0.0329143
-0.0276668
-0.022178
-0.0161027
-0.00712872
0.00819961
0.0067782
0.00646819
0.00327642
-0.00255364
-0.00930505
-0.0152031
-0.018791
-0.0193247
-0.0167837
-0.0122228
-0.00739245
-0.003734
-0.00160154
-0.000240152
0.00387546
0.0128358
0.00911185
0.00874891
0.0066354
0.00274648
-0.00154134
-0.0047337
-0.00547181
-0.00285878
0.00284902
0.00940906
0.0141802
0.015409
0.0134281
0.0102002
0.0111301
0.0163778
0.0110485
0.0111225
0.0107992
0.00993927
0.00948042
0.010222
0.0129228
0.0181835
0.0254634
0.0322362
0.0352499
0.0329754
0.0265346
0.0189442
0.0170909
0.0173008
0.0116891
0.012844
0.0145417
0.0164506
0.019172
0.0231339
0.0288178
0.0366635
0.0454527
0.0521814
0.0530118
0.0468241
0.0358461
0.0242869
0.0200725
0.0157832
0.0110939
0.0136311
0.0171494
0.0211071
0.025897
0.031912
0.0396491
0.0493612
0.0595176
0.0660259
0.0646826
0.0549093
0.0401526
0.0257152
0.0198929
0.0124839
0.0095688
0.0134117
0.0181109
0.0229484
0.028239
0.0346203
0.0429644
0.0535965
0.0645573
0.0708838
0.067993
0.0557931
0.0388333
0.0231926
0.0168396
0.00809624
0.00739097
0.012185
0.0171295
0.0213888
0.0253376
0.0300807
0.0371853
0.0473628
0.0584801
0.0649034
0.0616371
0.0489008
0.0318573
0.0169826
0.011387
0.00308021
0.00469276
0.00997233
0.0141989
0.0164953
0.0174346
0.0187245
0.0227954
0.0311233
0.0416383
0.0483877
0.0460349
0.0347823
0.019883
0.00766374
0.00404246
-0.0022497
0.00157499
0.00693293
0.00970611
0.00906053
0.00588503
0.00257272
0.00246394
0.00781544
0.0169507
0.023984
0.0234587
0.0152864
0.00432511
-0.00377889
-0.00441704
-0.00742464
-0.0016339
0.00354626
0.00448861
0.000506796
-0.0071097
-0.0152584
-0.0198755
-0.0180552
-0.0109381
-0.00397201
-0.00238722
-0.00663015
-0.0126577
-0.0158525
-0.0129385
-0.0116104
-0.00430024
0.000580359
-0.000344517
-0.0074559
-0.019045
-0.0314173
-0.0399579
-0.0416009
-0.0368681
-0.0304653
-0.0270404
-0.0273001
-0.028278
-0.026564
-0.0200882
-0.0137924
-0.00561577
-0.00131863
-0.00381104
-0.0133354
-0.0277495
-0.0430339
-0.0545011
-0.0587625
-0.05634
-0.0508684
-0.0461399
-0.043016
-0.0396305
-0.0337703
-0.0243624
-0.0132954
-0.00523745
-0.00171159
-0.00536348
-0.0162317
-0.0319403
-0.0483492
-0.060994
-0.0669603
-0.0663663
-0.0618827
-0.056397
-0.0508739
-0.0444198
-0.0358588
-0.0247438
-0.0101512
-0.00329237
-0.000717226
-0.00506707
-0.0161937
-0.0316319
-0.047457
-0.059733
-0.0660236
-0.066269
-0.0623301
-0.0564156
-0.0496095
-0.0417617
-0.0323969
-0.0211726
-0.00490473
-0.00019486
0.00127362
-0.00327149
-0.0136572
-0.027534
-0.041453
-0.052122
-0.0575361
-0.057525
-0.0534593
-0.0472595
-0.0401906
-0.0325874
-0.0242666
-0.0143844
0.00249136
0.00406225
0.00423449
0.000228337
-0.00754597
-0.0172249
-0.0267266
-0.0342464
-0.0386351
-0.0392662
-0.0363872
-0.0311572
-0.0249645
-0.0186947
-0.0124486
-0.00473832
0.00754643
0.00771218
0.00791749
0.00564832
0.000749239
-0.00565783
-0.0119538
-0.0165435
-0.0182188
-0.0165705
-0.0123326
-0.00724559
-0.00300143
-0.000336912
0.00142716
0.00459976
0.00703897
0.0057594
0.00612834
0.00497653
0.00177249
-0.00262422
-0.00667059
-0.00857547
-0.00700052
-0.00197276
0.00481
0.0101725
0.0120603
0.0105045
0.00754706
0.00700036
0.00595876
0.0035391
0.00425601
0.0048756
0.00477786
0.00431641
0.00428769
0.00583834
0.0100148
0.0166967
0.0235748
0.0272088
0.025616
0.0196557
0.0124667
0.00880943
0.00316608
0.000656665
0.00224091
0.00462503
0.00712577
0.00981087
0.0131053
0.017798
0.0245705
0.0330732
0.0400202
0.0415308
0.0360096
0.0255284
0.0144881
0.00838134
-0.000312303
-0.00207816
0.000555403
0.00429247
0.00842234
0.0129462
0.0183007
0.0252674
0.0343699
0.0444365
0.0514476
0.0509384
0.0418702
0.0276736
0.0138397
0.00630486
-0.00344684
-0.0039627
-0.000444976
0.00388379
0.00832262
0.0129928
0.0186577
0.0264455
0.0368783
0.0482141
0.0554528
0.0536011
0.0422174
0.0258559
0.0109681
0.00322817
-0.00582823
-0.00486416
-0.000833867
0.00314445
0.00642967
0.00941972
0.0134403
0.0203342
0.0307035
0.0427192
0.0504469
0.0483887
0.0364985
0.0200957
0.00604337
-0.000575176
-0.00765876
-0.00514908
-0.000997208
0.00179073
0.00269783
0.00251042
0.00321683
0.00740254
0.0165203
0.0284052
0.0366778
0.0355182
0.0249935
0.0106741
-0.000757355
-0.00498756
-0.00935769
-0.00526318
-0.00125194
-0.000146475
-0.00231295
-0.0065113
-0.010042
-0.00951764
-0.00285892
0.00792742
0.0164244
0.0168021
0.0090359
-0.00155843
-0.00903346
-0.00998078
-0.0109708
-0.0052851
-0.00146562
-0.00213454
-0.00746179
-0.0157455
-0.0236269
-0.0270517
-0.0235115
-0.0147108
-0.00661836
-0.00463542
-0.00900728
-0.0149893
-0.0177772
-0.0149825
-0.0119165
-0.00482202
-0.00115222
-0.00338408
-0.0114351
-0.0231984
-0.0347938
-0.0417925
-0.0415179
-0.0353046
-0.028288
-0.0250776
-0.0259045
-0.0271956
-0.0253185
-0.0188644
-0.0113425
-0.00335084
6.26869e-05
-0.00332678
-0.0132976
-0.0274426
-0.041623
-0.051324
-0.0539362
-0.0504272
-0.0448424
-0.040765
-0.0384971
-0.0356295
-0.0297723
-0.0203607
-0.0088139
-0.000814701
0.00215813
-0.00194761
-0.0128392
-0.0279913
-0.0433001
-0.0545313
-0.0592133
-0.0580056
-0.0537257
-0.049002
-0.0443053
-0.0383476
-0.029854
-0.018762
-0.00476687
0.00223329
0.00457112
0.000173176
-0.0106832
-0.0255764
-0.0406337
-0.0520749
-0.0577343
-0.0577807
-0.0541144
-0.0487322
-0.0424211
-0.0348514
-0.0255297
-0.0144127
-0.000129956
0.00504115
0.00662012
0.0023427
-0.00768036
-0.0213147
-0.0351202
-0.0457603
-0.0511457
-0.0511482
-0.0471465
-0.0409683
-0.0338779
-0.0262376
-0.0179054
-0.00835115
0.00564297
0.00786182
0.00827946
0.00499834
-0.00195824
-0.0113078
-0.0211618
-0.0295271
-0.0347445
-0.0358681
-0.0330292
-0.0274062
-0.0205802
-0.0136908
-0.00714086
-8.62588e-05
0.0104015
0.0114245
0.0127139
0.0112123
0.00640108
-0.000682593
-0.00817237
-0.0140464
-0.0167406
-0.0156652
-0.0115286
-0.00608292
-0.00120042
0.00190608
0.0038697
0.00784861
0.00347012
0.00323017
0.00459986
0.00407653
0.000798941
-0.00432934
-0.009336
-0.0120655
-0.0109947
-0.00610598
0.000736026
0.00649314
0.00882806
0.00737829
0.00423174
0.00403031
-0.00362317
-0.00509998
-0.00363097
-0.00242654
-0.00242469
-0.00332427
-0.00402523
-0.00301899
0.000894105
0.00754656
0.0146669
0.0187807
0.0175953
0.0116051
0.00407915
0.000347236
-0.0111969
-0.0129399
-0.0109862
-0.0082387
-0.00561874
-0.00315123
-0.000205393
0.0042843
0.0111207
0.0196835
0.0269906
0.0290536
0.023946
0.013376
0.00193643
-0.00452215
-0.0173795
-0.018575
-0.016026
-0.0122899
-0.00818501
-0.00380796
0.00141374
0.0084284
0.0177545
0.028127
0.0356779
0.0358612
0.0273012
0.0132389
-0.00119785
-0.00910497
-0.0206016
-0.0208422
-0.0178761
-0.0139598
-0.00980433
-0.00532853
0.000318658
0.00831146
0.0191581
0.0309774
0.0389315
0.0379153
0.0271228
0.0109706
-0.00404911
-0.0124394
-0.0207588
-0.0198433
-0.0167121
-0.0135121
-0.010767
-0.00803183
-0.00392381
0.0031891
0.0143475
0.0269965
0.0355005
0.0342769
0.0229973
0.00695552
-0.00699456
-0.0142604
-0.018785
-0.0165634
-0.01343
-0.0116582
-0.0114276
-0.0118214
-0.0107626
-0.00585699
0.00408004
0.0166395
0.0255485
0.0249699
0.014877
0.000907057
-0.0102769
-0.0150472
-0.0158173
-0.0120717
-0.00910332
-0.00897721
-0.0117532
-0.015953
-0.0187862
-0.0171281
-0.00941588
0.0020206
0.010808
0.0112691
0.00351157
-0.00697354
-0.0141649
-0.0154442
-0.0125612
-0.00711373
-0.00411439
-0.00554142
-0.0112284
-0.0191955
-0.0259993
-0.0279465
-0.0231731
-0.0138471
-0.00592498
-0.00439141
-0.00956346
-0.0156189
-0.0182296
-0.0155508
-0.00886633
-0.00175534
0.00143379
-0.00119805
-0.00927737
-0.0204213
-0.0306925
-0.0360641
-0.0345546
-0.0280206
-0.0216518
-0.0195501
-0.0214173
-0.0232066
-0.0212895
-0.014738
-0.00427185
0.00399287
0.00734709
0.00392141
-0.0058003
-0.0192009
-0.0320354
-0.0402732
-0.0418965
-0.0383764
-0.0337149
-0.0310155
-0.0299719
-0.0277706
-0.0219564
-0.012219
0.00118006
0.00964045
0.0129205
0.00907995
-0.00144989
-0.0159483
-0.0302685
-0.0405245
-0.0446992
-0.0437248
-0.0404004
-0.0369425
-0.0333226
-0.0279515
-0.019502
-0.00782695
0.00649803
0.0140193
0.0169873
0.0130518
0.00249298
-0.0121267
-0.0268856
-0.0380354
-0.0436671
-0.0440982
-0.0411858
-0.0366578
-0.0310001
-0.0237538
-0.014404
-0.00250324
0.0102565
0.0160237
0.0184625
0.0147547
0.00481918
-0.00908618
-0.023314
-0.0342978
-0.0400253
-0.0403638
-0.0367188
-0.0308484
-0.0239238
-0.0163492
-0.00798227
0.00242275
0.0132282
0.0158997
0.0173273
0.0149353
0.00823411
-0.00168961
-0.0126728
-0.0221696
-0.0281017
-0.0294375
-0.0264481
-0.0204685
-0.0132447
-0.00603767
0.000515451
0.00819778
0.0183519
0.0177399
0.020149
0.0188304
0.0131113
0.00454217
-0.00437247
-0.0111408
-0.0140555
-0.0127103
-0.00807625
-0.00207956
0.00329531
0.00661305
0.00795187
0.0144954
0.00441489
0.00231403
0.00457224
0.00416687
0.000237211
-0.00587838
-0.0114249
-0.014191
-0.012784
-0.00751006
-0.000414523
0.00554169
0.00800812
0.00628024
0.00204243
0.00389688
-0.00947566
-0.0129822
-0.0108809
-0.00946728
-0.00981259
-0.0112197
-0.0121375
-0.0108381
-0.00627935
0.0010038
0.00857945
0.012999
0.0119101
0.00539343
-0.00355338
-0.00603717
-0.0224168
-0.0262064
-0.0240254
-0.0211256
-0.0186
-0.0162371
-0.0131229
-0.00804142
-0.000374392
0.0088825
0.0166955
0.0191506
0.0141591
0.00299979
-0.00988645
-0.0159522
-0.0316385
-0.0347821
-0.0324542
-0.0287218
-0.0245822
-0.0200238
-0.0143407
-0.00655616
0.00361352
0.0146143
0.0226512
0.0233152
0.0149702
0.000295848
-0.0150818
-0.023516
-0.0353358
-0.0372338
-0.0348379
-0.0311086
-0.0268808
-0.0220488
-0.0157422
-0.0068868
0.00469113
0.0169377
0.0252481
0.0247309
0.0142937
-0.0020999
-0.0179694
-0.0272108
-0.0335156
-0.033865
-0.0314968
-0.0286056
-0.0257693
-0.0225344
-0.0175674
-0.00941106
0.00226423
0.0150345
0.02359
0.022678
0.0117485
-0.00429239
-0.018729
-0.0269686
-0.0276925
-0.0262878
-0.0239006
-0.0224408
-0.0220347
-0.0217475
-0.0196083
-0.0135951
-0.00313304
0.00922123
0.0177081
0.016995
0.00701938
-0.00686083
-0.0182513
-0.0238476
-0.0196045
-0.0164073
-0.0139473
-0.0139271
-0.0163524
-0.0196431
-0.0211459
-0.0182326
-0.0100327
0.000882473
0.00869893
0.00840486
0.000354312
-0.0101298
-0.0174087
-0.0191535
-0.0108065
-0.00552811
-0.00267271
-0.00393005
-0.00903707
-0.0159132
-0.0212368
-0.0218554
-0.0166615
-0.00810978
-0.00163168
-0.00152266
-0.0071929
-0.0136394
-0.016261
-0.0137259
-0.00166237
0.00565568
0.00908668
0.00689004
-0.000474888
-0.010505
-0.0193594
-0.0235173
-0.0217078
-0.0161118
-0.0113904
-0.0109256
-0.0138533
-0.016118
-0.0142196
-0.00746964
0.00779718
0.0163889
0.0203566
0.0175255
0.00845984
-0.00407139
-0.0158474
-0.0232116
-0.0247331
-0.0221239
-0.0190247
-0.0179119
-0.0179996
-0.0163371
-0.0105849
-0.00022053
0.0168585
0.0254649
0.0296358
0.0264132
0.0162765
0.00215461
-0.0117129
-0.0216538
-0.0259452
-0.0257213
-0.0235944
-0.0213545
-0.0186183
-0.013716
-0.0054234
0.00750797
0.0237348
0.0310872
0.0350915
0.0316715
0.0210702
0.00617171
-0.00879272
-0.0201564
-0.0260443
-0.0269753
-0.0247872
-0.0209699
-0.015817
-0.00885737
0.000366919
0.0139107
0.0265181
0.0316615
0.0352241
0.0318731
0.021473
0.00673546
-0.00819248
-0.0196065
-0.025506
-0.0260113
-0.0226351
-0.0170745
-0.0103779
-0.00302576
0.00496418
0.0174786
0.0258601
0.0273278
0.0300894
0.0282356
0.0208877
0.00953692
-0.00290545
-0.0132482
-0.0191853
-0.0199548
-0.0162778
-0.00979901
-0.00231934
0.00461975
0.0103097
0.0199395
0.0300663
0.0249934
0.028177
0.0264283
0.0190973
0.00883058
-0.00111116
-0.00781874
-0.0097442
-0.00701997
-0.00118501
0.00550699
0.0110989
0.0139923
0.0135166
0.0234177
0.00929293
0.00253805
0.0054406
0.00479862
-0.00010491
-0.0068244
-0.012383
-0.014378
-0.011847
-0.00563415
0.00191627
0.00786331
0.0101079
0.00774009
0.00150659
0.00626024
-0.0113552
-0.0192555
-0.0166669
-0.015262
-0.0161303
-0.0178507
-0.0184645
-0.0161591
-0.0102693
-0.00187982
0.00627201
0.0107845
0.00948507
0.00215319
-0.00908093
-0.00982511
-0.029631
-0.0372489
-0.0349103
-0.0319224
-0.0295223
-0.027058
-0.0233334
-0.0171096
-0.00812748
0.0021343
0.0104543
0.0130734
0.00799551
-0.00392819
-0.0190392
-0.0245839
-0.0420221
-0.0482009
-0.0460794
-0.0422355
-0.037904
-0.0328758
-0.0263379
-0.0173994
-0.00614623
0.0055106
0.0138142
0.0146614
0.00641748
-0.0088
-0.0260001
-0.0349621
-0.0463908
-0.0504671
-0.0485096
-0.0446551
-0.0399963
-0.0344114
-0.0270798
-0.0171496
-0.00485832
0.00751741
0.0156803
0.0152458
0.00506542
-0.011535
-0.0287121
-0.0390767
-0.0428371
-0.044629
-0.0427135
-0.0396185
-0.0361304
-0.0318939
-0.0257468
-0.0165968
-0.0046335
0.00762873
0.0154485
0.014312
0.00363405
-0.0123366
-0.0275181
-0.0369817
-0.0333215
-0.0328494
-0.0307694
-0.0288561
-0.0275743
-0.0260564
-0.0225971
-0.0156755
-0.00528803
0.0059288
0.013022
0.011601
0.00167818
-0.0119978
-0.0236766
-0.0302121
-0.0204235
-0.0176313
-0.0150995
-0.01443
-0.0157601
-0.0176645
-0.0177702
-0.0140304
-0.0062114
0.00307501
0.00895154
0.00744832
-0.000853135
-0.0111445
-0.0184118
-0.0207213
-0.00617643
-0.000889688
0.00238181
0.00198782
-0.00194318
-0.00742858
-0.011432
-0.0113708
-0.00675783
-6.3014e-05
0.00420263
0.00278066
-0.0033507
-0.00971616
-0.012239
-0.00987483
0.00839345
0.0161129
0.0201395
0.0188693
0.0125518
0.00365646
-0.00417492
-0.00789575
-0.00675204
-0.00291281
-0.000253885
-0.00127593
-0.00480541
-0.00710531
-0.00510795
0.00178311
0.022939
0.0315648
0.0363685
0.0343507
0.0259402
0.0140293
0.00278559
-0.00446742
-0.00660525
-0.00535247
-0.00380949
-0.00383482
-0.00441504
-0.00286513
0.00286227
0.0137577
0.0357094
0.0437504
0.0488105
0.0461191
0.0360306
0.0217473
0.00781496
-0.00222827
-0.00693233
-0.00746768
-0.00619486
-0.00456567
-0.00211386
0.00265093
0.0107349
0.0246954
0.044281
0.0501269
0.0550231
0.0517839
0.0406004
0.0249375
0.00938456
-0.00221462
-0.00820569
-0.00929128
-0.00738562
-0.00368154
0.00135997
0.0081295
0.016746
0.0322993
0.0461199
0.048731
0.05321
0.0497242
0.0383621
0.0225304
0.00690283
-0.00458746
-0.0101919
-0.0103786
-0.00687027
-0.00135933
0.00520273
0.0122431
0.0192741
0.0344789
0.0415812
0.0396452
0.0436389
0.0417593
0.0329501
0.0197552
0.00602976
-0.00440558
-0.00935005
-0.00863545
-0.00366315
0.00348168
0.0109312
0.0170541
0.0208649
0.0331606
0.0411827
0.0303968
0.0341441
0.0317849
0.0228537
0.0113533
0.00130672
-0.00421294
-0.00414572
0.000590774
0.00775791
0.0147683
0.0198428
0.0214918
0.0182121
0.0312851
0.0145363
0.00228565
0.00588464
0.00509761
-0.000530135
-0.00751106
-0.0125322
-0.0132877
-0.00932224
-0.00208359
0.0057532
0.0112873
0.0127952
0.00939683
0.00078573
0.00849584
-0.0118568
-0.0242771
-0.021131
-0.0196518
-0.0209046
-0.0226754
-0.0226228
-0.0190075
-0.0116633
-0.00227887
0.00611755
0.010214
0.00820851
-0.000166083
-0.0137635
-0.0127914
-0.0345608
-0.0456489
-0.0429381
-0.0397428
-0.0373653
-0.0346531
-0.0301285
-0.0226679
-0.012471
-0.0015029
0.00686318
0.00910512
0.00354836
-0.0091492
-0.0262681
-0.0313875
-0.0495228
-0.0579693
-0.0557664
-0.0516317
-0.0469852
-0.0413978
-0.0339665
-0.0239828
-0.0119544
-0.000116143
0.00785395
0.00832041
-9.04637e-05
-0.0156518
-0.0342831
-0.0438107
-0.0543458
-0.059706
-0.0578017
-0.0535438
-0.0482602
-0.0418327
-0.033536
-0.022811
-0.0103021
0.00156093
0.00885839
0.00793168
-0.00215243
-0.0186537
-0.0366292
-0.0480056
-0.0492456
-0.0517128
-0.0497494
-0.046044
-0.0416209
-0.0362743
-0.0291014
-0.0194193
-0.00784446
0.00315269
0.00947298
0.00759301
-0.00287002
-0.0183972
-0.0338177
-0.044191
-0.0366008
-0.0364738
-0.034119
-0.0313161
-0.0287937
-0.0259519
-0.0214423
-0.0142357
-0.00476311
0.00447882
0.00951085
0.00704419
-0.00268348
-0.0157203
-0.0272425
-0.0343043
-0.0195398
-0.016853
-0.0137756
-0.0119862
-0.0119134
-0.0124222
-0.0115441
-0.00775329
-0.00121648
0.00568344
0.00915097
0.00642005
-0.00175184
-0.011341
-0.0182479
-0.0207682
-0.000641124
0.00467102
0.00868275
0.00950208
0.00693171
0.00269733
-0.000527669
-0.000616757
0.00257095
0.00685841
0.00879984
0.00621167
0.000200489
-0.00549294
-0.00764395
-0.0053888
0.0187305
0.0262293
0.0311068
0.0309153
0.0256277
0.0175824
0.0102101
0.00616826
0.00601375
0.00785312
0.00869665
0.00685982
0.00354514
0.00180263
0.00400853
0.0108315
0.0374537
0.0455638
0.0510407
0.0497297
0.0417589
0.0301013
0.0188486
0.0112621
0.00822005
0.00821153
0.00873071
0.00840376
0.00814649
0.0100895
0.0156918
0.0267654
0.0533908
0.0599433
0.0655646
0.0631142
0.0527597
0.0381236
0.0237808
0.0134686
0.00843412
0.00751785
0.00862507
0.0103861
0.0132022
0.0181124
0.0256015
0.0403578
0.0633507
0.0663962
0.0718276
0.0684445
0.0563753
0.0397802
0.0237225
0.0121204
0.00640472
0.00570216
0.00817337
0.0120429
0.0173053
0.0239185
0.0314196
0.0487781
0.0641969
0.0627955
0.0679419
0.0642252
0.0515413
0.0346691
0.018707
0.00757652
0.0027048
0.00325835
0.00731963
0.0130191
0.0195018
0.0260318
0.0314659
0.0494378
0.055912
0.0492923
0.0544243
0.0521977
0.0416065
0.0267515
0.0124546
0.00283947
-0.000308932
0.00239121
0.0087937
0.0163732
0.0233147
0.0280365
0.0290494
0.0441542
0.0459327
0.0309663
0.0357194
0.0331975
0.0233792
0.0115305
0.00229841
-0.00138678
0.000748294
0.00709433
0.014792
0.0211027
0.0246388
0.024243
0.0181412
0.033828
0.015191
-0.000162257
0.00450705
0.00404237
-0.00178159
-0.00865102
-0.012961
-0.012563
-0.00742761
0.000322461
0.00780172
0.0122357
0.0123544
0.00747276
-0.00307202
0.00721775
-0.0149329
-0.0291196
-0.0249306
-0.0230687
-0.0244182
-0.0260441
-0.0252861
-0.0205512
-0.0122122
-0.00252399
0.00530945
0.00819975
0.00483636
-0.00485296
-0.019977
-0.017402
-0.0401199
-0.0516532
-0.0482543
-0.0446884
-0.042238
-0.039272
-0.0340903
-0.0257323
-0.0149011
-0.00400922
0.00355166
0.00462814
-0.00196474
-0.0154752
-0.0334585
-0.0379658
-0.0560975
-0.0641995
-0.0615208
-0.0569835
-0.052035
-0.0460296
-0.0379909
-0.0274355
-0.0152961
-0.00407423
0.00276267
0.0021419
-0.00684774
-0.0225782
-0.0413905
-0.0509445
-0.060469
-0.0652527
-0.0629204
-0.0581242
-0.0522494
-0.0451811
-0.0362992
-0.0253494
-0.0133245
-0.00271964
0.00304893
0.00107473
-0.00914945
-0.0252337
-0.0428722
-0.0544058
-0.0536943
-0.0557564
-0.0532919
-0.0487808
-0.0434227
-0.0371873
-0.0294466
-0.0198836
-0.00937666
-0.000305018
0.00411672
0.00118596
-0.00908292
-0.0237782
-0.0385654
-0.0488569
-0.0385631
-0.038341
-0.0353009
-0.0314087
-0.0276442
-0.0237284
-0.0186992
-0.01192
-0.00400432
0.00287926
0.00569705
0.00223798
-0.00705345
-0.0190307
-0.0298321
-0.036582
-0.0186138
-0.0160316
-0.012151
-0.00907285
-0.00759863
-0.00699426
-0.00570614
-0.00257711
0.00214195
0.00652054
0.00781254
0.00427331
-0.00327659
-0.0117286
-0.017998
-0.0202988
0.00337284
0.00850044
0.0132662
0.0153459
0.0140477
0.0107425
0.00776116
0.00689253
0.00830266
0.0103115
0.0104762
0.00746745
0.00221891
-0.00236182
-0.00408783
-0.00199714
0.0257738
0.032852
0.0383199
0.0390986
0.0346903
0.027189
0.0198139
0.0150683
0.0135029
0.0136817
0.0134341
0.0116496
0.00927203
0.00846902
0.0107616
0.0170944
0.0471589
0.0542948
0.0601162
0.0593361
0.0516578
0.0400523
0.028627
0.0205479
0.0167084
0.0158881
0.0160995
0.0162485
0.0169396
0.0195203
0.0247521
0.0354187
0.0649146
0.0695156
0.075396
0.0730382
0.0623492
0.0472871
0.0327186
0.0223127
0.0172141
0.0163436
0.0177647
0.0202103
0.0237629
0.0288753
0.0354429
0.0504349
0.0754669
0.0753517
0.0811329
0.0775538
0.0647252
0.0475158
0.0313116
0.0200216
0.0148602
0.0147723
0.0177849
0.0222925
0.0278918
0.0342279
0.0402591
0.0588657
0.0750891
0.0697104
0.0754868
0.0715486
0.058066
0.0406205
0.0247077
0.0142005
0.0102064
0.0115711
0.0161518
0.0220149
0.0282917
0.0340601
0.037587
0.0578978
0.0634027
0.0529059
0.0593742
0.0569236
0.0449815
0.029198
0.0151468
0.00696521
0.00578204
0.0101826
0.0173914
0.0246534
0.0303471
0.0330759
0.0310915
0.0488002
0.0407766
0.0259756
0.0321722
0.0301601
0.0203636
0.00887627
0.00094789
-0.00135556
0.00208456
0.00881837
0.0157643
0.0203451
0.0216427
0.0189453
0.0112943
0.028792
0.00835682
-0.00528689
0.00091006
0.00122573
-0.00434151
-0.0109538
-0.0147757
-0.0134315
-0.00785866
-0.000376662
0.00600456
0.00874061
0.00700358
0.000472189
-0.010711
0.00115815
-0.0224093
-0.0337409
-0.0282029
-0.0257734
-0.0270384
-0.0285185
-0.0272741
-0.0218636
-0.0132492
-0.00407219
0.00243801
0.00352555
-0.00159051
-0.0125606
-0.02766
-0.0239902
-0.0471866
-0.0553803
-0.0509344
-0.0469991
-0.0445176
-0.0414777
-0.0359485
-0.0272022
-0.0164174
-0.00633447
-0.000247368
-0.000842587
-0.00876458
-0.0229138
-0.0401518
-0.0439536
-0.0618533
-0.0670009
-0.0634941
-0.0586468
-0.0535923
-0.0474433
-0.0392045
-0.0285902
-0.0169257
-0.00687636
-0.00162701
-0.00367088
-0.0134251
-0.0290755
-0.0466748
-0.0555579
-0.064435
-0.0673068
-0.0642467
-0.0590037
-0.0527762
-0.0453985
-0.0363563
-0.0256717
-0.0145762
-0.00552395
-0.00145669
-0.00458444
-0.0150003
-0.0304253
-0.0467607
-0.0573381
-0.055899
-0.0572785
-0.0540467
-0.0487995
-0.0427254
-0.0359371
-0.0280627
-0.0190664
-0.00991573
-0.00271533
-6.41958e-05
-0.00383095
-0.0138221
-0.0275337
-0.041185
-0.050237
-0.039355
-0.0393609
-0.035496
-0.0305648
-0.0257494
-0.0210927
-0.015974
-0.00999884
-0.00373825
0.00110091
0.00227934
-0.0016885
-0.0103004
-0.0211474
-0.0311525
-0.0367975
-0.0184
-0.0164354
-0.0117846
-0.00751915
-0.00481941
-0.00342165
-0.00213074
5.77028e-05
0.00304675
0.00547929
0.00544939
0.0018231
-0.00472133
-0.0120395
-0.017882
-0.019683
0.00432202
0.00877653
0.0140862
0.0173374
0.017134
0.0144771
0.011402
0.00961836
0.00949334
0.00994574
0.00928917
0.00664327
0.00266408
-0.000890964
-0.00253852
-0.000786172
0.0273173
0.0336246
0.0394388
0.0410362
0.0374073
0.0302997
0.0227625
0.0172843
0.0146178
0.0138289
0.0133574
0.0123383
0.0112508
0.0112994
0.0133356
0.0187218
0.0490784
0.0550777
0.061068
0.0607817
0.053457
0.0419569
0.0303836
0.021915
0.0175703
0.0164348
0.0169164
0.0179892
0.0197879
0.0228812
0.027497
0.0372277
0.066809
0.0697447
0.0758211
0.0736868
0.0629671
0.0478031
0.0332117
0.0228608
0.0178634
0.0172243
0.0191716
0.0223873
0.0266053
0.0317284
0.0372772
0.0519681
0.0765614
0.0744255
0.0807144
0.0773054
0.0642385
0.0468914
0.0308568
0.0200128
0.0153914
0.0158237
0.0193057
0.0241806
0.0298366
0.035613
0.040243
0.0595008
0.0746961
0.0673051
0.0740951
0.0705086
0.0567895
0.0392855
0.0236814
0.0138269
0.0105486
0.0124428
0.0172263
0.0228961
0.0285733
0.0332189
0.0350705
0.0569485
0.0604569
0.0492212
0.057202
0.0549277
0.0424783
0.0265907
0.0132852
0.00655347
0.00682514
0.0120065
0.0190007
0.0250479
0.0288462
0.0292983
0.0251315
0.0449408
0.0267052
0.0171598
0.0249113
0.0237616
0.0144864
0.00374979
-0.0035326
-0.00502776
-0.00146836
0.00447401
0.00980503
0.0122938
0.0114438
0.00708748
-6.22601e-05
0.017772
-0.00360746
-0.0112357
-0.00362141
-0.00252217
-0.00776652
-0.014141
-0.0175098
-0.0159776
-0.0105417
-0.00387109
0.00105069
0.0019975
-0.00147913
-0.00916812
-0.0192004
-0.00755541
-0.0315473
-0.0365087
-0.0298582
-0.0271251
-0.0284003
-0.0299221
-0.0284608
-0.0228569
-0.0144831
-0.00625831
-0.00130473
-0.00199091
-0.00863416
-0.0202932
-0.0335835
-0.0299676
-0.0526991
-0.0554151
-0.050133
-0.0462065
-0.0439927
-0.0411676
-0.0356046
-0.0268411
-0.0164822
-0.00744746
-0.00286043
-0.0049609
-0.0139286
-0.0280985
-0.0432412
-0.0466111
-0.0637554
-0.0652976
-0.0611336
-0.0563655
-0.0515907
-0.0456893
-0.0374758
-0.0270657
-0.0160458
-0.00712759
-0.00323341
-0.00640294
-0.0166198
-0.0317849
-0.0474058
-0.0550667
-0.063678
-0.0651599
-0.061481
-0.0561254
-0.0499086
-0.0425361
-0.0335759
-0.0233081
-0.0130908
-0.00524604
-0.00233919
-0.00616307
-0.01654
-0.0312435
-0.046054
-0.0546712
-0.0539447
-0.055814
-0.0519296
-0.0462084
-0.0397281
-0.0326545
-0.0248393
-0.0164146
-0.00832958
-0.00234837
-0.000631685
-0.00468565
-0.0141823
-0.0271118
-0.0400577
-0.0467522
-0.0378194
-0.0392716
-0.0347465
-0.0289977
-0.0233919
-0.0182208
-0.0131549
-0.0078929
-0.00278308
0.000923446
0.00149258
-0.00228618
-0.0100933
-0.020216
-0.0300552
-0.0341089
-0.018389
-0.0180066
-0.0127926
-0.00752933
-0.00385605
-0.00186767
-0.000670685
0.00074996
0.00262425
0.00413828
0.00389586
0.000898775
-0.00459366
-0.0112713
-0.0173879
-0.018661
0.00226415
0.00544079
0.0111175
0.015272
0.016046