/*--------------------------------*- C++ -*----------------------------------*\
| =========                 |                                                 |
| \\      /  F ield         | OpenFOAM: The Open Source CFD Toolbox           |
|  \\    /   O peration     | Version:  3.0.0                                 |
|   \\  /    A nd           | Web:      www.OpenFOAM.org                      |
|    \\/     M anipulation  |                                                 |
\*---------------------------------------------------------------------------*/
FoamFile
{
    version     2.0;
    format      ascii;
    class       surfaceScalarField;
    location    "2";
    object      phi;
}
// * * * * * * * * * * * * * * * * * * * * * * * * * * * * * * * * * * * * * //

dimensions      [0 3 -1 0 0 0 0];

internalField   nonuniform List<scalar> 
11520
(
-0.000274745
2.57695e-05
0.000166426
-0.000173137
4.89593e-05
0.000168519
-5.8167e-05
6.58642e-05
0.000134904
4.61902e-05
8.2113e-05
6.17948e-05
0.000110697
0.000102143
-4.26348e-05
0.000113639
0.000127492
-0.00015963
5.36298e-05
0.000153465
-0.000265089
-4.8371e-05
0.000166628
-0.000338806
-0.000160962
0.000152706
-0.000370258
-0.00025895
0.000109556
-0.000358758
-0.000331493
5.20563e-05
-0.000310338
-0.000379088
2.24706e-06
-0.000234967
-0.000405483
-2.48406e-05
-0.000144214
-0.000411583
-2.79368e-05
-4.95667e-05
-0.000394611
-1.56422e-05
3.80679e-05
-2.38977e-06
0.000104737
-0.000378859
8.78087e-07
0.000139412
-0.00026861
3.78509e-05
0.000108259
-0.000139486
6.81672e-05
4.74306e-05
-1.70743e-05
9.77954e-05
-4.27485e-05
6.98264e-05
0.000129982
-0.000150658
9.86589e-05
0.000163205
-0.000255977
6.53193e-05
0.000186352
-0.000336946
-1.41023e-05
0.000180633
-0.000377727
-0.000113732
0.000133596
-0.000372863
-0.000212399
5.39088e-05
-0.000327181
-0.000301007
-2.9538e-05
-0.000252665
-0.000376871
-8.84277e-05
-0.000163667
-0.000436952
-0.000109578
-7.31576e-05
-0.000474456
-9.8795e-05
8.94414e-06
-0.000481102
-7.0388e-05
7.40364e-05
-4.17529e-05
0.000113471
-0.000468418
-2.88243e-05
9.8752e-05
-0.000347078
7.05831e-06
3.59506e-05
-0.000198879
3.82207e-05
-4.64366e-05
-4.96791e-05
7.13053e-05
-0.000144589
7.19025e-05
0.000109459
-0.0002448
0.0001418
0.000149149
-0.000327791
0.000149214
0.00017516
-0.000375303
0.000100289
0.000163833
-0.000376491
1.23515e-05
0.000102414
-0.000331889
-9.77142e-05
7.31181e-06
-0.000253117
-0.000217483
-8.39145e-05
-0.000158376
-0.00033675
-0.000139517
-6.49952e-05
-0.000441965
-0.000151876
1.51027e-05
-0.000517929
-0.000132595
7.45226e-05
-0.000552106
-9.88811e-05
0.000109163
-6.65051e-05
0.000116741
-0.00052745
-6.22125e-05
5.09389e-05
-0.000394862
-4.12642e-05
-3.74403e-05
-0.000226603
-2.12253e-05
-0.000133029
-4.80147e-05
5.25993e-06
-0.000229044
0.000112949
4.20027e-05
-0.000312112
0.00022989
8.57961e-05
-0.000366181
0.000283313
0.00012082
-0.000377672
0.000266395
0.000120137
-0.000340328
0.000186067
6.74975e-05
-0.000259897
5.72614e-05
-1.94304e-05
-0.000154553
-0.000101688
-9.98597e-05
-4.77069e-05
-0.000269276
-0.000143202
4.23525e-05
-0.000421307
-0.000147246
0.000105595
-0.000535317
-0.000127287
0.000137845
-0.000595815
-0.000100133
0.000138857
-7.58859e-05
0.000114348
-0.000546553
-9.46781e-05
4.27713e-06
-0.000405286
-9.85011e-05
-0.000100518
-0.000221012
-9.84913e-05
-0.000199544
-1.84038e-05
-8.64071e-05
-0.000284107
0.000176112
-5.77236e-05
-0.000343299
0.000334262
-1.31424e-05
-0.000365752
0.000429653
3.40154e-05
-0.000343304
0.000442867
5.67808e-05
-0.000273592
0.000369366
3.37134e-05
-0.000166187
0.000221767
-2.32052e-05
-4.44762e-05
2.57544e-05
-7.71819e-05
6.51711e-05
-0.000185396
-0.00010205
0.000144889
-0.000377856
-0.000100115
0.000187625
-0.000523604
-8.72385e-05
0.000191754
-0.000605271
-7.69594e-05
0.000160446
-7.11798e-05
0.000106817
-0.000524901
-0.000118856
-3.30188e-05
-0.000379537
-0.000152323
-0.000143806
-0.000186702
-0.000176794
-0.000236115
2.97239e-05
-0.000183552
-0.000301497
0.000243925
-0.000166935
-0.000332616
0.000428448
-0.000125353
-0.000323904
0.000553809
-6.74496e-05
-0.000272558
0.00059203
-1.66156e-05
-0.000179925
0.000527691
2.39093e-06
-5.82249e-05
0.000368714
-8.65007e-06
6.70042e-05
0.000146753
-2.38563e-05
0.000168802
-9.57209e-05
-2.6348e-05
0.000232279
-0.000316713
-2.06507e-05
0.000253151
-0.000484303
-2.05972e-05
0.000231301
-0.000579719
-3.39321e-05
0.00017248
-5.39363e-05
9.52903e-05
-0.000469034
-0.000127508
-5.53993e-05
-0.000324452
-0.0001909
-0.000160752
-0.000131487
-0.000240373
-0.000237049
8.67709e-05
-0.000266965
-0.000277724
0.00030569
-0.000264162
-0.000279892
0.000499153
-0.000228461
-0.000243424
0.00063845
-0.000164213
-0.000170563
0.000692739
-8.86652e-05
-6.63952e-05
0.000639215
-2.58428e-05
5.53013e-05
0.000479679
1.59336e-05
0.000169428
0.000246773
4.60711e-05
0.000253116
-1.06152e-05
6.93759e-05
0.00029627
-0.000245497
7.80155e-05
0.000296044
-0.000423305
6.29626e-05
0.000252941
-0.000524341
2.36562e-05
0.000174273
-2.54415e-05
8.15953e-05
-0.000389752
-0.000117177
-5.98407e-05
-0.000249925
-0.000207252
-0.000148836
-6.39731e-05
-0.000279278
-0.000201908
0.000146263
-0.000324121
-0.000215739
0.000357429
-0.000334825
-0.000191987
0.000545124
-0.000306751
-0.000134995
0.00068335
-0.000240962
-5.08096e-05
0.000742401
-0.000148757
5.22332e-05
0.000697227
-4.90106e-05
0.000159653
0.00054515
4.3266e-05
0.000250275
0.000316177
0.000119746
0.00030864
6.02325e-05
0.000169859
0.000329715
-0.000173807
0.000182337
0.000311469
-0.000350033
0.000153264
0.000254038
-0.000448725
8.98807e-05
0.000165533
1.24946e-05
6.79523e-05
-0.000299296
-8.96596e-05
-4.6389e-05
-0.000166761
-0.000200442
-0.000109981
7.38286e-06
-0.00029036
-0.000135974
0.000202961
-0.000350164
-0.000125042
0.000398214
-0.000372787
-8.27043e-05
0.000570471
-0.000353228
-1.63404e-05
0.000695925
-0.000290449
6.59062e-05
0.000748483
-0.000189761
0.000154509
0.000705315
-6.36491e-05
0.000235697
0.000562893
6.9781e-05
0.000295012
0.000347838
0.000186769
0.000325494
0.000106985
0.000261829
0.00032635
-0.00011252
0.000279346
0.000295633
-0.00027596
0.000239844
0.000232906
-0.000364649
0.000157471
0.000146384
5.6551e-05
5.6399e-05
-0.000209628
-5.11985e-05
-1.79804e-05
-8.55279e-05
-0.000174518
-5.0442e-05
7.43726e-05
-0.000275882
-4.96489e-05
0.000251979
-0.000345983
-2.01276e-05
0.000427057
-0.000378078
2.98928e-05
0.000578079
-0.000367151
9.1932e-05
0.000682812
-0.000310368
0.000157749
0.000718818
-0.000207916
0.000218809
0.000668808
-6.63484e-05
0.000265429
0.000533014
9.48906e-05
0.000290994
0.000336564
0.000241008
0.000295996
0.000120878
0.000335026
0.000281911
-7.24356e-05
0.000357504
0.000246518
-0.000212851
0.000312059
0.000189162
-0.00028447
0.000217693
0.0001176
0.000100774
4.84217e-05
-0.000131782
-1.03314e-05
2.04143e-05
-1.6065e-05
-0.000136315
2.03699e-05
0.00012921
-0.000241084
4.35301e-05
0.000288118
-0.000315795
8.24072e-05
0.000441345
-0.000354069
0.000127628
0.000567546
-0.00035085
0.00017115
0.000645224
-0.000301428
0.000207016
0.000655859
-0.00020167
0.000230536
0.000590177
-5.42824e-05
0.00023874
0.000456036
0.000119818
0.000232988
0.000279363
0.000279326
0.00021831
9.55519e-05
0.00038182
0.00019677
-6.2295e-05
0.000406636
0.000166077
-0.00017104
0.000359206
0.000125578
-0.000219455
0.000260634
8.14193e-05
0.000137437
4.46447e-05
-7.56629e-05
2.47288e-05
6.31635e-05
3.24786e-05
-9.29301e-05
9.17913e-05
0.00016444
-0.000192157
0.000129626
0.000305657
-0.000264807
0.000167147
0.000436637
-0.000304951
0.000195339
0.000535082
-0.000307184
0.000208479
0.000580108
-0.000264687
0.000204872
0.000558339
-0.000170363
0.000186335
0.000470611
-2.60082e-05
0.00015773
0.000334402
0.000144947
0.000126657
0.000177931
0.000299634
0.000100026
3.03307e-05
0.000396955
7.96422e-05
-8.58807e-05
0.000418589
6.33024e-05
-0.0001574
0.000371545
5.00418e-05
-0.000178784
0.000276937
4.27675e-05
0.00015855
4.54202e-05
-4.94897e-05
4.81474e-05
0.000105101
5.26408e-05
-5.02376e-05
0.000153872
0.000173674
-0.000134783
0.000196283
0.000299157
-0.000198237
0.000221906
0.000408003
-0.000235027
0.000223305
0.000476333
-0.000238995
0.000198619
0.000484761
-0.00020154
0.000152486
0.000427151
-0.000114885
9.44832e-05
0.000315674
1.68189e-05
3.63728e-05
0.00017771
0.000168253
-1.06805e-05
4.28456e-05
0.000299267
-4.0051e-05
-6.68869e-05
0.00037654
-5.04241e-05
-0.00014017
0.00038828
-4.39562e-05
-0.000173722
0.0003433
-2.33013e-05
-0.000168579
0.000260089
9.66421e-06
0.000158232
5.12841e-05
-5.88665e-05
5.7766e-05
0.000141623
3.95227e-05
-1.21811e-05
0.000198183
0.000152778
-7.40184e-05
0.000234115
0.000265192
-0.000121625
0.000238844
0.000353004
-0.000149442
0.000207629
0.000391023
-0.000150534
0.000144009
0.000363047
-0.000115701
6.00174e-05
0.000272032
-4.00349e-05
-2.74684e-05
0.000141795
6.83075e-05
-0.000102329
6.47429e-06
0.000183323
-0.000153204
-0.000105398
0.000273574
-0.000174566
-0.000179569
0.000318494
-0.000166401
-0.000215186
0.000315611
-0.000132168
-0.000217397
0.000275213
-7.74992e-05
-0.000190813
0.000211204
-9.23471e-06
0.000135333
6.25437e-05
-0.000105361
5.53212e-05
0.000167972
-7.87544e-06
1.91386e-05
0.000218271
0.000101644
-1.50124e-05
0.000237221
0.000204799
-4.18614e-05
0.000214867
0.000275059
-5.56767e-05
0.000150276
0.000287389
-4.94588e-05
5.3187e-05
0.000229959
-1.54207e-05
-5.73099e-05
0.000116032
4.44205e-05
-0.000158823
-2.25401e-05
0.00011775
-0.000234287
-0.000148973
0.000182032
-0.000274073
-0.000238694
0.000219611
-0.000275839
-0.000285836
0.000226306
-0.000242655
-0.000296969
0.000208949
-0.00018106
-0.000281323
0.000177376
-9.97622e-05
-0.000243989
0.000138593
-8.78117e-06
9.45641e-05
7.77747e-05
-0.000184706
0.00017853
-8.47919e-05
0.000209849
2.60827e-05
0.00020395
0.000125897
0.000152423
0.000186338
5.84945e-05
0.000183927
-6.21118e-05
0.000113793
-0.000184772
-5.69342e-06
-0.000284731
-0.00013928
-0.000344327
-0.000252518
-0.000357969
-0.00032755
-0.000329389
-0.000364086
-0.000267861
-0.000370902
-0.00018405
-0.000355816
-8.8333e-05
-0.000321206
9.47065e-06
9.31869e-05
-0.000280171
-8.09847e-05
0.000114288
-0.000168847
-4.35047e-05
6.89821e-05
-5.3644e-05
1.47668e-06
6.09827e-06
4.02775e-05
5.68626e-05
-6.79809e-05
8.72098e-05
0.000119852
-0.000141458
7.26056e-05
0.000182358
-0.000202174
1.7402e-06
0.000231774
-0.000241152
-0.000102614
0.000252942
-0.000253959
-0.000212276
0.000234662
-0.000239718
-0.000306132
0.00017792
-0.000200432
-0.000375362
9.86612e-05
-0.000141285
-0.000420379
1.99932e-05
-7.10948e-05
-0.000443764
-4.00824e-05
-8.23926e-07
-0.000445041
-7.5401e-05
5.90655e-05
-0.000420431
-8.92143e-05
0.000100442
-8.86185e-05
0.00011777
-0.000349713
-0.000130805
9.78116e-05
-0.000229983
-7.79944e-05
2.30188e-05
-0.00010002
-1.82361e-05
-6.28198e-05
1.38206e-05
5.16403e-05
-0.000151367
8.45529e-05
0.000127113
-0.000228651
9.52e-05
0.000196827
-0.000281094
4.71568e-05
0.000243085
-0.000300213
-4.06669e-05
0.000246798
-0.00028376
-0.0001428
0.000198639
-0.000234707
-0.000240009
0.000108682
-0.000160735
-0.000324672
4.66653e-06
-7.40061e-05
-0.00039543
-8.35935e-05
1.06772e-05
-0.000449588
-0.000139502
8.04197e-05
-0.000479578
-0.000162968
0.000126501
-0.000476701
-0.000162649
0.000144594
-0.000146303
0.000135588
-0.000405078
-0.000185785
6.08679e-05
-0.000274527
-0.000131702
-4.08921e-05
-0.000125673
-6.97711e-05
-0.000143756
1.49508e-05
4.18878e-06
-0.000237761
0.000120322
8.56433e-05
-0.000308701
0.000170496
0.000162263
-0.000343401
0.000159677
0.000213147
-0.000334546
9.79069e-05
0.000214474
-0.000282398
4.05862e-06
0.000155282
-0.000194683
-0.000105399
5.11969e-05
-8.61744e-05
-0.000220509
-6.15607e-05
2.29615e-05
-0.00033319
-0.000149191
0.000113283
-0.000430952
-0.000198703
0.000172067
-0.000497788
-0.000215761
0.000194151
-0.000520078
-0.000211647
0.000180452
-0.00019137
0.000139672
-0.000435649
-0.000238374
9.71661e-06
-0.000295272
-0.00019621
-0.000113309
-0.000128099
-0.000144254
-0.00022572
4.04016e-05
-7.70668e-05
-0.00031629
0.000184128
2.23679e-06
-0.000372433
0.000280365
8.31786e-05
-0.000383334
0.000314319
0.000145219
-0.000343698
0.000283553
0.000160704
-0.000255792
0.000197409
0.000113008
-0.00013148
6.99214e-05
1.6901e-05
7.23093e-06
-8.3975e-05
-8.75995e-05
0.000132228
-0.00024543
-0.000166001
0.000220618
-0.000390349
-0.000209634
0.000261446
-0.000494533
-0.00022776
0.000254027
-0.000540927
-0.000231196
0.0002048
-0.0002192
0.000130712
-0.000437568
-0.000279758
-4.75589e-05
-0.000290848
-0.000259369
-0.00018408
-0.000110259
-0.000226705
-0.000297682
8.04934e-05
-0.000175106
-0.00037682
0.000256979
-0.000105596
-0.000411951
0.000395306
-2.48086e-05
-0.000396092
0.000473401
5.05321e-05
-0.000326712
0.000475778
9.21725e-05
-0.000207438
0.000399364
7.60419e-05
-5.28062e-05
0.000254151
9.26536e-06
0.000108373
6.1817e-05
-7.1226e-05
0.000241131
-0.000146021
-0.000133908
0.000320634
-0.00033346
-0.000173629
0.00033906
-0.000469601
-0.00020012
0.000300256
-0.000535557
-0.000220612
0.000215818
-0.000227313
0.000110161
-0.000412883
-0.000301296
-0.000102683
-0.000264357
-0.000308706
-0.000242995
-7.73405e-05
-0.000300847
-0.00034899
0.000126161
-0.000270241
-0.000409864
0.000323542
-0.000215623
-0.000419971
0.000491361
-0.000139656
-0.000376875
0.000604225
-5.35157e-05
-0.000281374
0.000637024
1.7803e-05
-0.000138355
0.000573469
4.51948e-05
3.61765e-05
0.000416943
2.41267e-05
0.000208669
0.000194683
-1.94764e-05
0.000339313
-4.9141e-05
-6.14529e-05
0.000403647
-0.000268201
-9.89575e-05
0.00039754
-0.000426893
-0.000138812
0.000328685
-0.000505825
-0.000182193
0.000212993
-0.000214529
8.07666e-05
-0.000367715
-0.000297999
-0.000147123
-0.000221222
-0.000335275
-0.000280676
-3.44658e-05
-0.000354044
-0.000370609
0.000172025
-0.000346224
-0.000408232
0.000377054
-0.000308469
-0.000392074
0.000558332
-0.000240308
-0.000324051
0.000690555
-0.000148037
-0.000208264
0.000744406
-5.11345e-05
-5.13094e-05
0.000693799
2.11657e-05
0.000129938
0.000534303
5.33702e-05
0.00029968
0.000295856
5.46474e-05
0.00041744
3.19342e-05
3.72145e-05
0.000461525
-0.000203899
1.84743e-06
0.000431072
-0.000373456
-5.28763e-05
0.000336562
-0.000457828
-0.000120628
0.000197081
-0.000181346
4.6725e-05
-0.000309687
-0.000270123
-0.000173792
-0.000167683
-0.000335797
-0.000290317
1.36147e-05
-0.000379757
-0.000357493
0.000214964
-0.000393378
-0.000369934
0.0004162
-0.000371691
-0.00033
0.000596183
-0.000312307
-0.00024298
0.00073117
-0.000218342
-0.000115492
0.000791937
-0.000103698
4.40295e-05
0.000748804
6.31249e-06
0.000217639
0.000592296
8.97131e-05
0.00037044
0.000352371
0.000137293
0.00046592
8.6116e-05
0.000146229
0.000486956
-0.000150183
0.000114501
0.000435115
-0.000318056
4.66832e-05
0.000322352
-0.00040001
-4.302e-05
0.000169878
-0.000130882
1.32396e-05
-0.000246568
-0.000223155
-0.000178421
-0.000110251
-0.000312489
-0.000269606
6.19846e-05
-0.000377274
-0.000310692
0.000252099
-0.000408436
-0.000300098
0.00044082
-0.000400077
-0.00024304
0.000607932
-0.000349048
-0.00014671
0.000731291
-0.000256729
-1.90655e-05
0.000784098
-0.000132397
0.000130401
0.000738896
4.34628e-06
0.000282866
0.000587
0.000129174
0.000407447
0.000357476
0.000217247
0.000475063
0.000105349
0.000250885
0.000473821
-0.000115654
0.000224497
0.00040664
-0.000269686
0.000147795
0.000285826
-0.000341331
4.09738e-05
0.000134035
-6.9521e-05
-1.46614e-05
-0.000185895
-0.000166163
-0.000160575
-5.57515e-05
-0.000271324
-0.00022175
0.00010508
-0.000349976
-0.000237779
0.000279734
-0.000392805
-0.000210412
0.000449705
-0.000393867
-0.000146288
0.00059543
-0.000349944
-5.28967e-05
0.00069591
-0.000261445
6.19848e-05
0.000727914
-0.000133905
0.000188314
0.000670453
1.85723e-05
0.000308663
0.000521595
0.000170509
0.000398518
0.000310236
0.000287093
0.000437509
8.53275e-05
0.000339317
0.000418388
-0.000106785
0.000318408
0.00034472
-0.000235887
0.000237107
0.000228953
-0.000289981
0.000119609
9.30596e-05
-6.59885e-06
-3.29838e-05
-0.00013498
-0.000109344
-0.000123666
-1.10586e-05
-0.000220005
-0.00015487
0.000136885
-0.000303276
-0.000151113
0.00029346
-0.000350679
-0.000116296
0.000440524
-0.000356479
-5.68245e-05
0.000558584
-0.000317733
2.08783e-05
0.000627623
-0.000234027
0.00011056
0.000629061
-0.000107895
0.000203088
0.0005518
4.99094e-05
0.000284664
0.000403819
0.00021308
0.000338397
0.000215179
0.000341814
0.000352229
2.6564e-05
0.000402073
0.00032263
-0.00012637
0.000383813
0.000253606
-0.000221941
0.000301262
0.000156994
-0.000252589
0.000179976
5.16999e-05
4.7145e-05
-3.94464e-05
-0.00010084
-6.16486e-05
-7.3744e-05
1.66055e-05
-0.000165779
-7.98804e-05
0.00015159
-0.000243692
-6.4943e-05
0.000289104
-0.00028774
-3.33053e-05
0.000410827
-0.000292981
1.01184e-05
0.000496715
-0.000256791
6.1649e-05
0.00052836
-0.000177695
0.000116895
0.00049351
-5.66151e-05
0.000169905
0.000393172
9.64146e-05
0.000211562
0.000246023
0.000254003
0.000232883
8.31324e-05
0.000376257
0.000228473
-6.39328e-05
0.000430942
0.000197839
-0.000172168
0.000410027
0.000145323
-0.000229644
0.000328309
8.04713e-05
-0.000233892
0.000210569
1.64228e-05
8.1841e-05
-3.31167e-05
-8.92876e-05
-2.94478e-05
-1.79321e-05
2.22408e-05
-0.000115181
-8.25406e-06
0.000145084
-0.000177675
7.42355e-06
0.000264119
-0.00021054
2.56713e-05
0.000359679
-0.000209683
4.44468e-05
0.000411196
-0.000172592
6.29036e-05
0.000402995
-9.74266e-05
8.04191e-05
0.000331476
1.46144e-05
9.47731e-05
0.000210229
0.000151758
0.000102276
6.70079e-05
0.00028652
0.000100023
-6.80429e-05
0.000383781
8.74758e-05
-0.000172928
0.000419032
6.63708e-05
-0.000236803
0.000389533
4.04113e-05
-0.000257274
0.000310616
1.48635e-05
-0.000236511
0.000204177
-4.70771e-06
9.07846e-05
-1.40503e-05
-0.000103974
-1.59392e-05
3.63363e-05
2.94197e-06
-7.34753e-05
4.95623e-05
0.000116077
-0.000112156
5.54606e-05
0.000219013
-0.000126928
5.22946e-05
0.000290123
-0.000114491
4.13278e-05
0.000308628
-7.29971e-05
2.59084e-05
0.000263416
-1.62564e-06
9.42802e-06
0.000160922
9.59385e-05
-6.29759e-06
2.59998e-05
0.000205073
-2.0722e-05
-0.000108373
0.00030065
-3.29609e-05
-0.000215452
0.000357298
-4.10045e-05
-0.000282665
0.000362535
-4.26907e-05
-0.000309392
0.000320911
-3.68199e-05
-0.000300449
0.000247836
-2.36614e-05
-0.000260865
0.000160331
-4.97183e-06
7.21946e-05
1.60205e-05
-0.000144643
-2.11686e-05
8.10678e-05
-4.00729e-05
-4.4813e-05
8.50382e-05
6.73495e-05
-5.45594e-05
7.22019e-05
0.000158769
-4.62325e-05
4.27517e-05
0.00021049
-1.78049e-05
1.86926e-06
0.000202634
3.074e-05
-4.26941e-05
0.000129741
9.72949e-05
-8.3338e-05
7.85626e-06
0.000173705
-0.000114705
-0.000130707
0.000243315
-0.000133965
-0.00025199
0.000287104
-0.000139243
-0.000334829
0.00029366
-0.000129361
-0.000374804
0.000264721
-0.000104867
-0.000378107
0.000211919
-6.8765e-05
-0.000352972
0.000149124
-2.61844e-05
-0.000304541
8.66312e-05
1.64876e-05
3.0002e-05
5.22026e-05
-0.000204977
0.000107221
-0.000100004
9.17819e-05
6.48868e-06
5.50238e-05
9.30646e-05
-1.39363e-06
0.000134721
-6.89286e-05
0.000113493
-0.000135353
2.96269e-05
-0.000188456
-9.51542e-05
-0.000219679
-0.000226534
-0.000225172
-0.000334076
-0.000205713
-0.000402523
-0.000165767
-0.000432201
-0.00011231
-0.00043108
-5.31744e-05
-0.000406357
4.11225e-06
-0.000360735
5.27106e-05
8.60198e-05
-0.000208722
-0.000170447
7.34574e-05
-0.000108126
-0.000113771
-6.02975e-06
-1.8695e-05
-3.76687e-05
-8.57965e-05
3.83379e-05
5.49783e-05
-0.000151664
4.67221e-05
0.000154031
-0.000192341
3.32381e-06
0.000244563
-0.000204275
-7.96581e-05
0.000309819
-0.000190904
-0.000180403
0.000334537
-0.000158127
-0.000276379
0.000309519
-0.000110754
-0.000351953
0.000237278
-5.19877e-05
-0.000401263
0.000134329
1.36946e-05
-0.000425718
2.51676e-05
7.81398e-05
-0.000428489
-6.80298e-05
0.000130155
-0.000409949
-0.00013326
0.000159372
-0.000368142
-0.00016834
0.000159229
-0.000173749
0.000130473
-0.000248835
-0.000235581
6.85171e-05
-0.000140129
-0.000162132
-3.73264e-05
-3.37135e-05
-6.96077e-05
-0.000137296
4.74672e-05
3.87439e-05
-0.000216313
8.37112e-05
0.000150606
-0.000261469
6.6834e-05
0.000247721
-0.000267374
4.08149e-06
0.000309161
-0.000236802
-8.51196e-05
0.000316853
-0.000176875
-0.000178583
0.000263642
-9.53663e-05
-0.000260412
0.000159822
-1.45078e-06
-0.000325575
3.18494e-05
9.36363e-05
-0.000374471
-8.87066e-05
0.000173447
-0.000406364
-0.00018004
0.000224323
-0.000415722
-0.000235393
0.000237991
-0.000395225
-0.000257341
0.000213098
-0.000247086
0.000156964
-0.000279464
-0.000302852
3.4017e-05
-0.000160664
-0.000226357
-9.5467e-05
-3.42942e-05
-0.000130415
-0.000209318
7.64997e-05
-1.73448e-05
-0.000292466
0.000150379
0.000100584
-0.000332559
0.000174093
0.000204435
-0.000323829
0.000146805
0.00027054
-0.000268637
8.0073e-05
0.00027648
-0.000175292
-8.42277e-06
0.000213097
-5.56422e-05
-0.000104153
9.49403e-05
7.44375e-05
-0.000199638
-4.36105e-05
0.000193906
-0.000289538
-0.000166358
0.000280835
-0.000364274
-0.000253461
0.000320224
-0.000409953
-0.000303473
0.000307911
-0.000414187
-0.000321796
0.000249141
-0.000307469
0.000159454
-0.00029489
-0.000361256
-2.40141e-05
-0.00016779
-0.000294627
-0.000172139
-2.30586e-05
-0.000207898
-0.000292969
0.000117287
-0.000101905
-0.000372075
0.000231757
1.30701e-05
-0.000399389
0.000302662
0.000120616
-0.000370419
0.000319431
0.000197683
-0.000287611
0.000281975
0.00021797
-0.000159826
0.00020025
0.000166188
-2.84714e-06
8.66599e-05
5.46173e-05
0.000161144
-4.65968e-05
-7.8441e-05
0.000300315
-0.000184687
-0.00019469
0.00038704
-0.000306478
-0.000277401
0.000407176
-0.000389572
-0.000328577
0.000362225
-0.000417919
-0.000353501
0.000264853
-0.000346928
0.000139276
-0.000294141
-0.000400091
-9.68922e-05
-0.000162611
-0.000353621
-0.000256616
-4.94215e-06
-0.000286285
-0.000376963
0.000158602
-0.000197372
-0.000444898
0.000307531
-9.40402e-05
-0.00045377
0.00042181
1.19184e-05
-0.000401674
0.000483054
0.000101492
-0.000291765
0.000478893
0.000147396
-0.000132704
0.000407762
0.000126382
5.81306e-05
0.000278297
4.25181e-05
0.000249937
0.000107779
-6.90593e-05
0.000402268
-7.66746e-05
-0.000171507
0.000481904
-0.000241565
-0.000250757
0.000477306
-0.000357181
-0.000309284
0.000396578
-0.000405645
-0.000349158
0.000259939
-0.000359953
9.98492e-05
-0.000279594
-0.000411955
-0.000173926
-0.000147657
-0.000392433
-0.000336118
1.616e-05
-0.000351161
-0.000447931
0.000193258
-0.000285818
-0.000498516
0.000364444
-0.00020004
-0.000485158
0.000509445
-0.000100726
-0.000409232
0.000606245
-1.39477e-06
-0.000275288
0.000633532
7.3298e-05
-9.1544e-05
0.000577321
9.47287e-05
0.000124042
0.000438775
5.50157e-05
0.000334717
0.000239101
-2.12958e-05
0.000491223
1.79416e-05
-0.000103711
0.000557011
-0.000179507
-0.000180192
0.000524424
-0.000318432
-0.000250057
0.000408384
-0.000380735
-0.000309777
0.000235915
-0.000344036
4.68151e-05
-0.000254845
-0.000394629
-0.000243066
-0.000125341
-0.000405362
-0.000397252
3.85857e-05
-0.000393157
-0.000492539
0.000219568
-0.000353884
-0.000521147
0.000399438
-0.000287778
-0.000484206
0.000558721
-0.000197801
-0.00038626
0.000675378
-9.27712e-05
-0.000233545
0.000724635
7.21179e-06
-3.448e-05
0.000683034
7.26483e-05
0.000193619
0.000543083
8.51135e-05
0.000409533
0.00032729
5.30505e-05
0.000558886
8.50789e-05
-4.55928e-06
0.000604584
-0.000129982
-7.75228e-05
0.000543464
-0.000280246
-0.000159658
0.000396427
-0.000348703
-0.000240331
0.000196092
-0.00030036
-1.21922e-05
-0.000223292
-0.000351718
-0.000293038
-9.7588e-05
-0.000392572
-0.000428811
6.17917e-05
-0.000408787
-0.000501243
0.000238358
-0.000394274
-0.000506111
0.000414754
-0.000346467
-0.000447707
0.000572682
-0.000265837
-0.000332872
0.000691845
-0.000158314
-0.000169111
0.000747983
-3.96932e-05
3.47966e-05
0.000714272
6.37137e-05
0.000260285
0.000577447
0.00012671
0.000465668
0.00035951
0.00014081
0.000596097
0.000114349
0.000110207
0.00061735
-0.000101002
4.23701e-05
0.000530573
-0.00024923
-4.9921e-05
0.000360843
-0.000315278
-0.00014964
0.000145234
-0.000234717
-6.80532e-05
-0.000187943
-0.000291572
-0.000315494
-6.65138e-05
-0.000358791
-0.000424816
8.4711e-05
-0.000399105
-0.000471599
0.000250025
-0.000404702
-0.000454984
0.000412974
-0.000371268
-0.000381189
0.000556624
-0.000298171
-0.000258026
0.000662828
-0.000190045
-9.3538e-05
0.000709977
-5.92047e-05
0.000102763
0.000673243
7.21619e-05
0.000311152
0.000539862
0.000176263
0.000491274
0.000331653
0.000230649
0.000593433
0.000101185
0.000225227
0.000589269
-9.76612e-05
0.00016431
0.000483547
-0.000230417
6.48855e-05
0.000303776
-0.000285261
-5.00539e-05
8.92933e-05
-0.000156932
-0.000112836
-0.000152066
-0.000225026
-0.000307074
-3.52775e-05
-0.00031104
-0.00038629
0.000104779
-0.000367654
-0.000409287
0.000253363
-0.000386164
-0.000377534
0.000395101
-0.000361678
-0.000297616
0.000514445
-0.000293457
-0.000176954
0.000595476
-0.000185636
-2.34555e-05
0.000620101
-4.82604e-05
0.000152745
0.000569593
0.00010036
0.000330972
0.000437856
0.000231577
0.000474941
0.000247959
0.000313932
0.000544122
4.65641e-05
0.000327126
0.000517884
-0.000120758
0.000272333
0.000404019
-0.000226359
0.000169133
0.000230306
-0.000261863
4.35424e-05
3.49673e-05
-7.9611e-05
-0.000140149
-0.000119848
-0.000162685
-0.000270152
-8.33366e-06
-0.000256577
-0.000320848
0.0001181
-0.000318996
-0.000326204
0.00024601
-0.000341764
-0.000288605
0.000360989
-0.000320173
-0.000213308
0.000448744
-0.000254007
-0.000106328
0.000495534
-0.000147035
2.51694e-05
0.000488204
-8.10338e-06
0.000170261
0.000416935
0.00014724
0.000309053
0.000285953
0.000289318
0.000411637
0.00012034
0.00038306
0.000448715
-4.18534e-05
0.000403921
0.000408028
-0.000167124
0.000351674
0.000299536
-0.000236821
0.000246705
0.00014912
-0.000247026
0.000116002
-1.05546e-05
-1.55197e-05
-0.00014657
-9.64143e-05
-0.000112925
-0.000211584
8.83971e-06
-0.000201641
-0.00024007
0.000120544
-0.000258526
-0.000237118
0.000225809
-0.000276366
-0.000203968
0.000310821
-0.000251627
-0.00014344
0.000362521
-0.000184599
-5.94588e-05
0.000369888
-7.91157e-05
4.16083e-05
0.000325994
5.68663e-05
0.00014883
0.000232711
0.000207131
0.000244955
0.000104392
0.000342817
0.000307704
-3.28185e-05
0.000429495
0.000319248
-0.000150741
0.000444555
0.000275128
-0.000229164
0.000389186
0.000186233
-0.000259318
0.00028382
7.35112e-05
-0.000241963
0.000154606
-3.9537e-05
2.50616e-05
-0.000131167
-8.67772e-05
-8.13526e-05
-0.000140455
1.22374e-05
-0.000152091
-0.000156819
0.000109445
-0.000192263
-0.000156046
0.000192373
-0.000196728
-0.000136894
0.000247126
-0.000163098
-9.88348e-05
0.000261612
-9.2681e-05
-4.35011e-05
0.000228841
1.02266e-05
2.3848e-05
0.000150434
0.000136841
9.32048e-05
3.93239e-05
0.000269819
0.000150698
-8.19888e-05
0.000381729
0.000182424
-0.000188821
0.000443598
0.000180205
-0.000263092
0.00043986
0.000145337
-0.000296784
0.000375881
8.74087e-05
-0.000290068
0.000272092
1.98756e-05
-0.000247753
0.000152118
-4.45341e-05
3.60283e-05
-9.50427e-05
-9.45039e-05
-7.10477e-05
-6.65188e-05
-8.81597e-07
-0.000113278
-8.28724e-05
8.47407e-05
-0.000128011
-9.44142e-05
0.000148671
-0.000111959
-9.64046e-05
0.000176323
-6.46248e-05
-8.47979e-05
0.000157038
1.11158e-05
-5.86032e-05
8.91292e-05
0.0001094
-2.18371e-05
-1.65669e-05
0.000219154
1.70857e-05
-0.000137644
0.000322026
4.81478e-05
-0.000247407
0.000394484
6.40476e-05
-0.000325158
0.000417216
6.31275e-05
-0.000362137
0.0003853
4.8848e-05
-0.000359946
0.000309938
2.6932e-05
-0.000325194
0.00021117
2.50853e-06
-0.000265084
0.000108345
-2.13096e-05
1.60941e-05
-4.20748e-05
-0.000119387
-8.29528e-05
-2.94566e-07
-2.85717e-05
-9.06519e-05
-2.84029e-05
5.01074e-05
-7.45212e-05
-5.99669e-05
0.000101146
-3.32689e-05
-8.6977e-05
0.000108888
3.12026e-05
-0.000101701
6.44318e-05
0.000113284
-0.000100406
-2.82084e-05
0.000203905
-8.5202e-05
-0.000150081
0.000288932
-6.26093e-05
-0.000272538
0.000350336
-3.98184e-05
-0.000368483
0.000371905
-2.0719e-05
-0.000422597
0.000347425
-5.45583e-06
-0.000433807
0.000284181
7.46154e-06
-0.000409899
0.00019895
1.83144e-05
-0.000360492
0.000109939
2.56399e-05
-0.000292747
3.05151e-05
2.65728e-05
-3.10686e-05
1.9272e-05
-0.000155325
4.66021e-05
-6.4752e-05
-1.25651e-06
1.24506e-05
-5.65678e-05
5.87157e-05
-0.000109255
5.75521e-05
-0.000148094
2.04398e-06
-0.000165625
-9.89417e-05
-0.000160651
-0.000221943
-0.000137371
-0.000337163
-0.000102124
-0.000420714
-6.0405e-05
-0.00046236
-1.66935e-05
-0.000464949
2.45117e-05
-0.000437713
5.83625e-05
-0.000389465
8.02162e-05
-0.000324985
8.64912e-05
7.58605e-05
-7.90772e-05
-0.000223118
5.00214e-05
-7.70549e-06
-0.000146281
-4.63405e-05
3.59989e-05
-4.0858e-05
-0.000129582
3.92498e-05
8.19558e-05
-0.000180499
-1.56624e-06
0.000204885
-0.000191529
-7.7562e-05
0.000308834
-0.000167985
-0.000171172
0.000376773
-0.000121542
-0.000262554
0.00039589
-6.30347e-05
-0.000335501
0.000360149
1.1369e-06
-0.00038061
0.000273522
6.81588e-05
-0.000395864
0.000151644
0.000134613
-0.000385069
1.90271e-05
0.000192791
-0.000353847
-9.96563e-05
0.000231012
-0.000306248
-0.000187364
0.000238283
-0.000243593
-0.000236315
0.000208173
-0.000243202
0.000140884
-9.83587e-05
-0.000293004
5.45214e-05
-1.75003e-05
-0.000197805
-6.66605e-05
4.71672e-05
-7.40547e-05
-0.000168767
7.96029e-05
6.55416e-05
-0.000232335
7.02124e-05
0.000200905
-0.000248098
2.10631e-05
0.00030981
-0.0002192
-5.47292e-05
0.000372209
-0.000156445
-0.000138487
0.000374144
-7.13717e-05
-0.000212533
0.000311835
2.69938e-05
-0.000266267
0.000195311
0.000130495
-0.000297393
4.86438e-05
0.000227762
-0.000309946
-9.76852e-05
0.000302712
-0.000307094
-0.000217799
0.000339614
-0.000287746
-0.000298162
0.000329441
-0.000247781
-0.000335159
0.000271977
-0.000326653
0.000174875
-0.000114411
-0.000360964
2.09377e-05
-2.37807e-05
-0.000261229
-0.000122673
6.28029e-05
-0.00013278
-0.000237177
0.000128298
1.2088e-05
-0.000304508
0.00015946
0.000153253
-0.000316069
0.000151443
0.000267854
-0.000273856
0.000108953
0.000333579
-0.000187517
4.43847e-05
0.000333046
-6.96261e-05
-2.74144e-05
0.000260958
6.70334e-05
-9.53764e-05
0.00013008
0.000207631
-0.000155533
-2.90811e-05
0.000331788
-0.00020716
-0.00018087
0.000415647
-0.000246093
-0.000299488
0.000440846
-0.000263212
-0.000375464
0.000402332
-0.000248904
-0.000408169
0.000307843
-0.000394915
0.000174262
-0.000125964