/*--------------------------------*- C++ -*----------------------------------*\
| =========                 |                                                 |
| \\      /  F ield         | OpenFOAM: The Open Source CFD Toolbox           |
|  \\    /   O peration     | Version:  3.0.0                                 |
|   \\  /    A nd           | Web:      www.OpenFOAM.org                      |
|    \\/     M anipulation  |                                                 |
\*---------------------------------------------------------------------------*/
FoamFile
{
    version     2.0;
    format      ascii;
    class       volVectorField;
    location    "2";
    object      U;
}
// * * * * * * * * * * * * * * * * * * * * * * * * * * * * * * * * * * * * * //

dimensions      [0 1 -1 0 0 0 0];

internalField   nonuniform List<vector> 
4096
(
(-0.0840453 0.0095538 0.049494)
(-0.0576846 0.0126463 0.0560909)
(-0.0297756 0.0143842 0.0519306)
(-0.000291545 0.0161831 0.0343392)
(0.0231078 0.0193745 0.00424784)
(0.0328515 0.0248602 -0.0334158)
(0.0251281 0.0322389 -0.0706938)
(0.00255739 0.0387189 -0.0996234)
(-0.0269573 0.0404306 -0.115209)
(-0.0551276 0.0352961 -0.116234)
(-0.0772471 0.025142 -0.104403)
(-0.0924843 0.0143991 -0.0829749)
(-0.101824 0.00700007 -0.0556627)
(-0.106134 0.00418042 -0.0260515)
(-0.105561 0.00461561 0.00257678)
(-0.0949683 0.00534715 0.0257447)
(-0.113165 0.00394921 0.0415187)
(-0.0832112 0.0124876 0.0393845)
(-0.0527008 0.0192808 0.0277436)
(-0.0190261 0.0257432 0.00515809)
(0.00963804 0.0328408 -0.0262289)
(0.0256463 0.04052 -0.0609518)
(0.0248658 0.0466591 -0.0915729)
(0.00889255 0.0470471 -0.11142)
(-0.0157421 0.038263 -0.117017)
(-0.0420867 0.0212657 -0.108796)
(-0.0663969 0.00190656 -0.0900908)
(-0.0877088 -0.0128851 -0.0652342)
(-0.105531 -0.0194019 -0.038158)
(-0.118682 -0.0181924 -0.0119745)
(-0.125809 -0.0123891 0.0108039)
(-0.118519 -0.00629359 0.0267128)
(-0.138886 -0.0031012 0.0304734)
(-0.104761 0.00711349 0.0198384)
(-0.070803 0.0158403 0.00195076)
(-0.0313148 0.024588 -0.0233051)
(0.00528428 0.0341011 -0.0529239)
(0.0312588 0.0435624 -0.0814981)
(0.0414874 0.0494035 -0.102644)
(0.0352749 0.0461636 -0.111347)
(0.0164749 0.0308524 -0.106036)
(-0.00976561 0.00700787 -0.0891032)
(-0.0399044 -0.0165821 -0.0654029)
(-0.071473 -0.0318598 -0.0397663)
(-0.101289 -0.0362169 -0.0156863)
(-0.125624 -0.0319529 0.00455995)
(-0.141794 -0.0232965 0.0194067)
(-0.138357 -0.0146919 0.0269899)
(-0.156354 -0.0114138 0.0181427)
(-0.118592 -0.00339496 0.000495981)
(-0.0809746 0.00390049 -0.0214152)
(-0.0352291 0.0121924 -0.0465383)
(0.0101918 0.0223052 -0.0716245)
(0.0475113 0.0332185 -0.0919833)
(0.0703736 0.0407023 -0.102767)
(0.0750224 0.0381413 -0.100665)
(0.0618256 0.022049 -0.0858488)
(0.0340239 -0.00277042 -0.0624182)
(-0.00424205 -0.0258234 -0.0362426)
(-0.0478523 -0.0389805 -0.0120364)
(-0.0904662 -0.0410085 0.0074479)
(-0.126032 -0.035522 0.0207163)
(-0.150857 -0.02706 0.0270754)
(-0.15124 -0.0190847 0.0265082)
(-0.162483 -0.0203962 0.00701089)
(-0.122665 -0.0177103 -0.0152571)
(-0.0820096 -0.0146716 -0.0384267)
(-0.0311745 -0.00927977 -0.0607317)
(0.0215581 -0.000495731 -0.0792442)
(0.0685675 0.0111101 -0.0905806)
(0.10272 0.0216309 -0.0916643)
(0.117557 0.0239107 -0.0807544)
(0.10969 0.0131158 -0.0593325)
(0.0801493 -0.00658346 -0.0326253)
(0.0339389 -0.0246751 -0.00675949)
(-0.0208099 -0.0337783 0.0142415)
(-0.0746804 -0.0339487 0.0283766)
(-0.119719 -0.0293654 0.0346853)
(-0.151472 -0.0240706 0.0331396)
(-0.155309 -0.019688 0.0254723)
(-0.15677 -0.0282872 -0.00072673)
(-0.116985 -0.0328408 -0.0247143)
(-0.0745584 -0.0357993 -0.0462531)
(-0.0209425 -0.0349272 -0.0634439)
(0.0359625 -0.0289182 -0.0742109)
(0.0888674 -0.0176439 -0.0767456)
(0.130555 -0.00394273 -0.0697863)
(0.153225 0.0055264 -0.0530362)
(0.15043 0.00459176 -0.0288444)
(0.120549 -0.00487173 -0.00267765)
(0.0688839 -0.0143578 0.0200705)
(0.00612164 -0.0181355 0.0365112)
(-0.0557934 -0.0171099 0.0451789)
(-0.107412 -0.0152375 0.0452978)
(-0.143607 -0.0153644 0.0372926)
(-0.150282 -0.0168951 0.0241701)
(-0.14111 -0.0328973 -0.0037903)
(-0.103175 -0.0453212 -0.026454)
(-0.0604803 -0.0548569 -0.0437434)
(-0.00664275 -0.0591563 -0.0542442)
(0.0509582 -0.0566456 -0.0570663)
(0.105449 -0.0466165 -0.051977)
(0.150043 -0.0306618 -0.0393363)
(0.17696 -0.0140569 -0.0201291)
(0.178244 -0.00334287 0.00279272)
(0.149874 0.000459889 0.0247247)
(0.0963886 0.00209758 0.0419745)
(0.0298753 0.00459688 0.0529454)
(-0.0360034 0.00640646 0.0565049)
(-0.0907682 0.00451662 0.051767)
(-0.128673 -0.00219905 0.0393301)
(-0.137349 -0.0110114 0.0228677)
(-0.118798 -0.0327005 -0.0019934)
(-0.0837827 -0.0525774 -0.0204549)
(-0.0421751 -0.0683692 -0.0315653)
(0.00969825 -0.0776945 -0.0348279)
(0.0651237 -0.0788031 -0.0306729)
(0.117691 -0.0705991 -0.0201964)
(0.161202 -0.0536931 -0.00493367)
(0.188595 -0.0317127 0.0132464)
(0.191913 -0.0103112 0.0314023)
(0.165909 0.0072489 0.046347)
(0.113913 0.0210464 0.0566352)
(0.0479167 0.0304584 0.061973)
(-0.0178057 0.0331082 0.0612989)
(-0.0722143 0.0273391 0.053448)
(-0.109186 0.0140161 0.039023)
(-0.118758 -0.00234971 0.0217676)
(-0.0935035 -0.0275196 0.00393539)
(-0.061684 -0.0536362 -0.00795194)
(-0.0221587 -0.0747292 -0.0119214)
(0.0262578 -0.0884065 -0.00861645)
(0.0776094 -0.0928445 0.000372021)
(0.125992 -0.0867762 0.0130574)
(0.165664 -0.0701622 0.0273455)
(0.190368 -0.0450733 0.0410721)
(0.193079 -0.0155214 0.051889)
(0.168806 0.0140954 0.0585599)
(0.120121 0.0394056 0.0617714)
(0.0579997 0.0557077 0.0621869)
(-0.00386364 0.0595597 0.0586646)
(-0.0546439 0.0505919 0.0497958)
(-0.0882372 0.0316223 0.036119)
(-0.0973062 0.00845895 0.020974)
(-0.0686329 -0.0185266 0.0126833)
(-0.0397412 -0.049041 0.00886778)
(-0.00288841 -0.0739887 0.0118963)
(0.0413069 -0.0909748 0.0200455)
(0.0876309 -0.0982137 0.0309035)
(0.130603 -0.0944135 0.0421101)
(0.16474 -0.0790738 0.0516636)
(0.184352 -0.0528426 0.0579209)
(0.183711 -0.0180227 0.059886)
(0.159369 0.0205622 0.0583365)
(0.114262 0.055116 0.0555403)
(0.0581867 0.0773415 0.0524918)
(0.0032155 0.0826303 0.0479506)
(-0.0410053 0.0715852 0.0404616)
(-0.069021 0.0485857 0.0304606)
(-0.0759556 0.0202227 0.0204745)
(-0.0471638 -0.00777763 0.0227314)
(-0.0206682 -0.0403414 0.0273387)
(0.0133166 -0.067268 0.0362167)
(0.0531612 -0.0862276 0.0468022)
(0.0942075 -0.0955358 0.05628)
(0.131176 -0.0939178 0.0624263)
(0.15857 -0.0804161 0.0639568)
(0.171092 -0.0544386 0.0605512)
(0.164589 -0.0169621 0.0531757)
(0.138127 0.026898 0.0444267)
(0.096047 0.0671222 0.0372494)
(0.0472019 0.0931295 0.0325947)
(0.00141406 0.0995472 0.0292182)
(-0.033802 0.0875651 0.025719)
(-0.0543835 0.0624686 0.022251)
(-0.0575608 0.0311459 0.0201799)
(-0.0316509 0.00244149 0.0327166)
(-0.00694103 -0.0294434 0.0448292)
(0.0243324 -0.0561399 0.0576511)
(0.0601463 -0.0754721 0.0680141)
(0.0960838 -0.0858757 0.0730964)
(0.1267 -0.0860326 0.0712625)
(0.146264 -0.07445 0.0625052)
(0.149975 -0.0495502 0.0484729)
(0.135727 -0.0116835 0.0322942)
(0.105684 0.0335004 0.0178788)
(0.0661401 0.0749395 0.00825735)
(0.0252325 0.101511 0.00407278)
(-0.00985059 0.107953 0.0041376)
(-0.0344479 0.0958277 0.00708513)
(-0.0464514 0.0706663 0.0124465)
(-0.044688 0.0390783 0.0200732)
(-0.0241954 0.010228 0.0416437)
(-0.000665257 -0.018083 0.0591512)
(0.0283608 -0.0421714 0.0734687)
(0.0607744 -0.0600694 0.0810512)
(0.0919658 -0.0703187 0.0793469)
(0.115982 -0.0714416 0.0676864)
(0.126835 -0.0613868 0.0478376)
(0.120648 -0.0380649 0.0237306)
(0.0979217 -0.00205253 0.000404736)
(0.0641318 0.0403129 -0.0175733)
(0.0273684 0.0780829 -0.0274799)
(-0.00518371 0.101359 -0.0289978)
(-0.0291295 0.106059 -0.0233659)
(-0.0428328 0.0941854 -0.0122284)
(-0.0463312 0.0709422 0.00296963)
(-0.0393893 0.0420698 0.0203447)
(-0.0262739 0.0144635 0.0488017)
(-0.00326654 -0.00757503 0.0686235)
(0.02423 -0.0267601 0.0817173)
(0.0540873 -0.0413844 0.084289)
(0.0810851 -0.050035 0.0742914)
(0.098594 -0.0509976 0.0523784)
(0.100605 -0.0418504 0.0223939)
(0.0847507 -0.0207416 -0.00956667)
(0.0545634 0.0108121 -0.0371734)
(0.0183997 0.0460335 -0.0557973)
(-0.0147281 0.0753801 -0.0633443)
(-0.0390531 0.0916529 -0.059992)
(-0.052942 0.0929221 -0.0473524)
(-0.0574069 0.0817178 -0.0277431)
(-0.0540675 0.0623654 -0.00373365)
(-0.0428625 0.0390358 0.0212956)
(-0.0384435 0.0151167 0.0534871)
(-0.0150714 0.00132433 0.0720421)
(0.011816 -0.0111929 0.0811903)
(0.0401734 -0.0209714 0.0770527)
(0.0639246 -0.0265998 0.0583619)
(0.0758721 -0.026231 0.0273475)
(0.0704143 -0.01761 -0.0101023)
(0.0471514 0.000212278 -0.0462597)
(0.0124269 0.0243065 -0.0741812)
(-0.0236436 0.0482218 -0.089767)
(-0.0523286 0.0652555 -0.0919256)
(-0.0697852 0.0720343 -0.0818662)
(-0.076666 0.0692099 -0.062057)
(-0.0755821 0.0595909 -0.0355906)
(-0.0687282 0.046032 -0.00578298)
(-0.0552135 0.0303787 0.023013)
(-0.0597985 0.0137102 0.0547057)
(-0.034929 0.0089023 0.0686036)
(-0.00758076 0.00375701 0.0715061)
(0.0206897 -0.000257938 0.0597987)
(0.042895 -0.00151138 0.0332419)
(0.0516022 0.00183808 -0.00440381)
(0.0422298 0.01104 -0.0457112)
(0.0161147 0.024799 -0.0818975)
(-0.0188426 0.0384625 -0.105888)
(-0.0522696 0.0470103 -0.114513)
(-0.0769144 0.0484999 -0.108466)
(-0.0908095 0.0445455 -0.0907233)
(-0.0957422 0.0381588 -0.0649436)
(-0.0943728 0.0315224 -0.034627)
(-0.0883391 0.025232 -0.00308868)
(-0.074869 0.0184321 0.0250363)
(-0.0878012 -0.0148487 0.0354038)
(-0.0573836 -0.00812636 0.0292067)
(-0.0279136 0.000648782 0.0160365)
(0.000313336 0.0122377 -0.00349848)
(0.0197735 0.0261986 -0.0264717)
(0.024356 0.0409908 -0.0486915)
(0.0125201 0.0541279 -0.0661029)
(-0.0116771 0.0622995 -0.0760117)
(-0.0407276 0.0624314 -0.0773728)
(-0.0676696 0.0535101 -0.0705156)
(-0.0887207 0.0378083 -0.056808)
(-0.103248 0.0199604 -0.0384725)
(-0.112004 0.00449453 -0.0181921)
(-0.115435 -0.00622143 0.0013327)
(-0.113376 -0.0121748 0.0176859)
(-0.100915 -0.0146875 0.0282985)
(-0.107396 -0.0263365 0.0295046)
(-0.0742454 -0.0139949 0.0153469)
(-0.0420275 0.000162774 -0.00412471)
(-0.00930681 0.0168343 -0.0274865)
(0.015905 0.0350212 -0.0511864)
(0.0269886 0.0521244 -0.0707856)
(0.0215463 0.064148 -0.0826144)
(0.00258241 0.0666702 -0.0847649)
(-0.0232012 0.0571355 -0.077257)
(-0.0494426 0.0371249 -0.0617829)
(-0.0729274 0.0124716 -0.041311)
(-0.0930624 -0.00973329 -0.019359)
(-0.10955 -0.0248932 0.000929135)
(-0.121064 -0.0322037 0.0171871)
(-0.125978 -0.0333518 0.0278149)
(-0.116776 -0.0304597 0.0316439)
(-0.123455 -0.0402927 0.0195473)
(-0.0872772 -0.025745 -0.00199435)
(-0.0514986 -0.0093147 -0.0262499)
(-0.0129647 0.00985095 -0.0511343)
(0.0202139 0.0304767 -0.072918)
(0.0411395 0.0493279 -0.0874301)
(0.0460824 0.0612716 -0.0915947)
(0.0357425 0.060846 -0.0843816)
(0.0146627 0.0457416 -0.0670855)
(-0.0120443 0.0195636 -0.0431062)
(-0.0413254 -0.00928279 -0.0172044)
(-0.0713893 -0.0324184 0.00610823)
(-0.0994998 -0.0460041 0.0237929)
(-0.121783 -0.0508158 0.034243)
(-0.135032 -0.0495759 0.0369726)
(-0.12958 -0.0440991 0.0327469)
(-0.132539 -0.0547086 0.00718656)
(-0.094199 -0.0416245 -0.020239)
(-0.0550003 -0.0262996 -0.0472566)
(-0.0106539 -0.00752095 -0.0713017)
(0.0310184 0.0136514 -0.0889911)
(0.0631063 0.0341181 -0.096912)
(0.0804374 0.0483054 -0.0928037)
(0.080611 0.0494884 -0.0763618)
(0.0649543 0.0343794 -0.0499693)
(0.0368367 0.00731671 -0.0187604)
(-0.000366973 -0.0215698 0.0107902)
(-0.0425283 -0.0433378 0.0335467)
(-0.0836197 -0.0552267 0.0469197)
(-0.117085 -0.0592998 0.0502291)
(-0.138379 -0.0585773 0.0441842)
(-0.136628 -0.0537226 0.031668)
(-0.133268 -0.0674322 -0.00563659)
(-0.094295 -0.0588695 -0.0368019)
(-0.0526175 -0.047523 -0.0643222)
(-0.0038258 -0.0318002 -0.0854124)
(0.0448034 -0.0122625 -0.0974385)
(0.0866703 0.00883062 -0.0980935)
(0.115735 0.0265253 -0.0860937)
(0.126787 0.0333775 -0.0616861)
(0.117286 0.0241404 -0.0280026)
(0.0880396 0.00200419 0.0082682)
(0.0428207 -0.0226566 0.0392571)
(-0.0111764 -0.0411496 0.0596853)
(-0.0642699 -0.0517605 0.0676851)
(-0.107488 -0.0571243 0.0634606)
(-0.135309 -0.0597255 0.0488178)
(-0.136823 -0.0585158 0.0285848)
(-0.126229 -0.0760019 -0.0170031)
(-0.0881553 -0.0740287 -0.0493709)
(-0.0453285 -0.0685863 -0.075058)
(0.00581821 -0.0578052 -0.0914152)
(0.0586193 -0.0416568 -0.0967755)
(0.10693 -0.0213048 -0.090131)
(0.144598 -0.000328874 -0.0712425)
(0.164884 0.0142272 -0.0408981)
(0.161796 0.0152577 -0.00271762)
(0.132781 0.00319457 0.0355568)
(0.0814593 -0.0134239 0.0653857)
(0.0181216 -0.0271579 0.0818916)
(-0.0441111 -0.0370276 0.0840338)
(-0.0943488 -0.0453395 0.0726845)
(-0.126459 -0.0532945 0.0505308)
(-0.13053 -0.0580086 0.0238799)
(-0.113337 -0.0784928 -0.0252038)
(-0.0771802 -0.0841406 -0.0560511)
(-0.0344576 -0.0855167 -0.0777074)
(0.01697 -0.0805866 -0.0880371)
(0.0710007 -0.0687443 -0.0864488)
(0.121892 -0.0501978 -0.0731484)
(0.1638 -0.0270812 -0.0489077)
(0.189781 -0.00513089 -0.0151649)
(0.191872 0.0078521 0.0240565)
(0.164363 0.00910195 0.0606906)
(0.110002 0.00335833 0.0866079)
(0.0413514 -0.00443851 0.0979613)
(-0.0259096 -0.0138222 0.0943344)
(-0.0796618 -0.0259383 0.0770026)
(-0.113497 -0.0401786 0.0492365)
(-0.119176 -0.052051 0.0182171)
(-0.0969853 -0.0742751 -0.0289923)
(-0.0630805 -0.087609 -0.0556798)
(-0.0214162 -0.0958255 -0.0715633)
(0.0286004 -0.096763 -0.0753399)
(0.0813703 -0.0893227 -0.06745)
(0.131469 -0.0730583 -0.0490621)
(0.173427 -0.0490534 -0.0217281)
(0.200763 -0.0215089 0.0124325)
(0.205151 0.0024332 0.0490341)
(0.17924 0.0176221 0.0805547)
(0.124869 0.0240425 0.100357)
(0.0554427 0.0229815 0.105938)
(-0.0122688 0.0143176 0.0972942)
(-0.0657458 -0.00150736 0.0757937)
(-0.0986767 -0.0218722 0.0450483)
(-0.104766 -0.0410551 0.0124715)
(-0.0794851 -0.0641826 -0.0278154)
(-0.0476478 -0.0843957 -0.0481508)
(-0.0076911 -0.0986901 -0.0573303)
(0.0396685 -0.104777 -0.0550491)
(0.0892904 -0.101218 -0.0425715)
(0.136023 -0.087237 -0.0216697)
(0.174683 -0.0633264 0.00566519)
(0.199357 -0.0323658 0.0368866)
(0.202403 -4.42948e-05 0.0675307)
(0.176872 0.0273304 0.0913897)
(0.12456 0.0453116 0.104004)
(0.0584466 0.0510654 0.104152)
(-0.00533086 0.04363 0.0919677)
(-0.0548782 0.0249435 0.0687446)
(-0.0843716 -0.000518339 0.0382632)
(-0.0894288 -0.026234 0.00752033)
(-0.0628912 -0.0502244 -0.0219415)
(-0.0327233 -0.0756868 -0.0345769)
(0.0050915 -0.0945762 -0.0371771)
(0.0489452 -0.104513 -0.0303733)
(0.0940971 -0.10393 -0.0159312)
(0.135616 -0.0919714 0.00418154)
(0.168486 -0.068833 0.0279396)
(0.187257 -0.0363391 0.0527969)
(0.185566 0.00136259 0.0748679)
(0.158602 0.0376806 0.0898737)
(0.109326 0.0648268 0.0955524)
(0.0495893 0.0764189 0.0915328)
(-0.00655798 0.070527 0.0779343)
(-0.0489148 0.0501425 0.0560114)
(-0.0726736 0.0210959 0.0293993)
(-0.0751553 -0.00965487 0.00407154)
(-0.0490607 -0.0350081 -0.0123868)
(-0.020192 -0.0633451 -0.0171136)
(0.0152048 -0.0847052 -0.0143268)
(0.0550638 -0.0967801 -0.00534707)
(0.0949204 -0.0980392 0.00794018)
(0.12994 -0.0876816 0.0237776)
(0.155138 -0.065699 0.040535)
(0.165525 -0.0330514 0.0562328)
(0.156575 0.00726133 0.0683078)
(0.126714 0.0485988 0.0746375)
(0.0808427 0.0811457 0.0746352)
(0.0294873 0.0963826 0.0683783)
(-0.0163135 0.0917134 0.0559771)
(-0.0489635 0.0706568 0.0386158)
(-0.0651777 0.0397227 0.0193575)
(-0.0637008 0.00599935 0.00254046)
(-0.0397215 -0.0210926 -0.000611443)
(-0.0118611 -0.0493602 0.00151532)
(0.0210194 -0.0706594 0.00761945)
(0.0567343 -0.0829001 0.0160221)
(0.0909219 -0.0847029 0.02509)
(0.118599 -0.0753548 0.033655)
(0.134732 -0.0545966 0.0409286)
(0.135074 -0.0227641 0.0460873)
(0.117568 0.0176524 0.048264)
(0.0843477 0.0597774 0.0472537)
(0.0422962 0.0931083 0.0435038)
(0.000467484 0.108755 0.0373127)
(-0.0334765 0.104181 0.0288261)
(-0.0550448 0.0831043 0.0189495)
(-0.0628045 0.0520879 0.00963979)
(-0.056563 0.017942 0.00314445)
(-0.0363606 -0.0105022 0.0118055)
(-0.0092672 -0.0355303 0.0185384)
(0.0212607 -0.0541193 0.0253113)
(0.0530984 -0.0644599 0.030429)
(0.0816629 -0.065388 0.0328127)
(0.10161 -0.0562325 0.0322477)
(0.107954 -0.0365068 0.029183)
(0.0977324 -0.00634867 0.0242948)
(0.0719277 0.0315495 0.0183612)
(0.036171 0.070045 0.0124188)
(-0.00133241 0.0992349 0.0073925)
(-0.033294 0.111554 0.00370672)
(-0.0553648 0.105448 0.00145414)
(-0.0660744 0.084766 0.00086026)
(-0.0657844 0.0555917 0.00233668)
(-0.0548913 0.0239093 0.00598878)
(-0.0399925 -0.0045245 0.02327)
(-0.0132786 -0.0234034 0.0314543)
(0.0153955 -0.0368207 0.036094)
(0.0440444 -0.0433158 0.0356873)
(0.067556 -0.0419341 0.0299957)
(0.0801074 -0.0320645 0.0200501)
(0.0770452 -0.0132352 0.00778203)
(0.0572978 0.0140348 -0.00466024)
(0.0250568 0.0463986 -0.0154055)
(-0.0114135 0.0768914 -0.0229546)
(-0.0436603 0.0974622 -0.0263222)
(-0.0664368 0.103155 -0.0252239)
(-0.078302 0.094134 -0.0199786)
(-0.0801959 0.0743991 -0.0113655)
(-0.0737568 0.0490685 -0.000492468)
(-0.0593074 0.0226773 0.0109195)
(-0.0507028 -0.00359118 0.0320546)
(-0.0237173 -0.0141929 0.0382433)
(0.00392686 -0.0206086 0.0382447)
(0.0305157 -0.0216948 0.0309352)
(0.0502051 -0.0167915 0.0170922)
(0.0567678 -0.00554965 -0.000859611)
(0.0462653 0.0120564 -0.0195387)
(0.0197952 0.0346802 -0.0356554)
(-0.0157833 0.0583355 -0.0469431)
(-0.0508748 0.0770634 -0.0520928)
(-0.0777986 0.0857813 -0.0506822)
(-0.0934154 0.0829313 -0.0431482)
(-0.098446 0.0706563 -0.0306623)
(-0.0952043 0.0528958 -0.0149574)
(-0.0857659 0.0333078 0.00188371)
(-0.0695607 0.0144423 0.0171155)
(-0.0669711 -0.00671878 0.0362554)
(-0.0389619 -0.00832451 0.0375184)
(-0.0114097 -0.00702111 0.0312644)
(0.0146016 -0.00163836 0.0168018)
(0.0324882 0.00831221 -0.00413277)
(0.0358895 0.0225826 -0.0278227)
(0.0218432 0.0397816 -0.0495988)
(-0.00681453 0.0566166 -0.0654404)
(-0.0419018 0.068346 -0.0729003)
(-0.0739826 0.0713095 -0.0715556)
(-0.0968573 0.0651773 -0.0624917)
(-0.109034 0.0527522 -0.047709)
(-0.112164 0.0379084 -0.0294826)
(-0.108595 0.023654 -0.0100557)
(-0.0999509 0.0114186 0.00836885)
(-0.0839928 0.00139069 0.0230459)
(-0.0684057 -0.036072 0.022669)
(-0.0398099 -0.0244668 0.00591046)
(-0.0147451 -0.00784156 -0.013177)
(0.00511243 0.013102 -0.0316)
(0.0141564 0.0360683 -0.0461399)
(0.00939378 0.0577877 -0.0547089)
(-0.00794304 0.0747289 -0.0568282)
(-0.0329766 0.0835485 -0.0530708)
(-0.0593768 0.0817403 -0.0442301)
(-0.0819209 0.0688223 -0.0310766)
(-0.0979427 0.0472905 -0.0148379)
(-0.107228 0.0220656 0.00235322)
(-0.110672 -0.00146261 0.0177296)
(-0.108852 -0.01955 0.0286984)
(-0.101758 -0.0307564 0.0334922)
(-0.086177 -0.0348626 0.0316349)
(-0.07963 -0.0512126 0.019944)
(-0.0494716 -0.0338092 -0.0038506)
(-0.0212707 -0.0114862 -0.0283607)
(0.0040041 0.0149222 -0.0502365)
(0.0200103 0.0424606 -0.0658511)
(0.0225418 0.0667295 -0.0727107)
(0.0114118 0.0827569 -0.0702585)
(-0.00947917 0.086235 -0.0594257)
(-0.0340344 0.0751656 -0.0418397)
(-0.0569672 0.0513896 -0.0197158)
(-0.075822 0.0206619 0.00375035)
(-0.0905215 -0.00956382 0.0247666)
(-0.10127 -0.0334917 0.0399487)
(-0.107181 -0.0487199 0.0472196)
(-0.10675 -0.0554489 0.0459526)
(-0.0949257 -0.0541172 0.0373211)
(-0.0884454 -0.069101 0.0109274)
(-0.0565447 -0.0490254 -0.0192535)
(-0.0246034 -0.0240174 -0.0476198)
(0.00705855 0.0051362 -0.0706621)
(0.0319078 0.0351376 -0.0848393)
(0.0449225 0.0610031 -0.0876747)
(0.0440777 0.0768473 -0.0786516)
(0.0309953 0.077548 -0.0590996)
(0.0101287 0.0613186 -0.0317393)
(-0.013946 0.0316438 -0.000637917)
(-0.0387358 -0.00350394 0.0288673)
(-0.0631606 -0.0352575 0.0514998)
(-0.085305 -0.0582323 0.0638222)
(-0.101813 -0.0714086 0.0647584)
(-0.109445 -0.0759582 0.0551801)
(-0.10174 -0.0720532 0.0382996)
(-0.092784 -0.0860102 -0.00283648)
(-0.0599912 -0.0668974 -0.0380586)
(-0.0247473 -0.0427198 -0.0684709)
(0.0129889 -0.0138982 -0.0905234)
(0.0469297 0.0165725 -0.101209)
(0.0716462 0.043973 -0.098528)
(0.0832458 0.0620666 -0.0821817)
(0.0802575 0.0645019 -0.0537458)
(0.0643604 0.0483936 -0.0168673)
(0.0387923 0.0176109 0.0224047)
(0.00633183 -0.0182229 0.0564785)
(-0.0299627 -0.0493545 0.0788322)
(-0.0650383 -0.0711211 0.0864165)
(-0.0927295 -0.0837195 0.0794665)
(-0.108285 -0.0886958 0.0604813)
(-0.104587 -0.0853426 0.0348298)
(-0.092271 -0.0990974 -0.0193181)
(-0.059748 -0.084029 -0.0576834)
(-0.0223501 -0.0637284 -0.0881566)
(0.0199049 -0.0381961 -0.107311)
(0.0612097 -0.00971096 -0.112987)
(0.0961737 0.0180455 -0.104018)
(0.119724 0.0395147 -0.0805096)
(0.127593 0.0475713 -0.0441101)
(0.117935 0.037233 0.000957299)
(0.0916662 0.010952 0.0468249)
(0.051661 -0.021385 0.0836129)
(0.00364319 -0.0498806 0.103921)
(-0.0435803 -0.0706263 0.105505)
(-0.081171 -0.0843938 0.0900212)
(-0.10332 -0.0922974 0.0615566)
(-0.103087 -0.0923539 0.0274748)
(-0.0877011 -0.105901 -0.036088)
(-0.0563708 -0.0970932 -0.0752623)
(-0.0181438 -0.082861 -0.103678)
(0.0265349 -0.0628101 -0.118291)
(0.0723376 -0.0383316 -0.117953)
(0.114137 -0.0117821 -0.102507)
(0.146557 0.0126777 -0.0726374)
(0.163824 0.0282046 -0.0300323)
(0.16097 0.0278653 0.0208576)
(0.135617 0.0112253 0.0707237)
(0.0899446 -0.0136126 0.107825)
(0.0324914 -0.0376802 0.124423)
(-0.0241565 -0.0576581 0.119322)
(-0.0689732 -0.0739664 0.0955208)
(-0.0956043 -0.0865392 0.0584701)
(-0.0979668 -0.0920495 0.0172263)
(-0.0803472 -0.105119 -0.0505587)
(-0.0505816 -0.103863 -0.0879066)
(-0.0126122 -0.0969377 -0.112189)
(0.0325072 -0.0835245 -0.121044)
(0.079821 -0.0640983 -0.114351)
(0.124474 -0.0398329 -0.0929149)
(0.161309 -0.0134706 -0.0580433)
(0.1844 0.00923866 -0.0115887)
(0.187074 0.0205478 0.0418831)
(0.163771 0.016873 0.0922255)
(0.115266 0.00264388 0.126817)
(0.0522464 -0.0155163 0.138272)
(-0.00969916 -0.0347296 0.126443)
(-0.0581466 -0.0542161 0.0954038)
(-0.0866998 -0.0722002 0.0516824)
(-0.0905145 -0.0842118 0.00554737)
(-0.0713962 -0.0969884 -0.0603825)
(-0.0430317 -0.103692 -0.0932898)
(-0.00606574 -0.104375 -0.111788)
(0.0378504 -0.0977219 -0.114415)
(0.0840557 -0.083382 -0.101943)
(0.127956 -0.0616945 -0.0758965)
(0.164797 -0.0344172 -0.0380521)
(0.189188 -0.00605419 0.00943776)
(0.194234 0.0160735 0.0618037)
(0.172662 0.0261273 0.108775)
(0.124019 0.0239963 0.138158)
(0.0599773 0.0127259 0.143578)
(-0.00245906 -0.00533216 0.125755)
(-0.0505168 -0.0278296 0.0894376)
(-0.0782084 -0.0510603 0.0419738)
(-0.0820622 -0.069728 -0.00582269)
(-0.0617511 -0.0831677 -0.0639228)
(-0.0343643 -0.0973457 -0.0903037)
(0.00107069 -0.104989 -0.102234)
(0.0424396 -0.10428 -0.0991912)
(0.0853739 -0.0942611 -0.0825549)
(0.125583 -0.0748259 -0.0542018)
(0.158759 -0.0472389 -0.0161261)
(0.180202 -0.0149956 0.029233)
(0.183687 0.0156677 0.0768641)
(0.162183 0.037824 0.117093)
(0.115268 0.0472261 0.139367)
(0.0545141 0.0429436 0.138747)
(-0.00368992 0.026533 0.116531)
(-0.0474026 0.00182173 0.0778027)
(-0.0714419 -0.0258623 0.0304008)
(-0.0736789 -0.0506526 -0.0151577)
(-0.0522059 -0.0662595 -0.0606655)
(-0.0254259 -0.0864552 -0.0794351)
(0.0080141 -0.0994654 -0.0851563)
(0.0457393 -0.103111 -0.0780526)
(0.0837018 -0.0961354 -0.0597153)
(0.117956 -0.0783089 -0.0319883)
(0.144637 -0.0507114 0.00317318)
(0.159699 -0.0161313 0.0431512)
(0.158062 0.020319 0.0829179)
(0.134648 0.0513886 0.114124)
(0.0905214 0.0698513 0.128586)
(0.0364679 0.071467 0.122908)
(-0.0134286 0.0568674 0.0987754)
(-0.0492985 0.0308622 0.0613287)
(-0.067199 -0.000162154 0.0182467)
(-0.0661414 -0.0299711 -0.021117)
(-0.0437029 -0.0491323 -0.0513185)
(-0.0173819 -0.0729236 -0.0626528)
(0.0136255 -0.0888818 -0.0636212)
(0.0468988 -0.094774 -0.0548377)
(0.0786924 -0.089317 -0.0376733)
(0.105373 -0.07236 -0.0136204)
(0.123468 -0.0449002 0.0156078)
(0.129641 -0.00923511 0.047424)
(0.120469 0.0302505 0.077226)
(0.0939236 0.0662677 0.0985075)
(0.0533514 0.0899421 0.105679)
(0.00834647 0.0951361 0.0968299)
(-0.0303708 0.0818123 0.0739019)
(-0.0558519 0.0551521 0.041758)
(-0.0657693 0.0220507 0.00704488)
(-0.0600994 -0.0110783 -0.0229228)
(-0.0374579 -0.0342864 -0.0375082)
(-0.0116176 -0.0585019 -0.0428211)
(0.0166636 -0.0745147 -0.041331)
(0.0450784 -0.0803038 -0.0335546)
(0.0700845 -0.0747796 -0.0203107)
(0.0882285 -0.0579377 -0.0025097)
(0.0964338 -0.0307279 0.0185498)
(0.0923021 0.00482994 0.0405545)
(0.0747152 0.0446117 0.0597688)
(0.0451462 0.0812485 0.0717428)
(0.00899973 0.105508 0.0732878)
(-0.0256849 0.111001 0.0638416)
(-0.0518803 0.0976563 0.0454668)
(-0.0658657 0.0706991 0.0221429)
(-0.0670799 0.0370244 -0.00134938)
(-0.056259 0.00293532 -0.0203021)
(-0.0347837 -0.0235279 -0.0213088)
(-0.00945603 -0.0447241 -0.0230662)
(0.0161407 -0.0578152 -0.0218003)
(0.0398641 -0.0611849 -0.0175618)
(0.0581367 -0.0540493 -0.010373)
(0.0675402 -0.0365827 -0.000389119)
(0.0654982 -0.009774 0.0116263)
(0.0510963 0.0243099 0.0238737)
(0.0259583 0.0613875 0.0336973)
(-0.00531553 0.0941232 0.0385702)
(-0.0361376 0.114146 0.0372387)
(-0.0603929 0.116324 0.0301546)
(-0.074499 0.101349 0.0191214)
(-0.0776613 0.0744364 0.00662369)
(-0.0709102 0.0420457 -0.00491221)
(-0.0554206 0.0098812 -0.0133915)
(-0.0367032 -0.0180225 -0.00495017)
(-0.0116837 -0.0330592 -0.00626618)
(0.0117474 -0.0405725 -0.00786551)
(0.0315992 -0.0394792 -0.00911937)
(0.0440044 -0.0293803 -0.00911004)
(0.045464 -0.0107422 -0.00713347)
(0.0341373 0.0152119 -0.00331996)
(0.0110158 0.0460229 0.00116674)
(-0.0195044 0.0770661 0.00468412)
(-0.0506117 0.101611 0.00611524)
(-0.0756588 0.113223 0.00544173)
(-0.090642 0.109097 0.00345504)
(-0.0948079 0.0912959 0.00112999)
(-0.0895543 0.0650599 -0.00084232)
(-0.0769937 0.0360098 -0.00221117)
(-0.0582362 0.00870797 -0.00291705)
(-0.0433119 -0.0183793 0.0091403)
(-0.0181442 -0.0249631 0.00514516)
(0.00408786 -0.0249714 -0.00142768)
(0.0215226 -0.0178936 -0.00924536)
(0.0297761 -0.0039251 -0.0164267)
(0.0252649 0.0159627 -0.0213499)
(0.00705891 0.0400529 -0.0234065)
(-0.0218946 0.0653454 -0.0230951)
(-0.0549768 0.087164 -0.0213779)
(-0.0842989 0.100121 -0.018744)
(-0.104011 0.100567 -0.0150816)
(-0.112129 0.0886038 -0.0102226)
(-0.109913 0.0678623 -0.00443757)
(-0.0999738 0.0434252 0.00146893)
(-0.0847571 0.0196622 0.0064012)
(-0.0646624 -0.000404247 0.00937469)
(-0.0530715 -0.0233277 0.018341)
(-0.0273201 -0.0209143 0.00937038)
(-0.00525646 -0.0128555 -0.00325039)
(0.0115402 0.00126251 -0.0177684)
(0.0181258 0.0207728 -0.0314571)
(0.0109039 0.04371 -0.0416657)
(-0.010172 0.0667287 -0.0467694)
(-0.0407032 0.0851837 -0.0465121)
(-0.0730431 0.0943151 -0.041539)
(-0.0995455 0.0914606 -0.0328537)
(-0.115659 0.0776022 -0.0216536)
(-0.120816 0.0567652 -0.00939496)
(-0.117059 0.0339382 0.00233345)
(-0.107019 0.0131275 0.0120255)
(-0.0926815 -0.0034265 0.0184334)
(-0.0732525 -0.0147555 0.0207329)
(-0.0315553 -0.0491445 0.0142674)
(-0.00945232 -0.0324848 -0.00922125)
(0.00599054 -0.0085319 -0.0308789)
(0.0124555 0.0199505 -0.0460924)
(0.00739211 0.0488912 -0.0523141)
(-0.0085191 0.0739989 -0.0498444)
(-0.0315082 0.0916213 -0.0408969)
(-0.0563535 0.0989633 -0.0279308)
(-0.0781388 0.0942916 -0.0125947)
(-0.0934903 0.0776099 0.00424654)
(-0.101052 0.0514029 0.0215636)
(-0.101306 0.0205786 0.0372997)
(-0.0957052 -0.0090219 0.0485124)
(-0.0855912 -0.0325342 0.0524953)
(-0.0716711 -0.0471846 0.0477452)
(-0.0526676 -0.0516854 0.0346923)
(-0.0370173 -0.065488 0.0143269)
(-0.0138862 -0.0427495 -0.0156011)
(0.00552623 -0.01268 -0.0421766)
(0.018717 0.0216334 -0.0606892)
(0.0218516 0.0553032 -0.068174)
(0.0137857 0.0828596 -0.0643754)
(-0.00332384 0.099389 -0.0512529)
(-0.024946 0.101425 -0.031474)
(-0.0459464 0.0878256 -0.00739807)
(-0.0625154 0.0606094 0.0186998)
(-0.0731992 0.0251239 0.0436846)
(-0.0786474 -0.0113529 0.0635094)
(-0.0800439 -0.042223 0.0743514)
(-0.0775949 -0.0635669 0.0740899)
(-0.0705005 -0.0740576 0.0627149)
(-0.0559741 -0.0731827 0.042433)
(-0.0415522 -0.0842942 0.0056789)
(-0.0175119 -0.0584431 -0.0300663)
(0.00593479 -0.0252332 -0.0599247)
(0.0263262 0.0120395 -0.0794268)
(0.0392743 0.0480421 -0.0857828)
(0.0422075 0.0767884 -0.0785231)
(0.0351197 0.092727 -0.0593473)
(0.0204849 0.091936 -0.0311598)
(0.00228635 0.0735321 0.00269159)
(-0.0158641 0.0407139 0.0381376)
(-0.0322919 0.000613674 0.0697623)
(-0.0469344 -0.0381573 0.0916074)
(-0.0592969 -0.0689349 0.0994367)
(-0.0673353 -0.0887646 0.0922286)
(-0.0683871 -0.0972016 0.0718474)
(-0.0585088 -0.0937334 0.0426917)
(-0.0443941 -0.100736 -0.0102689)
(-0.0203159 -0.0754824 -0.0506312)
(0.00637678 -0.0428625 -0.0820503)
(0.0333411 -0.00588231 -0.100515)
(0.0561374 0.0304806 -0.103847)
(0.0712159 0.0605152 -0.0917442)
(0.0763344 0.0783417 -0.0657349)
(0.0711093 0.0789754 -0.028773)
(0.0573054 0.0605472 0.0149338)
(0.0377268 0.0264317 0.0593514)
(0.0143685 -0.0149945 0.0965018)
(-0.0113039 -0.0539991 0.118532)
(-0.0361406 -0.0841161 0.121253)
(-0.0553256 -0.103371 0.10524)
(-0.064509 -0.111822 0.0745168)
(-0.059163 -0.108584 0.0358243)
(-0.0456891 -0.111993 -0.031107)
(-0.022512 -0.0904915 -0.0743583)
(0.00610854 -0.0617803 -0.105501)
(0.0379106 -0.0283396 -0.12118)
(0.0686721 0.00579231 -0.120102)
(0.0943945 0.0359784 -0.102449)
(0.111262 0.0568445 -0.0697105)
(0.116243 0.0625695 -0.0246617)
(0.10831 0.0493442 0.0279749)
(0.0884954 0.0191632 0.0802946)
(0.0586722 -0.0195211 0.121485)
(0.0222298 -0.0565192 0.141945)
(-0.0143489 -0.0857005 0.138018)
(-0.0434494 -0.105601 0.112222)
(-0.0595445 -0.116132 0.0708976)
(-0.0581785 -0.115638 0.023013)
(-0.0460031 -0.115993 -0.0537228)
(-0.024256 -0.100629 -0.0975482)
(0.00500003 -0.0783662 -0.126406)
(0.0394886 -0.0509776 -0.137769)
(0.0752185 -0.0212632 -0.131338)
(0.108092 0.00755346 -0.107961)
(0.133648 0.0312195 -0.0692634)
(0.147369 0.0438834 -0.0177502)
(0.145793 0.0398734 0.0417378)
(0.127385 0.0185296 0.0997442)
(0.093049 -0.0133021 0.142783)
(0.0480817 -0.0460915 0.15988)
(0.00246541 -0.0740952 0.148352)
(-0.0338457 -0.0955874 0.112793)
(-0.0547534 -0.109643 0.0616787)
(-0.0564063 -0.113676 0.00616088)
(-0.0457222 -0.11207 -0.0745776)
(-0.0253265 -0.104414 -0.116217)
(0.00364341 -0.0902049 -0.140773)
(0.0388172 -0.0702708 -0.146657)
(0.0763421 -0.046094 -0.134514)
(0.112176 -0.019602 -0.105849)
(0.141888 0.00608419 -0.0625289)
(0.160758 0.0256846 -0.00687676)
(0.164102 0.0325812 0.0562979)
(0.147995 0.0233529 0.116531)
(0.111739 0.00166402 0.158445)
(0.0619744 -0.0250415 0.170439)
(0.0115012 -0.0514822 0.151069)
(-0.0282819 -0.0749917 0.106838)