/*--------------------------------*- C++ -*----------------------------------*\
| =========                 |                                                 |
| \\      /  F ield         | OpenFOAM: The Open Source CFD Toolbox           |
|  \\    /   O peration     | Version:  3.0.0                                 |
|   \\  /    A nd           | Web:      www.OpenFOAM.org                      |
|    \\/     M anipulation  |                                                 |
\*---------------------------------------------------------------------------*/
FoamFile
{
    version     2.0;
    format      ascii;
    class       volScalarField;
    location    "350";
    object      nut;
}
// * * * * * * * * * * * * * * * * * * * * * * * * * * * * * * * * * * * * * //

dimensions      [0 2 -1 0 0 0 0];

internalField   nonuniform List<scalar> 
10720
(
0.0970284
0.101713
0.107052
0.112915
0.119604
0.127132
0.135634
0.144912
0.154919
0.165212
0.175298
0.184234
0.191458
0.196795
0.200247
0.202019
0.202326
0.201456
0.199527
0.196729
0.193038
0.188534
0.183253
0.177439
0.171522
0.16578
0.160185
0.154585
0.148876
0.143051
0.137104
0.131003
0.124707
0.118166
0.111187
0.103647
0.0943974
0.0841031
0.0607008
0.0925735
0.0878573
0.0827872
0.07673
0.0697507
0.0613086
0.0506376
0.0381645
0.0346921
0.0324881
0.0392098
0.0457658
0.0510405
0.0555781
0.0598435
0.064051
0.068253
0.0724211
0.0765021
0.0804635
0.0842956
0.0880047
0.0916052
0.0950882
0.0982704
0.100935
0.103053
0.104673
0.105846
0.106606
0.106999
0.10711
0.107003
0.106647
0.105948
0.104883
0.103008
0.100824
0.0916837
0.100381
0.0999993
0.0993445
0.098446
0.0974898
0.0964177
0.0953183
0.0943261
0.0944046
0.0955104
0.0973133
0.100229
0.10423
0.109151
0.115005
0.121502
0.128525
0.135807
0.143197
0.150335
0.157089
0.163047
0.167875
0.171148
0.172435
0.171817
0.169693
0.166399
0.162283
0.157633
0.152664
0.14753
0.142345
0.137206
0.132219
0.127485
0.123222
0.119412
0.114065
0.100771
0.100851
0.101062
0.100805
0.100295
0.0994762
0.0981876
0.0962535
0.0933319
0.0899507
0.0858497
0.0815763
0.0773836
0.0733133
0.0694732
0.0659153
0.0627149
0.0598978
0.0574855
0.0554681
0.0538397
0.052581
0.0516685
0.0510598
0.0507282
0.0506415
0.0507392
0.0509563
0.0512367
0.0515851
0.0526438
0.0550199
0.0582476
0.0616379
0.0647488
0.0675438
0.0699149
0.0740258
0.0777016
0.121954
0.121783
0.121403
0.120815
0.120134
0.119252
0.11817
0.11695
0.115523
0.114153
0.112989
0.112106
0.111474
0.111068
0.110754
0.110583
0.110642
0.110988
0.111331
0.110926
0.111057
0.11193
0.113361
0.118304
0.125441
0.132875
0.139688
0.145458
0.150009
0.153285
0.155355
0.156378
0.156561
0.15611
0.155224
0.153947
0.152675
0.149995
0.150083
0.122124
0.122071
0.122079
0.121817
0.121369
0.120694
0.119713
0.118391
0.11675
0.114741
0.112366
0.109689
0.106764
0.103604
0.100299
0.0968895
0.0934414
0.0900012
0.0866226
0.0833201
0.0801223
0.077027
0.0740365
0.0710621
0.0680547
0.0650772
0.0621701
0.0593756
0.0567245
0.0542516
0.0519568
0.0503203
0.0501809
0.0511689
0.0528415
0.054996
0.0575603
0.0604689
0.0654913
0.129092
0.128985
0.128776
0.128463
0.128085
0.127599
0.127
0.126309
0.125493
0.124561
0.123516
0.12236
0.121159
0.120016
0.11883
0.117279
0.115473
0.11352
0.111439
0.109216
0.106964
0.104836
0.10288
0.101606
0.101423
0.102412
0.104526
0.110383
0.117863
0.125822
0.133712
0.141143
0.147871
0.153803
0.158997
0.163488
0.167698
0.170108
0.173432
0.129173
0.12917
0.129157
0.129023
0.128788
0.128429
0.127906
0.127197
0.126289
0.125163
0.12381
0.122245
0.120476
0.118495
0.116332
0.114
0.111526
0.108938
0.106271
0.10354
0.100775
0.0979821
0.09516
0.0922257
0.0891143
0.0858723
0.0825292
0.0791215
0.0756815
0.0722416
0.0688301
0.0654816
0.0623027
0.0594473
0.056888
0.055562
0.0558765
0.0566304
0.0593129
0.132699
0.132626
0.132486
0.132283
0.132041
0.131729
0.131347
0.130905
0.130383
0.129786
0.129109
0.128342
0.12748
0.126518
0.125449
0.124256
0.122894
0.121337
0.119544
0.117509
0.11521
0.112686
0.109931
0.107306
0.105255
0.103663
0.102323
0.100979
0.100868
0.102211
0.107695
0.115419
0.124523
0.134439
0.144748
0.155179
0.165836
0.176127
0.185658
0.132755
0.13275
0.132742
0.132651
0.132502
0.132268
0.131933
0.131486
0.13092
0.130225
0.129396
0.128437
0.127346
0.12611
0.124741
0.123234
0.121598
0.119838
0.117969
0.115997
0.113933
0.11178
0.10953
0.107116
0.10448
0.101646
0.0986286
0.0954484
0.0921265
0.0886862
0.0851514
0.0815491
0.0779012
0.0742457
0.0706
0.0670284
0.0638359
0.0605538
0.0590797
0.134759
0.134705
0.134611
0.134473
0.134306
0.134092
0.133831
0.133527
0.13317
0.132761
0.132296
0.131768
0.131172
0.130501
0.129745
0.128892
0.127923
0.126819
0.125545
0.124077
0.122369
0.120399
0.118125
0.115608
0.113011
0.110447
0.107876
0.105693
0.103884
0.102182
0.100845
0.100912
0.104941
0.112269
0.122426
0.135182
0.150296
0.168384
0.186992
0.134794
0.134791
0.134785
0.134723
0.134622
0.13446
0.134227
0.13392
0.133537
0.133073
0.132523
0.13189
0.131172
0.13036
0.129459
0.12846
0.127366
0.126175
0.124892
0.123514
0.122045
0.120479
0.118806
0.116972
0.114927
0.112674
0.110213
0.10755
0.10469
0.101644
0.0984229
0.0950448
0.0915249
0.0878789
0.0841202
0.0802078
0.0761545
0.0716456
0.0647819
0.136072
0.136035
0.135965
0.135865
0.135744
0.135589
0.135401
0.135183
0.134927
0.134633
0.134301
0.133922
0.133495
0.133013
0.132467
0.131851
0.131151
0.130352
0.129432
0.128372
0.127141
0.125714
0.124056
0.12215
0.120026
0.117724
0.115234
0.112652
0.110067
0.107443
0.105233
0.10326
0.101513
0.101295
0.105546
0.114464
0.12847
0.150219
0.178016
0.136098
0.136095
0.136089
0.136043
0.135971
0.135852
0.135681
0.135456
0.135181
0.134851
0.134463
0.134021
0.133522
0.132961
0.132338
0.131648
0.130889
0.130059
0.12916
0.128186
0.127138
0.126007
0.124782
0.123422
0.121884
0.120164
0.118253
0.116143
0.11383
0.11131
0.108581
0.105648
0.102515
0.099188
0.0956671
0.0919167
0.0878312
0.0834102
0.0745875
0.136974
0.136945
0.136894
0.136819
0.136727
0.136611
0.13647
0.136305
0.136114
0.135894
0.135644
0.135361
0.135041
0.134679
0.134269
0.133804
0.133275
0.132673
0.131982
0.131188
0.130272
0.129217
0.127999
0.126599
0.12502
0.123255
0.121275
0.119063
0.116641
0.114013
0.111313
0.108547
0.106022
0.103765
0.102013
0.102785
0.110114
0.128244
0.161041
0.136992
0.136989
0.136982
0.136947
0.136894
0.136803
0.136671
0.136501
0.136293
0.136047
0.13576
0.135437
0.135074
0.134669
0.134221
0.133727
0.133182
0.132586
0.131937
0.131231
0.130466
0.129636
0.128729
0.127716
0.126563
0.125262
0.123801
0.122168
0.120352
0.118341
0.116124
0.113695
0.111047
0.108172
0.10506
0.101677
0.097862
0.0938155
0.0849463
0.137627
0.137605
0.137565
0.137507
0.137437
0.137346
0.137237
0.137111
0.136963
0.136794
0.136603
0.136386
0.136141
0.135865
0.135553
0.135199
0.134796
0.134338
0.13381
0.133204
0.132502
0.131692
0.13076
0.129694
0.128497
0.127157
0.125642
0.12392
0.121968
0.119761
0.117298
0.114584
0.111735
0.108749
0.106034
0.103561
0.102524
0.110757
0.140817
0.13764
0.137636
0.137629
0.1376
0.137559
0.137489
0.137384
0.13725
0.137088
0.136898
0.136678
0.136432
0.13616
0.135857
0.135524
0.135158
0.134755
0.134314
0.133834
0.133309
0.132739
0.132117
0.131433
0.130666
0.129791
0.128799
0.127678
0.126417
0.125002
0.123419
0.121654
0.119693
0.117521
0.115125
0.112479
0.109553
0.106157
0.102568
0.0943898
0.138119
0.138102
0.138071
0.138025
0.137969
0.137897
0.13781
0.137709
0.137591
0.137457
0.137306
0.137134
0.136941
0.136724
0.136477
0.136198
0.135881
0.13552
0.135107
0.134634
0.134089
0.133461
0.132738
0.131911
0.130983
0.129945
0.128771
0.127438
0.125914
0.124166
0.122159
0.119861
0.117263
0.114345
0.111224
0.107958
0.104876
0.102714
0.123149
0.138129
0.138124
0.138116
0.138091
0.13806
0.138003
0.137919
0.13781
0.13768
0.137529
0.137356
0.137164
0.136953
0.13672
0.136466
0.136187
0.135882
0.135548
0.135183
0.134785
0.13435
0.133874
0.13335
0.132759
0.132084
0.131317
0.130447
0.129466
0.128359
0.127114
0.125715
0.124146
0.122392
0.120432
0.118237
0.115775
0.112853
0.109754
0.102534
0.138502
0.138489
0.138463
0.138426
0.138381
0.138322
0.13825
0.138168
0.138072
0.137964
0.137842
0.137704
0.137549
0.137374
0.137178
0.136955
0.136703
0.136416
0.136088
0.135712
0.135278
0.134779
0.134205
0.133551
0.132818
0.131997
0.13107
0.130018
0.128817
0.127439
0.125846
0.123997
0.121844
0.119331
0.116429
0.113039
0.109565
0.103858
0.112544
0.13851
0.138503
0.138495
0.138473
0.138448
0.138402
0.138332
0.138242
0.138136
0.138013
0.137874
0.137721
0.137553
0.13737
0.137171
0.136954
0.136717
0.136459
0.136176
0.135868
0.135531
0.13516
0.134751
0.134288
0.133759
0.133157
0.132474
0.131702
0.130828
0.129841
0.128728
0.127473
0.126061
0.12447
0.122671
0.120633
0.118171
0.115555
0.109363
0.138808
0.138798
0.138776
0.138745
0.138707
0.138657
0.138597
0.138529
0.138449
0.138359
0.138258
0.138145
0.138018
0.137875
0.137714
0.137534
0.137328
0.137095
0.13683
0.136526
0.136176
0.135775
0.135316
0.134792
0.134205
0.133547
0.132803
0.131959
0.130997
0.129894
0.128622
0.127143
0.125409
0.123352
0.120903
0.117852
0.114461
0.108722
0.10856
0.138814
0.138806
0.138797
0.138777
0.138756
0.138719
0.13866
0.138585
0.138497
0.138395
0.13828
0.138155
0.13802
0.137873
0.137715
0.137542
0.137355
0.137151
0.136929
0.136686
0.13642
0.136128
0.135803
0.135436
0.135015
0.134536
0.133993
0.133377
0.13268
0.13189
0.130998
0.129989
0.128848
0.127558
0.126088
0.124413
0.122364
0.120184
0.114987
0.139057
0.139048
0.13903
0.139003
0.13897
0.138927
0.138876
0.138818
0.13875
0.138675
0.13859
0.138495
0.13839
0.138271
0.138139
0.137989
0.13782
0.137629
0.137411
0.137162
0.136876
0.136549
0.136174
0.135749
0.135273
0.13474
0.134137
0.133452
0.132671
0.131776
0.130745
0.129548
0.128148
0.126484
0.124485
0.121936
0.118893
0.113979
0.109241
0.139061
0.139053
0.139043
0.139024
0.139007
0.138976
0.138926
0.138862
0.138788
0.138702
0.138607
0.138503
0.138392
0.138272
0.138143
0.138005
0.137854
0.137691
0.137514
0.13732
0.137107
0.136873
0.136612
0.136316
0.135978
0.135592
0.135155
0.134658
0.134096
0.133459
0.132737
0.131919
0.130992
0.129941
0.128738
0.127362
0.125664
0.123859
0.119562
0.139263
0.139256
0.139239
0.139216
0.139186
0.139149
0.139104
0.139053
0.138995
0.138931
0.138859
0.138779
0.13869
0.13859
0.138479
0.138354
0.138213
0.138054
0.137872
0.137666
0.137429
0.137159
0.136851
0.136502
0.136112
0.135675
0.135181
0.13462
0.13398
0.133246
0.1324
0.13142
0.130276
0.128918
0.127289
0.125217
0.122619
0.118631
0.112442
0.139266
0.139258
0.139246
0.139229
0.139214
0.139188
0.139146
0.139091
0.139027
0.138954
0.138873
0.138786
0.138694
0.138594
0.138488
0.138375
0.138253
0.13812
0.137977
0.13782
0.137647
0.137457
0.137246
0.137005
0.13673
0.136416
0.13606
0.135656
0.135198
0.134679
0.13409
0.133422
0.132664
0.131802
0.130813
0.129679
0.128273
0.126778
0.123257
0.139436
0.139429
0.139414
0.139392
0.139366
0.139332
0.139293
0.139248
0.139198
0.139142
0.13908
0.139012
0.138936
0.138852
0.138757
0.138652
0.138533
0.138399
0.138246
0.138073
0.137876
0.13765
0.137394
0.137104
0.136781
0.13642
0.136012
0.135548
0.135018
0.134412
0.133713
0.132902
0.131956
0.130837
0.129495
0.127809
0.125637
0.122525
0.1163
0.139438
0.13943
0.139418
0.1394
0.139388
0.139365
0.139329
0.139281
0.139226
0.139164
0.139094
0.139021
0.138942
0.138859
0.138771
0.138677
0.138576
0.138467
0.13835
0.138221
0.13808
0.137925
0.137751
0.137554
0.137327
0.13707
0.136777
0.136446
0.136069
0.135642
0.135158
0.134608
0.133984
0.133272
0.132455
0.131517
0.13035
0.129107
0.126234
0.139582
0.139576
0.139561
0.139541
0.139517
0.139486
0.139451
0.139411
0.139367
0.139319
0.139265
0.139206
0.139141
0.139069
0.138989
0.138899
0.138798
0.138684
0.138555
0.138408
0.138241
0.138051
0.137836
0.137594
0.137324
0.137022
0.136681
0.136295
0.135854
0.135348
0.134766
0.134092
0.133304
0.132372
0.131255
0.129868
0.128053
0.12565
0.120062
0.139584
0.139576
0.139563
0.139546
0.139535
0.139516
0.139484
0.139443
0.139395
0.13934
0.13928
0.139217
0.13915
0.139079
0.139005
0.138927
0.138843
0.138752
0.138655
0.138549
0.138432
0.138304
0.13816
0.137997
0.137809
0.137596
0.137354
0.137079
0.136768
0.136414
0.136013
0.135557
0.135039
0.134449
0.13377
0.132988
0.132017
0.130978
0.128636
0.139707
0.139701
0.139686
0.139667
0.139644
0.139616
0.139584
0.13955
0.139511
0.139468
0.139422
0.139371
0.139315
0.139253
0.139184
0.139107
0.13902
0.138923
0.138812
0.138687
0.138545
0.138384
0.138202
0.137997
0.13777
0.137516
0.137229
0.136904
0.136534
0.13611
0.135622
0.135057
0.134396
0.133616
0.132679
0.131526
0.129998
0.128117
0.123392
0.139709
0.139701
0.139688
0.139671
0.139661
0.139645
0.139617
0.139581
0.139538
0.139491
0.139438
0.139383
0.139326
0.139265
0.139202
0.139136
0.139065
0.138989
0.138908
0.138819
0.138722
0.138615
0.138496
0.138359
0.138203
0.138025
0.137823
0.137594
0.137335
0.13704
0.136705
0.136325
0.135893
0.1354
0.134832
0.134178
0.133366
0.132494
0.130581
0.139815
0.139808
0.139793
0.139775
0.139753
0.139728
0.139699
0.139668
0.139634
0.139597
0.139557
0.139512
0.139464
0.13941
0.139351
0.139284
0.13921
0.139126
0.139031
0.138924
0.138802
0.138664
0.138508
0.138334
0.138141
0.137926
0.137683
0.137408
0.137095
0.136737
0.136325
0.135848
0.135291
0.134634
0.133845
0.132879
0.131586
0.13007
0.126193
0.139817
0.13981
0.139796
0.139779
0.13977
0.139756
0.139732
0.1397
0.139662
0.13962
0.139574
0.139526
0.139475
0.139423
0.139369
0.139312
0.139252
0.139189
0.13912
0.139046
0.138964
0.138875
0.138774
0.13866
0.138528
0.138379
0.13821
0.138018
0.1378
0.137553
0.137272
0.136954
0.136591
0.136177
0.1357
0.13515
0.134468
0.133731
0.132165
0.139909
0.139901
0.139886
0.139868
0.139848
0.139824
0.139799
0.139771
0.139741
0.139709
0.139674
0.139635
0.139593
0.139547
0.139495
0.139438
0.139374
0.139301
0.139219
0.139126
0.139021
0.138903
0.138769
0.13862
0.138454
0.138271
0.138064
0.137829
0.137563
0.137258
0.136908
0.136504
0.136032
0.135476
0.134807
0.133993
0.132899
0.131642
0.128495
0.139911
0.139904
0.139891
0.139873
0.139865
0.139853
0.139832
0.139803
0.139769
0.139732
0.139691
0.139648
0.139604
0.139559
0.139512
0.139463
0.139412
0.139358
0.1393
0.139237
0.139168
0.139093
0.139008
0.138911
0.1388
0.138674
0.138532
0.13837
0.138186
0.137978
0.137741
0.137473
0.137167
0.136817
0.136415
0.13595
0.135376
0.134751
0.133464
0.13999
0.139981
0.139966
0.139949
0.13993
0.139909
0.139886
0.139862
0.139835
0.139807
0.139777
0.139744
0.139708
0.139668
0.139623
0.139573
0.139517
0.139454
0.139383
0.139303
0.139211
0.139109
0.138993
0.138864
0.138722
0.138564
0.138386
0.138185
0.137957
0.137697
0.137398
0.137052
0.13665
0.136177
0.135609
0.134918
0.133992
0.132928
0.130405
0.139993
0.139987
0.139974
0.139955
0.139949
0.139938
0.139919
0.139894
0.139863
0.139829
0.139793
0.139755
0.139716
0.139676
0.139636
0.139593
0.139549
0.139503
0.139453
0.1394
0.139342
0.139278
0.139206
0.139124
0.13903
0.138923
0.138802
0.138665
0.13851
0.138333
0.138133
0.137905
0.137646
0.13735
0.137008
0.136615
0.136129
0.135596
0.134535
0.140061
0.140051
0.140036
0.140019
0.140002
0.139983
0.139963
0.139942
0.139919
0.139896
0.13987
0.139841
0.13981
0.139775
0.139737
0.139693
0.139644
0.139589
0.139527
0.139457
0.139377
0.139288
0.139188
0.139076
0.138953
0.138817
0.138663
0.13849
0.138293
0.138069
0.137812
0.137516
0.137171
0.136766
0.136281
0.135692
0.134909
0.133992
0.131996
0.140065
0.140061
0.140047
0.140028
0.140022
0.140013
0.139996
0.139973
0.139946
0.139915
0.139882
0.139848
0.139814
0.139779
0.139743
0.139706
0.139668
0.139629
0.139586
0.139541
0.139491
0.139437
0.139375
0.139306
0.139225
0.139134
0.139031
0.138915
0.138783
0.138633
0.138462
0.138269
0.138048
0.137796
0.137506
0.137171
0.136758
0.136303
0.135425
0.140123
0.140113
0.140097
0.140082
0.140066
0.140049
0.140032
0.140014
0.139995
0.139975
0.139953
0.139929
0.139902
0.139872
0.139838
0.1398
0.139757
0.139709
0.139654
0.139593
0.139523
0.139445
0.139357
0.13926
0.139153
0.139035
0.138902
0.138752
0.138582
0.138388
0.138167
0.137911
0.137614
0.137266
0.13685
0.136345
0.135681
0.134885
0.133305
0.140129
0.140125
0.140112
0.140093
0.140087
0.14008
0.140065
0.140044
0.140018
0.13999
0.13996
0.13993
0.139899
0.139868
0.139837
0.139805
0.139772
0.139738
0.139702
0.139663
0.13962
0.139574
0.139522
0.139462
0.139393
0.139315
0.139228
0.139128
0.139015
0.138887
0.138742
0.138577
0.138388
0.138173
0.137925
0.137639
0.137288
0.136898
0.136169
0.140178
0.140167
0.140152
0.140137
0.140123
0.140108
0.140094
0.14008
0.140064
0.140048
0.140029
0.140008
0.139985
0.139958
0.139928
0.139895
0.139857
0.139815
0.139767
0.139712
0.139651
0.139583
0.139506
0.139421
0.139328
0.139225
0.13911
0.13898
0.138832
0.138664
0.138472
0.138251
0.137994
0.137693
0.137334
0.1369
0.136337
0.135642
0.134379
0.140185
0.140183
0.14017
0.140151
0.140146
0.140139
0.140126
0.140106
0.140083
0.140057
0.14003
0.140002
0.139975
0.139948
0.13992
0.139892
0.139864
0.139834
0.139803
0.13977
0.139733
0.139693
0.139649
0.139597
0.139539
0.139472
0.139396
0.139311
0.139215
0.139105
0.138981
0.138839
0.138678
0.138494
0.138282
0.138036
0.137736
0.137402
0.136795
0.140227
0.140215
0.1402
0.140187
0.140174
0.140162
0.140151
0.14014
0.140128
0.140114
0.140098
0.14008
0.140059
0.140036
0.140009
0.13998
0.139947
0.139909
0.139867
0.139819
0.139765
0.139705
0.139637
0.139563
0.139482
0.139392
0.139291
0.139178
0.139049
0.138903
0.138736
0.138544
0.138321
0.138061
0.137751
0.137374
0.136903
0.136295
0.135269
0.140235
0.140234
0.140222
0.140202
0.140198
0.140192
0.14018
0.140162
0.14014
0.140116
0.140091
0.140067
0.140042
0.140018
0.139994
0.13997
0.139945
0.13992
0.139893
0.139864
0.139833
0.139798
0.13976
0.139716
0.139665
0.139608
0.139543
0.13947
0.139387
0.139293
0.139186
0.139065
0.138926
0.138768
0.138586
0.138375
0.138118
0.137831
0.137323
0.14027
0.140257
0.140243
0.140231
0.140221
0.140212
0.140205
0.140196
0.140186
0.140174
0.14016
0.140144
0.140126
0.140106
0.140083
0.140057
0.140027
0.139994
0.139957
0.139915
0.139867
0.139814
0.139754
0.139689
0.139618
0.139539
0.139451
0.139351
0.139239
0.139111
0.138966
0.138799
0.138605
0.138379
0.138111
0.137781
0.137399
0.136867
0.13602
0.140279
0.14028
0.140268
0.140249
0.140245
0.14024
0.140229
0.140212
0.140191
0.140169
0.140146
0.140124
0.140103
0.140081
0.14006
0.140039
0.140018
0.139996
0.139972
0.139947
0.139921
0.139891
0.139858
0.13982
0.139776
0.139727
0.139671
0.139608
0.139537
0.139456
0.139364
0.13926
0.139141
0.139005
0.138848
0.138667
0.138446
0.138198
0.137772
0.140308
0.140295
0.140282
0.140272
0.140265
0.140259
0.140254
0.140247
0.140239
0.140229
0.140217
0.140203
0.140187
0.14017
0.140149
0.140127
0.140101
0.140072
0.140039
0.140001
0.139959
0.139912
0.139859
0.139802
0.139739
0.13967
0.139592
0.139505
0.139406
0.139294
0.139167
0.139021
0.138853
0.138655
0.138426
0.138139
0.137831
0.137371
0.136664
0.140318
0.140322
0.14031
0.14029
0.140287
0.140283
0.140273
0.140256
0.140236
0.140216
0.140195
0.140176
0.140157
0.140138
0.14012
0.140101
0.140083
0.140064
0.140043
0.140022
0.139999
0.139973
0.139945
0.139912
0.139875
0.139832
0.139784
0.13973
0.139669
0.1396
0.139521
0.139431
0.139329
0.139212
0.139077
0.138921
0.138731
0.138516
0.138157
0.140342
0.14033
0.140318
0.140309
0.140305
0.140303
0.140299
0.140294
0.140287
0.140279
0.140269
0.140257
0.140244
0.140229
0.140211
0.140191
0.140169
0.140143
0.140114
0.140081
0.140043
0.140001
0.139955
0.139904
0.139848
0.139787
0.139719
0.139642
0.139555
0.139457
0.139345
0.139217
0.139071
0.138901
0.138711
0.13847
0.138215
0.137818
0.137223
0.140353
0.140359
0.140348
0.140328
0.140325
0.140322
0.140312
0.140295
0.140277
0.140258
0.14024
0.140223
0.140206
0.14019
0.140174
0.140158
0.140142
0.140125
0.140108
0.140089
0.140069
0.140047
0.140023
0.139995
0.139963
0.139927
0.139886
0.13984
0.139788
0.139729
0.139662
0.139586
0.139498
0.139398
0.139281
0.139146
0.138982
0.138796
0.13849
0.140372
0.140361
0.14035
0.140345
0.140344
0.140343
0.140341
0.140337
0.140332
0.140325
0.140317
0.140308
0.140296
0.140283
0.140268
0.140251
0.140231
0.140208
0.140182
0.140153
0.14012
0.140083
0.140041
0.139996
0.139947
0.139893
0.139832
0.139764
0.139688
0.139601
0.139503
0.139393
0.139269
0.139128
0.138972
0.138773
0.138557
0.138221
0.137716
0.140384
0.140392
0.140382
0.140361
0.14036
0.140357
0.140347
0.140331
0.140313
0.140297
0.14028
0.140265
0.140251
0.140237
0.140223
0.140209
0.140195
0.140181
0.140166
0.14015
0.140133
0.140115
0.140094
0.140071
0.140045
0.140015
0.139982
0.139944
0.139901
0.139852
0.139796
0.139731
0.139656
0.13957
0.139469
0.139351
0.139209
0.139046
0.138784
0.1404
0.140389
0.140379
0.140378
0.14038
0.14038
0.140379
0.140377
0.140373
0.140368
0.140362
0.140355
0.140345
0.140334
0.140321
0.140306
0.140289
0.140269
0.140246
0.14022
0.140191
0.140157
0.140121
0.14008
0.140037
0.139989
0.139935
0.139875
0.139807
0.139732
0.139648
0.139556
0.139455
0.139339
0.139209
0.139046
0.138862
0.138583
0.138154
0.140411
0.140422
0.140413
0.140392
0.140391
0.140389
0.140378
0.140362
0.140346
0.140331
0.140318
0.140304
0.140292
0.14028
0.140268
0.140256
0.140244
0.140232
0.140219
0.140206
0.140193
0.140178
0.140162
0.140144
0.140124
0.140102
0.140077
0.140048
0.140013
0.139973
0.139927
0.139872
0.139808
0.139734
0.139647
0.139544
0.13942
0.139278
0.139049
0.140425
0.140415
0.140407
0.14041
0.140414
0.140414
0.140414
0.140413
0.140412
0.140409
0.140404
0.140399
0.140391
0.140382
0.140371
0.140359
0.140344
0.140326
0.140306
0.140283
0.140257
0.140228
0.140195
0.140159
0.14012
0.140077
0.140029
0.139976
0.139917
0.139854
0.139785
0.13971
0.139627
0.139532
0.139423
0.139287
0.139131
0.138901
0.138541
0.140436
0.140448
0.14044
0.140419
0.14042
0.140418
0.140406
0.140391
0.140376
0.140363
0.140352
0.14034
0.14033
0.140319
0.140309
0.140299
0.14029
0.14028
0.14027
0.140261
0.14025
0.14024
0.14023
0.14022
0.140208
0.140194
0.140176
0.140154
0.140127
0.140095
0.140057
0.140011
0.139957
0.139893
0.139818
0.139728
0.139619
0.139494
0.139293
0.140448
0.140438
0.140432
0.140441
0.140444
0.140444
0.140446
0.140447
0.140447
0.140446
0.140443
0.140439
0.140434
0.140427
0.140418
0.140408
0.140396
0.140381
0.140365
0.140345
0.140322
0.140296
0.140267
0.140235
0.1402
0.140162
0.14012
0.140075
0.140026
0.139974
0.139917
0.139854
0.139785
0.139705
0.139613
0.1395
0.139368
0.139178
0.13888
0.140457
0.140469
0.140463
0.140444
0.140445
0.140443
0.140431
0.140416
0.140404
0.140393
0.140383
0.140374
0.140365
0.140356
0.140349
0.140341
0.140334
0.140327
0.140321
0.140315
0.140309
0.140305
0.140303
0.140301
0.140296
0.140287
0.140275
0.140259
0.140239
0.140215
0.140184
0.140147
0.140102
0.140048
0.139983
0.139905
0.13981
0.139698
0.139528
0.140468
0.140459
0.140456
0.140467
0.140469
0.14047
0.140473
0.140475
0.140476
0.140476
0.140475
0.140473
0.14047
0.140466
0.140461
0.140454
0.140445
0.140435
0.140423
0.140409
0.140392
0.140372
0.14035
0.140324
0.140295
0.140263
0.140227
0.140188
0.140146
0.140099
0.140049
0.139993
0.139932
0.139863
0.139783
0.139687
0.139574
0.139417
0.139172
0.140475
0.140482
0.140479
0.140465
0.140465
0.140463
0.140453
0.140439
0.140429
0.14042
0.140412
0.140404
0.140398
0.140392
0.140386
0.140382
0.140377
0.140374
0.140371
0.14037
0.140369
0.14037
0.140372
0.140372
0.14037
0.140364
0.140357
0.140347
0.140334
0.140319
0.140299
0.140273
0.140241
0.140198
0.140144
0.140077
0.139994
0.139892
0.139759
0.140484
0.140477
0.140477
0.140485
0.140486
0.140488
0.140491
0.140493
0.140494
0.140495
0.140495
0.140495
0.140494
0.140493
0.14049
0.140487
0.140483
0.140478
0.140471
0.140463
0.140454
0.140443
0.140429
0.140412
0.140393
0.14037
0.140342
0.14031
0.140274
0.140233
0.140186
0.140135
0.140078
0.140013
0.139941
0.139856
0.139758
0.139624
0.139424
0.140487
0.14049
0.140488
0.140479
0.140478
0.140476
0.140469
0.140458
0.140451
0.140444
0.140438
0.140432
0.140428
0.140425
0.140422
0.14042
0.140418
0.140417
0.140417
0.140417
0.140417
0.140418
0.140418
0.140418
0.140416
0.140413
0.140408
0.140402
0.140395
0.140386
0.140375
0.140361
0.140342
0.140317
0.140283
0.140235
0.14017
0.140078
0.139976
0.140492
0.14049
0.14049
0.140495
0.140497
0.140498
0.140501
0.140503
0.140505
0.140507
0.140508
0.140509
0.140509
0.140509
0.140508
0.140507
0.140505
0.140503
0.1405
0.140496
0.140491
0.140485
0.140477
0.140468
0.140458
0.140445
0.140428
0.140408
0.140383
0.140352
0.140315
0.140272
0.140221
0.140162
0.140094
0.140015
0.139926
0.139808
0.139642
0.140494
0.140496
0.140493
0.140487
0.140485
0.140483
0.140478
0.140471
0.140466
0.140462
0.140458
0.140454
0.140452
0.14045
0.140448
0.140447
0.140446
0.140446
0.140445
0.140445
0.140445
0.140445
0.140445
0.140444
0.140443
0.140441
0.140439
0.140436
0.140432
0.140427
0.140421
0.140413
0.140403
0.140389
0.140371
0.140344
0.140309
0.140238
0.140163
0.140498
0.140496
0.140497
0.140501
0.140503
0.140505
0.140508
0.14051
0.140513
0.140515
0.140517
0.140518
0.140519
0.14052
0.14052
0.14052
0.14052
0.140519
0.140518
0.140516
0.140513
0.14051
0.140506
0.140501
0.140496
0.140489
0.14048
0.140469
0.140455
0.140437
0.140413
0.140383
0.140345
0.140297
0.14024
0.140168
0.140086
0.139978
0.139835
0.140498
0.140499
0.140497
0.140492
0.140489
0.140487
0.140483
0.140478
0.140474
0.140471
0.140468
0.140466
0.140465
0.140464
0.140463
0.140462
0.140462
0.140461
0.140461
0.140461
0.140461
0.140461
0.140461
0.140461
0.140461
0.14046
0.140459
0.140458
0.140456
0.140453
0.14045
0.140446
0.14044
0.140433
0.140423
0.140408
0.140391
0.140352
0.140306
0.1405
0.1405
0.140501
0.140505
0.140507
0.14051
0.140513
0.140515
0.140518
0.140521
0.140523
0.140525
0.140526
0.140528
0.140529
0.14053
0.140531
0.140531
0.140531
0.14053
0.140529
0.140528
0.140526
0.140523
0.14052
0.140516
0.140511
0.140505
0.140497
0.140488
0.140475
0.140458
0.140435
0.140404
0.140362
0.140305
0.140236
0.140139
0.140013
0.1405
0.1405
0.140499
0.140494
0.140492
0.140489
0.140485
0.140481
0.140478
0.140476
0.140474
0.140473
0.140472
0.140472
0.140471
0.140471
0.140471
0.140471
0.140471
0.140471
0.140471
0.140471
0.140472
0.140473
0.140473
0.140473
0.140473
0.140472
0.140472
0.140471
0.14047
0.140468
0.140465
0.140461
0.140456
0.140448
0.140439
0.140419
0.140396
0.140502
0.140502
0.140504
0.140507
0.14051
0.140512
0.140516
0.140519
0.140522
0.140525
0.140527
0.14053
0.140532
0.140534
0.140536
0.140537
0.140539
0.14054
0.140541
0.140541
0.140541
0.140541
0.14054
0.140539
0.140537
0.140535
0.140532
0.140529
0.140524
0.140519
0.140512
0.140504
0.140492
0.140475
0.14045
0.140413
0.140362
0.140284
0.140177
0.140501
0.140501
0.140499
0.140495
0.140492
0.14049
0.140486
0.140483
0.14048
0.140479
0.140478
0.140477
0.140476
0.140476
0.140476
0.140476
0.140476
0.140477
0.140477
0.140477
0.140478
0.140479
0.140479
0.14048
0.140481
0.140482
0.140482
0.140483
0.140483
0.140483
0.140483
0.140483
0.140482
0.140481
0.140478
0.140474
0.14047
0.140459
0.140448
0.140502
0.140503
0.140505
0.140508
0.140511
0.140514
0.140518
0.140521
0.140524
0.140528
0.140531
0.140533
0.140536
0.140539
0.140541
0.140543
0.140545
0.140547
0.140548
0.14055
0.140551
0.140551
0.140552
0.140552
0.140551
0.14055
0.140549
0.140547
0.140544
0.140541
0.140537
0.140533
0.140526
0.140518
0.140506
0.140486
0.140456
0.140401
0.140321
0.140501
0.140501
0.140499
0.140495
0.140492
0.140489
0.140486
0.140483
0.140481
0.14048
0.140479
0.140479
0.140479
0.140479
0.140479
0.140479
0.14048
0.14048
0.140481
0.140482
0.140482
0.140483
0.140484
0.140485
0.140487
0.140488
0.140489
0.14049
0.140491
0.140492
0.140493
0.140493
0.140494
0.140494
0.140494
0.140493
0.140491
0.140485
0.140481
0.140502
0.140503
0.140505
0.140508
0.140512
0.140515
0.140519
0.140523
0.140526
0.14053
0.140533
0.140536
0.140539
0.140542
0.140545
0.140548
0.14055
0.140552
0.140554
0.140556
0.140558
0.14056
0.140561
0.140562
0.140562
0.140562
0.140562
0.140561
0.14056
0.140559
0.140557
0.140554
0.140551
0.140546
0.14054
0.140531
0.140517
0.140485
0.140435
0.140501
0.1405
0.140498
0.140494
0.140491
0.140488
0.140485
0.140482
0.14048
0.14048
0.140479
0.140479
0.140479
0.14048
0.14048
0.140481
0.140482
0.140482
0.140483
0.140484
0.140485
0.140486
0.140487
0.140489
0.14049
0.140491
0.140493
0.140494
0.140496
0.140498
0.140499
0.140501
0.140502
0.140504
0.140505
0.140506
0.140506
0.140504
0.140504
0.140501
0.140502
0.140504
0.140508
0.140512
0.140515
0.140519
0.140523
0.140527
0.140531
0.140535
0.140538
0.140542
0.140545
0.140548
0.140551
0.140554
0.140557
0.140559
0.140562
0.140564
0.140566
0.140568
0.14057
0.140571
0.140572
0.140573
0.140573
0.140573
0.140573
0.140572
0.140571
0.140569
0.140567
0.140564
0.14056
0.140555
0.140538
0.140516
0.140499
0.140498
0.140496
0.140493
0.140489
0.140486
0.140483
0.140481
0.140479
0.140478
0.140478
0.140479
0.140479
0.14048
0.140481
0.140481
0.140482
0.140483
0.140484
0.140485
0.140486
0.140487
0.140489
0.14049
0.140492
0.140494
0.140495
0.140497
0.140499
0.140501
0.140503
0.140506
0.140508
0.14051
0.140513
0.140515
0.140517
0.140517
0.14052
0.140499
0.140501
0.140503
0.140507
0.140511
0.140515
0.140519
0.140524
0.140528
0.140532
0.140536
0.14054
0.140543
0.140547
0.14055
0.140554
0.140557
0.14056
0.140563
0.140566
0.140569
0.140572
0.140574
0.140576
0.140578
0.14058
0.140581
0.140582
0.140584
0.140584
0.140585
0.140585
0.140585
0.140584
0.140583
0.140581
0.14058
0.140571
0.140568
0.140497
0.140496
0.140494
0.140491
0.140487
0.140484
0.140481
0.140478
0.140477
0.140477
0.140477
0.140477
0.140478
0.140479
0.14048
0.140481
0.140482
0.140483
0.140484
0.140485
0.140486
0.140487
0.140489
0.14049
0.140492
0.140494
0.140496
0.140498
0.140501
0.140503
0.140506
0.140508
0.140511
0.140514
0.140517
0.14052
0.140524
0.140525
0.14053
0.140497
0.140499
0.140502
0.140506
0.14051
0.140514
0.140519
0.140523
0.140527
0.140532
0.140536
0.14054
0.140544
0.140548
0.140552
0.140556
0.140559
0.140563
0.140566
0.14057
0.140573
0.140576
0.140579
0.140582
0.140584
0.140586
0.140588
0.14059
0.140592
0.140594
0.140595
0.140597
0.140598
0.140599
0.140599
0.140599
0.1406
0.140593
0.1406
0.140495
0.140494
0.140491
0.140488
0.140484
0.140481
0.140477
0.140475
0.140474
0.140474
0.140474
0.140475
0.140476
0.140477
0.140478
0.140479
0.14048
0.140481
0.140482
0.140483
0.140485
0.140486
0.140488