/*--------------------------------*- C++ -*----------------------------------*\
| =========                 |                                                 |
| \\      /  F ield         | OpenFOAM: The Open Source CFD Toolbox           |
|  \\    /   O peration     | Version:  3.0.0                                 |
|   \\  /    A nd           | Web:      www.OpenFOAM.org                      |
|    \\/     M anipulation  |                                                 |
\*---------------------------------------------------------------------------*/
FoamFile
{
    version     2.0;
    format      ascii;
    class       volScalarField;
    location    "350";
    object      p;
}
// * * * * * * * * * * * * * * * * * * * * * * * * * * * * * * * * * * * * * //

dimensions      [0 2 -2 0 0 0 0];

internalField   nonuniform List<scalar> 
10720
(
-0.0141933
-80.8334
-175.528
-266.061
-346.693
-427.901
-497.524
-553.488
-600.547
-635.066
-659.185
-675.174
-684.281
-687.064
-683.948
-674.463
-659.822
-638.715
-612.384
-579.451
-541.017
-496.279
-447.549
-395.774
-344.499
-298.849
-257.73
-217.441
-177.667
-138.613
-100.072
-61.8799
-23.9129
14.082
52.3692
92.0925
133.431
182.352
228.951
83.7136
160.354
245.772
328.287
401.988
462.57
506.097
530.07
537.562
534.451
521.799
502.675
481.422
460.012
439.201
419.052
399.854
381.383
363.452
345.63
327.876
309.898
291.774
273.867
257.953
245.078
234.298
225.271
218.01
212.579
208.9
206.864
206.384
207.46
210.094
214.671
221.687
234.711
257.464
148.715
86.5182
17.9956
-53.4195
-125.583
-198.388
-267.819
-331.751
-389.72
-439.967
-482.594
-517.676
-545.044
-564.878
-577.106
-581.883
-579.87
-570.589
-554.653
-531.467
-501.683
-465.07
-423.427
-377.97
-331.88
-289.561
-250.498
-211.788
-173.229
-135.121
-97.3464
-59.7747
-22.3088
15.2876
53.2664
92.7542
133.913
182.761
228.622
205.361
260.105
315.837
371.366
422.419
466.266
499.682
520.194
528.444
526.518
516.118
500.235
481.705
462.138
442.382
422.828
403.804
385.305
367.23
349.315
331.492
313.577
295.648
278.085
262.277
249.12
237.981
228.573
220.932
215.119
211.075
208.708
207.935
208.751
211.166
215.569
222.45
235.393
257.154
172.247
116.473
54.748
-12.5341
-81.18
-150.373
-218.526
-282.747
-341.425
-393.691
-438.389
-475.087
-503.871
-525.206
-539.238
-546.258
-546.44
-539.674
-526.227
-505.921
-479.132
-445.958
-407.737
-365.805
-322.783
-282.286
-244.389
-206.834
-169.281
-131.998
-94.9047
-57.8856
-20.8603
16.3873
54.0951
93.3688
134.355
183.028
228.47
223.304
274.015
325.583
375.816
420.973
459.367
488.728
507.389
515.996
515.799
508.06
494.984
478.64
460.575
441.812
422.925
404.288
386.032
368.122
350.392
332.753
315.09
297.47
280.242
264.513
251.156
239.826
230.254
222.454
216.479
212.277
209.764
208.857
209.55
211.863
216.186
223.008
235.839
256.664
209.695
162.761
109.898
52.4898
-7.01163
-68.4234
-129.956
-189.686
-246.204
-298.391
-345.141
-385.808
-420.083
-447.852
-468.981
-483.294
-490.55
-490.638
-483.605
-469.411
-448.312
-420.592
-387.351
-349.992
-310.784
-272.818
-236.658
-200.644
-164.377
-128.133
-91.898
-55.579
-19.1167
17.6825
55.0403
94.0305
134.778
183.152
228.206
252.196
293.713
336.132
378.209
416.474
449.659
475.729
493.075
502.025
503.328
497.891
487.404
473.458
457.397
440.204
422.49
404.669
386.966
369.429
351.985
334.582
317.17
299.826
282.884
267.259
253.773
242.273
232.513
224.502
218.301
213.871
211.135
210.022
210.531
212.691
216.891
223.611
236.257
256.16
224.595
182.778
135.443
83.6184
29.7131
-26.6227
-83.8881
-140.302
-194.763
-246.095
-293.135
-335.101
-371.386
-401.554
-425.293
-442.279
-452.356
-455.439
-451.511
-440.624
-422.948
-398.834
-369.188
-335.34
-299.249
-263.491
-228.875
-194.231
-159.156
-123.913
-88.5376
-52.9506
-17.1011
19.191
56.135
94.775
135.212
183.179
227.699
262.589
299.509
337.279
374.643
408.549
438.199
461.882
478.265
487.474
489.979
486.531
478.382
466.744
452.719
437.198
420.79
403.941
386.94
369.914
352.875
335.815
318.735
301.729
285.115
269.659
256.115
244.479
234.56
226.371
219.976
215.35
212.425
211.138
211.491
213.517
217.606
224.221
236.658
255.624
236.096
199.035
156.805
110.578
62.415
11.6326
-40.3492
-92.1161
-142.847
-191.442
-236.895
-278.434
-315.349
-347.057
-373.12
-393.149
-406.872
-414.022
-414.375
-407.878
-394.602
-374.861
-349.412
-319.483
-286.792
-253.52
-220.65
-187.478
-153.662
-119.462
-84.9687
-50.133
-14.9182
20.8387
57.3335
95.574
135.636
183.081
226.952
269.74
302.265
335.734
369.049
399.385
426.195
447.966
463.542
472.895
476.331
474.509
468.367
458.834
446.796
433.021
418.072
402.386
386.283
369.946
353.453
336.848
320.175
303.55
287.281
272.025
258.472
246.731
236.677
228.326
221.744
216.921
213.801
212.329
212.511
214.389
218.35
224.84
237.024
255.041
241.962
208.497
170.244
128.315
84.692
38.4143
-9.24403
-57.0394
-104.408
-150.355
-193.993
-234.61
-271.452
-303.858
-331.29
-353.253
-369.264
-379.018
-382.202
-378.751
-368.714
-352.378
-330.386
-303.83
-274.194
-243.297
-212.175
-180.482
-147.948
-114.819
-81.23
-47.1641
-12.6031
22.5961
58.6123
96.413
136.038
182.843
225.974
272.362
301.638
331.883
362.07
389.614
414.151
434.375
449.238
458.62
462.768
462.248
457.788
450.115
439.928
427.867
414.421
399.994
384.911
369.388
353.554
337.498
321.305
305.114
289.224
274.213
260.712
248.913
238.755
230.264
223.51
218.501
215.192
213.538
213.55
215.278
219.105
225.457
237.347
254.416
245.217
214.834
180.003
141.848
102.231
60.0402
16.4535
-27.4443
-71.2777
-114.191
-155.405
-194.316
-230.212
-262.428
-290.37
-313.486
-331.241
-343.276
-349.209
-348.841
-342.127
-329.265
-310.774
-287.596
-261.018
-232.572
-203.301
-173.155
-141.962
-109.956
-77.313
-44.0509
-10.1712
24.4477
59.9597
97.2856
136.416
182.472
224.771
272.85
299.383
326.921
354.509
379.747
402.387
421.312
435.521
444.841
449.516
450.02
446.947
440.876
432.36
421.923
409.965
396.847
382.874
368.273
353.203
337.79
322.153
306.45
290.976
276.252
262.858
251.046
240.815
232.206
225.297
220.11
216.617
214.782
214.622
216.194
219.877
226.073
237.627
253.753
246.408
218.586
186.637
151.657
115.434
76.7741
36.7457
-3.6712
-44.2574
-84.2597
-123.02
-160.041
-194.668
-226.261
-254.23
-277.985
-296.949
-310.668
-318.709
-320.777
-316.779
-306.863
-291.439
-271.313
-247.58
-221.515
-194.112
-165.535
-135.711
-104.867
-73.2084
-40.7875
-7.62308
26.3847
61.366
98.1859
136.775
181.985
223.36
271.74
296.011
321.305
346.723
370.023
391.061
408.867
422.471
431.661
436.71
438.012
436.066
431.353
424.314
415.369
404.841
393.033
380.216
366.607
352.383
337.693
322.681
307.521
292.503
278.111
264.88
253.101
242.832
234.132
227.088
221.736
218.066
216.053
215.72
217.132
220.66
226.684
237.863
253.052
246.311
220.691
191.237
159.02
125.752
90.2023
53.3668
16.1278
-21.4086
-58.5756
-94.8305
-129.77
-162.803
-193.367
-220.885
-244.76
-264.409
-279.335
-289.087
-293.285
-291.761
-284.579
-272.038
-254.807
-233.808
-210.093
-184.589
-157.613
-129.19
-99.5458
-68.9092
-37.3655
-4.95205
28.4102
62.8277
99.1074
137.118
181.396
221.777
269.672
292.013
315.391
338.955
360.597
380.252
397.075
410.105
419.123
424.421
426.338
425.301
421.724
415.968
408.369
399.179
388.645
376.994
364.423
351.107
337.206
322.88
308.315
293.797
279.779
266.766
255.07
244.799
236.036
228.877
223.376
219.537
217.35
216.843
218.091
221.454
227.287
238.054
252.316
245.321
221.606
194.318
164.505
133.818
101.003
66.997
32.6021
-2.14089
-36.6529
-70.4893
-103.334
-134.661
-163.975
-190.747
-214.405
-234.366
-250.107
-261.156
-267.08
-267.635
-262.822
-252.853
-238.263
-219.816
-198.371
-174.764
-149.406
-122.407
-93.9945
-64.4143
-33.7819
-2.15411
30.5276
64.3456
100.047
137.443
180.716
220.052
266.978
287.66
309.382
331.342
351.54
369.99
385.928
398.411
407.234
412.685
415.065
414.758
412.125
407.469
401.064
393.104
383.78
373.275
361.758
349.389
336.328
322.742
308.819
294.842
281.243
268.498
256.934
246.702
237.906
230.656
225.021
221.024
218.668
217.989
219.068
222.256
227.881
238.201
251.547
243.744
221.7
196.319
168.626
140.21
109.82
78.3434
46.5175
14.3266
-17.7136
-49.2379
-80.0057
-109.562
-137.482
-163.284
-186.435
-206.377
-222.584
-234.573
-241.894
-244.221
-241.497
-233.849
-221.689
-205.634
-186.379
-164.654
-140.924
-115.366
-88.2138
-59.7228
-30.0354
0.772537
32.7384
65.921
101.002
137.747
179.95
218.207
263.909
283.143
303.416
323.964
342.893
360.278
375.409
387.372
395.979
401.508
404.237
404.51
402.655
398.934
393.575
386.726
378.531
369.13
358.658
347.254
335.069
322.265
309.027
295.63
282.491
270.064
258.681
248.527
239.731
232.415
226.666
222.523
220.004
219.154
220.061
223.063
228.463
238.305
250.749
241.784
221.214
197.527
171.715
145.314
117.085
87.8708
58.3616
28.4944
-1.27165
-30.6244
-59.3929
-87.1834
-113.637
-138.332
-160.78
-180.459
-196.854
-209.472
-217.878
-221.67
-220.739
-215.14
-205.176
-191.335
-174.166
-154.29
-132.184
-108.077
-82.2071
-54.8347
-26.1245
3.82924
35.0438
67.5535
101.972
138.026
179.103
216.254
260.626
278.587
297.575
316.87
334.668
351.101
365.493
376.959
385.335
390.886
393.868
394.599
393.384
390.453
386.002
380.145
372.986
364.629
355.175
344.736
333.445
321.452
308.933
296.154
283.514
271.451
260.297
250.262
241.499
234.145
228.302
224.027
221.353
220.335
221.067
223.874
229.03
238.367
249.925
239.584
220.33
198.159
174.029
149.429
123.135
95.9544
68.5381
40.7838
13.1102
-14.2175
-41.0812
-67.1464
-92.1106
-115.616
-137.222
-156.441
-172.791
-185.776
-194.984
-199.968
-200.562
-196.762
-188.774
-176.972
-161.776
-143.699
-123.203
-100.551
-75.9794
-49.7516
-22.0488
7.01751
37.4448
69.2435
102.957
138.276
178.178
214.202
257.246
274.072
291.914
310.083
326.868
342.437
356.146
367.141
375.276
380.806
383.968
385.058
384.363
382.097
378.427
373.446
367.227
359.844
351.365
341.872
331.477
320.312
308.54
296.409
284.305
272.648
261.769
251.894
243.2
235.836
229.921
225.529
222.711
221.529
222.083
224.685
229.581
238.387
249.078
237.247
219.176
198.37
175.757
152.773
128.222
102.878
77.3538
51.5254
25.7765
0.327916
-24.7422
-49.1497
-72.6461
-94.9214
-115.591
-134.21
-150.329
-163.467
-173.233
-179.158
-181.026
-178.781
-172.55
-162.607
-149.26
-132.917
-114.006
-92.8002
-69.5379
-44.4764
-17.8091
10.338
39.9421
70.9912
103.957
138.497
177.18
212.061
253.847
269.654
286.463
303.614
319.482
334.26
347.336
357.884
365.771
371.245
374.528
375.896
375.626
373.916
370.916
366.703
361.329
354.842
347.281
338.703
329.192
318.862
307.853
296.396
284.859
273.647
263.084
253.412
244.821
237.478
231.515
227.024
224.071
222.73
223.105
225.494
230.113
238.369
248.211
234.845
217.847
198.277
177.039
155.515
132.544
108.866
85.0585
60.9868
37.0035
13.2919
-10.1
-32.9286
-54.9932
-76.034
-95.7116
-113.629
-129.373
-142.489
-152.598
-159.244
-162.157
-161.24
-156.556
-148.294
-136.664
-121.98
-104.616
-84.8431
-62.8926
-39.0141
-13.4071
13.7898
42.5361
72.7969
104.971
138.688
176.115
209.841
250.484
265.369
281.24
297.464
312.496
326.545
339.03
349.153
356.792
362.185
365.542
367.124
367.197
365.949
363.521
359.976
355.355
349.682
342.978
335.271
326.623
317.12
306.882
296.116
285.173
274.441
264.235
254.802
246.352
239.06
233.074
228.503
225.428
223.934
224.128
226.296
230.624
238.315
247.329
232.431
216.409
197.966
177.983
157.784
136.25
114.086
91.8452
69.3789
47.0123
24.9056
3.08201
-18.2558
-38.9432
-58.7656
-77.4279
-94.5767
-109.839
-122.789
-133.061
-140.231
-143.981
-144.182
-140.845
-134.088
-124.042
-110.929
-95.0631
-76.6986
-56.056
-33.3719
-8.84657
17.372
45.2263
74.6604
106
138.851
174.991
207.551
247.193
261.241
276.254
291.627
305.895
319.268
331.198
340.919
348.307
353.601
356.995
358.737
359.086
358.224
356.281
353.316
349.36
344.424
338.508
331.622
323.802
315.11
305.641
295.578
285.248
275.024
265.21
256.056
247.78
240.571
234.588
229.957
226.774
225.134
225.149
227.088
231.112
238.226
246.436
230.043
214.914
197.507
178.668
159.683
139.459
118.681
97.8688
76.8729
55.9928
35.3686
15.0001
-4.93638
-24.3131
-42.9495
-60.5921
-76.9329
-91.6327
-104.303
-114.59
-122.111
-126.514
-127.64
-125.463
-120.043
-111.442
-99.8026
-85.3767
-68.3889
-49.0429
-27.5586
-4.13244
21.082
48.0118
76.5813
107.046
138.986
173.816
205.203
244.001
257.282
271.506
286.096
299.659
312.405
323.812
333.147
340.289
345.469
348.872
350.732
351.303
350.759
349.227
346.764
343.392
339.115
333.92
327.798
320.765
312.859
304.149
294.789
285.087
275.395
266.005
257.164
249.096
242.001
236.049
231.379
228.103
226.326
226.163
227.868
231.575
238.106
245.536
227.707
213.401
196.945
179.162
161.287
142.267
122.757
103.258
83.6089
64.096
44.8395
25.8233
7.19728
-10.9356
-28.4299
-45.0665
-60.5788
-74.6633
-86.9675
-97.1512
-104.873
-109.764
-111.643
-110.451
-106.204
-98.9103
-88.6436
-75.5901
-59.9389
-41.8703
-21.5854
0.728662
24.9161
50.891
78.5595
108.108
139.098
172.599
202.808
240.925
253.5
266.996
280.862
293.769
305.929
316.843
325.811
332.709
337.765
341.154
343.098
343.846
343.566
342.382
340.35
337.49
333.799
329.257
323.841
317.548
310.393
302.423
293.764
284.697
275.555
266.615
258.118
250.291
243.34
237.446
232.76
229.406
227.502
227.164
228.631
232.012
237.957
244.634
225.442
211.896
196.32
179.511
162.659
144.746
126.405
108.11
89.7012
71.4475
53.4558
35.6942
18.2944
1.33463
-15.068
-30.7256
-45.4062
-58.8426
-70.7144
-80.7013
-88.4974
-93.734
-96.2105
-95.8431
-92.6147
-86.4944
-77.4938
-65.7379
-51.3748
-34.5581
-15.4655
5.72839
28.8696
53.8614
80.5939
109.188
139.188
171.349
200.38
237.974
249.898
262.719
275.911
288.208
299.817
310.267
318.883
325.543
330.469
333.826
335.827
336.713
336.652
335.762
334.1
331.686
328.515
324.56
319.79
314.185
307.744
300.488
292.518
284.087
275.507
267.037
258.911
251.355
244.578
238.768
234.089
230.676
228.657
228.147
229.373
232.42
237.784
243.734
223.261
210.419
195.661
179.755
163.847
146.958
129.695
112.51
95.2443
78.1527
61.328
44.7308
28.4728
12.6158
-2.7476
-17.4595
-31.3171
-44.0854
-55.477
-65.1959
-72.9602
-78.4205
-81.3566
-81.6678
-79.3158
-74.237
-66.3945
-55.8558
-42.7256
-27.1276
-9.2142
10.8566
32.9363
56.9201
82.6838
110.288
139.262
170.078
197.933
235.157
246.475
258.669
271.231
282.957
294.05
304.061
312.341
318.768
323.558
326.87
328.906
329.901
330.019
329.377
328.032
326.007
323.293
319.864
315.68
310.711
304.941
298.368
291.069
283.268
275.254
267.271
259.54
252.281
245.706
240.008
235.359
231.905
229.781
229.106
230.09
232.798
237.588
242.841
221.172
208.987
194.988
179.923
164.891
148.949
132.684
116.525
100.318
84.2999
68.5554
53.0367
37.8433
23.0197
8.638
-5.1645
-18.2173
-30.3121
-41.1922
-50.5874
-58.2342
-63.8139
-67.0896
-67.9479
-66.3395
-62.1778
-55.3852
-45.9793
-34.0208
-19.6026
-2.84887
16.1018
37.109
60.0628
84.8282
111.409
139.325
168.796
195.48
232.475
243.229
254.835
266.81
278.001
288.608
298.202
306.159
312.36
317.012
320.27
322.323
323.401
323.667
323.233
322.16
320.471
318.16
315.199
311.544
307.159
302.013
296.088
289.435
282.253
274.806
267.32
260.001
253.063
246.715
241.155
236.559
233.083
230.868
230.036
230.779
233.145
237.372
241.96
219.181
207.608
194.319
180.038
165.819
150.76
135.42
120.212
104.984
89.9613
75.2173
60.7009
46.4983
32.6418
19.1867
6.25007
-6.02174
-17.4474
-27.798
-36.8282
-44.2903
-49.9001
-53.4113
-54.703
-53.7162
-50.3525
-44.5039
-36.1439
-25.2919
-12.008
3.61161
21.45
41.3788
63.2854
87.0255
112.554
139.383
167.515
193.036
229.928
240.157
251.213
262.635
273.323
283.47
292.67
300.317
306.297
310.813
314.007
316.063
317.206
317.592
317.334
316.493
315.096
313.137
310.59
307.412
303.558
298.989
293.672
287.639
281.058
274.172
267.187
260.293
253.696
247.6
242.202
237.682
234.202
231.911
230.929
231.435
233.46
237.14
241.094
217.29
206.29
193.667
180.118
166.658
152.42
137.941
123.617
109.298
95.1967
81.3811
67.7953
54.5164
41.5648
28.9822
16.8677
5.34682
-5.4204
-15.2326
-23.8685
-31.095
-36.662
-40.3193
-41.9427
-41.468
-38.7929
-33.7866
-26.3848
-16.5708
-4.37052
10.1465
26.8874
45.7356
66.5814
89.2744
113.725
139.443
166.246
190.616
227.517
237.254
247.792
258.696
268.909
278.62
287.444
294.796
300.563
304.941
308.067
310.115
311.305
311.789
311.679
311.037
309.892
308.241
306.061
303.307
299.935
295.895
291.147
285.7
279.7
273.364
266.878
260.419
254.179
248.354
243.139
238.717
235.254
232.901
231.78
232.053
233.742
236.894
240.248
215.501
205.039
193.039
180.178
167.427
153.955
140.28
126.779
113.305
100.06
87.1069
74.3869
61.9671
49.8599
38.0973
26.7615
15.9603
5.83354
-3.44065
-11.6622
-18.6159
-24.0804
-27.8084
-29.6746
-29.6156
-27.5276
-23.2657
-16.7353
-7.88758
3.28257
16.7347
32.3958
50.1685
69.9456
91.5724
114.925
139.511
165.001
188.233
225.239
234.513
244.564
254.979
264.744
274.042
282.509
289.578
295.138
299.38
302.434
304.466
305.689
306.253
306.266
305.795
304.867
303.485
301.627
299.252
296.313
292.758
288.535
283.641
278.195
272.394
266.403
260.381
254.509
248.972
243.962
239.658
236.23
233.83
232.582
232.632
233.99
236.636
239.425
213.812
203.857
192.444
180.228
168.142
155.387
142.462
129.728
117.041
104.594
92.4431
80.5289
68.9105
57.592
46.5983
35.9982
25.8833
16.3752
7.63301
-0.164743
-6.81755
-12.1331
-15.8692
-17.9037
-18.1744
-16.5808
-12.9709
-7.22672
0.727511
10.9251
23.3516
37.9592
54.6654
73.3693
93.9187
116.156
139.597
163.793
185.905
223.091
231.929
241.521
251.473
260.813
269.719
277.846
284.644
290.005
294.113
297.092
299.101
300.347
300.976
301.093
300.766
300.027
298.879
297.304
295.265
292.715
289.598
285.86
281.481
276.562
271.276
265.769
260.184
254.687
249.452
244.663
240.497
237.122
234.692
233.329
233.165
234.202
236.368
238.628
212.223
202.744
191.885
180.276
168.814
156.732
144.51
132.493
120.541
108.838
97.433
86.2689
75.3964
64.8156
54.5421
44.6354
35.1728
26.26
18.039
10.6677
4.33364
-0.795141
-4.48911
-6.62712
-7.15231
-5.97135
-2.92896
2.11032
9.24408
18.529
29.9753
43.5576
59.2128
76.8466
96.3087
117.421
139.707
162.631
183.645
221.067
229.495
238.653
248.167
257.105
265.639
273.44
279.979
285.148
289.125
292.028
294.009
295.269
295.949
296.154
295.95
295.373
294.429
293.103
291.36
289.157
286.437
283.142
279.242
274.82
270.025
264.988
259.835
254.715
249.792
245.239
241.228
237.924
235.48
234.015
233.649
234.379
236.092
237.86
210.732
201.703
191.365
180.329
169.453
158.004
146.441
135.094
123.829
112.82
102.112
91.6466
81.4709
71.5781
61.98
52.7261
43.8813
35.5384
27.8233
20.8772
14.8712
9.95772
6.34575
4.15731
3.44218
4.28426
6.8383
11.2494
17.6337
26.0667
36.5816
49.1735
63.7961
80.3678
98.7412
118.724
139.85
161.528
181.465
219.165
227.205
235.952
245.051
253.607
261.787
269.279
275.569
280.552
284.401
287.228
289.177
290.443
291.164
291.442
291.345
290.907
290.14
289.032
287.551
285.656
283.293
280.401
276.943
272.985
268.657
264.071
259.34
254.597
249.991
245.686
241.845
238.629
236.186
234.635
234.08
234.518
235.808
237.122
209.335
200.732
190.887
180.392
170.068
159.213
148.27
137.552
126.93
116.57
106.512
96.6989
87.1723
77.9234
68.9573
60.3159
52.0553
44.256
37.0293
30.5026
24.8294
20.1503
16.6532
14.4564
13.6062
14.1748
16.3106
20.1669
25.87
33.5123
43.1463
54.7856
68.4021
83.9232
101.212
120.065
140.036
160.494
179.377
217.38
225.052
233.41
242.115
250.307
258.151
265.346
271.398
276.203
279.928
282.679
284.593
285.86
286.613
286.952
286.945
286.628
286.014
285.096
283.845
282.224
280.181
277.654
274.602
271.075
267.186
263.032
258.711
254.338
250.052
246.002
242.344
239.23
236.805
235.182
234.456
234.619
235.517
236.414
208.029
199.829
190.451
180.467
170.664
160.37
150.01
139.882
129.863
120.11
110.66
101.456
92.5363
83.8884
75.514
67.4481
59.7383
52.4558
45.6979
39.5797
34.2392
29.8072
26.4488
24.2804
23.3407
23.6913
25.4729
28.841
33.9292
40.8419
49.647
60.375
73.0141
87.5046
103.717
121.449
140.27
159.539
177.396
215.706
223.03
231.018
239.349
247.196
254.718
261.631
267.455
272.088
275.692
278.367
280.245
281.507
282.286
282.676
282.745
282.533
282.052
281.299
280.251
278.872
277.114
274.916
272.234
269.106
265.628
261.883
257.955
253.945
249.977
246.188
242.722
239.724
237.331
235.653
234.772
234.682
235.22
235.738
206.812
198.993
190.058
180.558
171.247
161.482
151.67
142.097
132.644
123.459
114.579
105.945
97.5914
89.5058
81.685
74.159
66.9679
60.1747
53.8657
48.1432
43.132
38.9536
35.752
33.6392
32.6483
32.8294
34.3133
37.254
41.7894
48.0318
56.061
65.9222
77.6176
91.1004
106.254
122.875
140.56
158.672
175.53
214.139
221.133
228.77
236.744
244.263
251.478
258.121
263.726
268.194
271.681
274.282
276.121
277.376
278.174
278.606
278.741
278.618
278.253
277.644
276.773
275.608
274.104
272.201
269.856
267.093
263.997
260.637
257.083
253.425
249.771
246.244
242.978
240.107
237.76
236.042
235.026
234.704
234.915
235.093
205.678
198.222
189.707
180.665
171.819
162.553
153.259
144.208
135.287
126.636
118.288
110.187
102.364
94.8039
87.5013
80.4814
73.7786
67.4479
61.5662
56.2246
51.5365
47.6129
44.581
42.5459
41.5344
41.5866
42.8225
45.3914
49.4321
55.0612
62.3674
71.4074
82.1971
94.7011
108.816
124.346
140.914
157.902
173.788
212.673
219.354
226.657
234.292
241.497
248.42
254.804
260.2
264.509
267.883
270.411
272.212
273.457
274.267
274.734
274.925
274.879
274.614
274.131
273.416
272.438
271.158
269.521
267.479
265.051
262.307
259.307
256.108
252.787
249.438
246.173
243.111
240.376
238.089
236.347
235.215
234.684
234.602
234.477
204.626
197.513
189.396
180.79
172.384
163.59
154.784
146.226
137.804
129.655
121.806
114.204
106.876
99.8075
92.9902
86.4448
80.2011
74.3067
68.8304
63.8542
59.4797
55.8097
52.9546
51.0128
50.0057
49.9632
50.9942
53.2414
56.8407
61.9112
68.5467
76.8133
86.7373
98.2961
111.398
125.862
141.336
157.235
172.179
211.305
217.688
224.673
231.983
238.89
245.535
251.671
256.866
261.023
264.287
266.744
268.506
269.737
270.557
271.053
271.291
271.312
271.133
270.76
270.179
269.367
268.286
266.884
265.116
262.992
260.572
257.905
255.039
252.039
248.986
245.978
243.122
240.531
238.315
236.565
235.336
234.622
234.28
233.887
203.649
196.864
189.126
180.932
172.943
164.596
156.252
148.157
140.206
132.528
125.147
118.013
111.15
104.541
98.1767
92.0756
86.2625
80.7788
75.6868
71.059
66.9874
63.5664
60.892
59.0552
58.0714
57.9619
58.8249
60.7944
64.0019
68.5651
74.5813
82.1223
91.2242
101.875
113.996
127.422
141.831
156.678
170.71
210.029
216.127
222.81
229.812
236.433
242.811
248.711
253.713
257.724
260.883
263.27
264.992
266.209
267.035
267.554
267.832
267.909
267.806
267.527
267.065
266.397
265.491
264.299
262.776
260.928
258.804
256.444
253.889
251.191
248.422
245.664
243.014
240.573
238.438
236.694
235.388
234.517
233.948
233.323
202.746
196.272
188.894
181.092
173.498
165.574
157.666
150.009
142.501
135.266
128.325
121.629
115.2
109.022
103.082
97.3974
91.9882
86.8911
82.1614
77.8646
74.0837
70.9049
68.4111
66.6865
65.7412
65.5879
66.3139
68.0442
70.9047
75.0093
80.4554
87.3191
95.6436
105.426
116.604
129.025
142.403
156.234
169.385
208.839
214.668
221.062
227.77
234.118
240.242
245.915
250.733
254.603
257.659
259.979
261.662
262.863
263.691
264.23
264.542
264.667
264.628
264.431
264.072
263.53
262.779
261.772
260.468
258.869
257.013
254.935
252.667
250.254
247.753
245.238
242.791
240.502
238.457
236.733
235.371
234.367
233.603
232.779
201.912
195.733
188.698
181.268
174.049
166.526
159.031
151.787
144.698
137.879
131.351
125.066
119.045
113.269
107.727
102.431
97.4004
92.6663
88.2781
84.2949
80.7911
77.8461
75.5307
73.9226
73.0262
72.8471
73.4624
74.9878
77.5412
81.232
86.1554
92.3894
99.9826
108.941
119.214
130.67
143.052
155.908
168.208
207.732
213.304
219.423
225.849
231.938
237.818
243.274
247.915
251.65
254.608
256.861
258.506
259.689
260.518
261.071
261.411
261.579
261.595
261.469
261.198
260.767
260.15
259.308
258.199
256.822
255.21
253.389
251.386
249.237
246.99
244.706
242.458
240.321
238.374
236.682
235.282
234.171
233.244
232.254
201.142
195.246
188.537
181.461
174.597
167.454
160.349
153.496
146.801
140.374
134.236
128.337
122.697
117.297
112.127
107.196
102.519
98.1256
94.0586
90.371
87.1306
84.4098
82.2687
80.778
79.9378
79.7474
80.2742
81.6238
83.9061
87.224
91.6697
97.321
104.23
112.409
121.821
132.353
143.78
155.7
167.181
206.704
212.03
217.887
224.044
229.884
235.531
240.779
245.25
248.856
251.719
253.908
255.514
256.679
257.506
258.071
258.435
258.637
258.701
258.636
258.443
258.108
257.609
256.91
255.975
254.797
253.403
251.816
250.055
248.15
246.14
244.076
242.019
240.035
238.191
236.543
235.124
233.928
232.868
231.742
200.434
194.806
188.408
181.669
175.143
168.359
161.625
155.141
148.818
142.761
136.987
131.45
126.168
121.121
116.298
111.708
107.363
103.288
99.5224
96.1137
93.1221
90.6145
88.642
87.268
86.4889
86.2978
86.7539
87.9531
89.9961
92.9789
96.9893
102.103
108.374
115.821
124.418
134.07
144.585
155.61
166.305
205.748
210.842
216.447
222.348
227.95
233.374
238.423
242.731
246.212
248.984
251.111
252.679
253.825
254.648
255.221
255.604
255.837
255.941
255.929
255.802
255.55
255.154
254.582
253.8
252.799
251.601
250.225
248.684
247.003
245.213
243.356
241.483
239.649
237.911
236.317
234.895
233.639
232.474
231.239
199.784
194.412
188.309
181.891
175.685
169.244
162.859
156.724
150.752
145.043
139.613
134.416
129.469
124.753
120.255
115.984
111.948
108.171
104.688
101.541
98.7843
96.4784
94.6677
93.4077
92.6917
92.5081
92.9084
93.9783
95.8102
98.4922
102.107
106.727
112.406
119.168
126.998
135.818
145.466
155.639
165.577
204.862
209.733
215.099
220.755
226.129
231.34
236.198
240.35
243.711
246.394
248.461
249.992
251.118
251.936
252.515
252.914
253.171
253.31
253.343
253.273
253.093
252.786
252.325
251.677
250.834
249.811
248.623
247.282
245.805
244.218
242.554
240.856
239.168
237.538
236.008
234.597
233.302
232.059
230.743
199.188
194.059
188.239
182.125
176.224
170.107
164.054
158.249
152.609
147.228
142.121
137.243
132.61
128.203
124.01
120.036
116.29
112.792
109.572
106.67
104.134
102.018
100.362
99.2115
98.5591
98.3891
98.7451
99.704
101.349
103.762
107.018
111.185
116.318
122.443
129.555
137.591
146.419
155.782
164.997
204.041
208.699
213.837
219.258
224.415
229.422
234.096
238.099
241.345
243.943
245.95
247.444
248.551
249.362
249.944
250.356
250.634
250.802
250.873
250.852
250.734
250.505
250.14
249.61
248.906
248.038
247.02
245.858
244.566
243.164
241.68
240.146
238.6
237.079
235.618
234.233
232.919
231.622
230.248
198.643
193.747
188.194
182.371
176.758
170.949
165.211
159.718
154.392
149.32
144.516
139.938
135.6
131.483
127.574
123.878
120.402
117.164
114.191
111.517
109.188
107.25
105.739
104.694
104.104
103.952
104.273
105.136
106.617
108.788
111.719
115.473
120.104
125.639
132.081
139.383
147.439
156.035
164.56
203.281
207.737
212.657
217.853
222.802
227.614
232.112
235.97
239.106
241.622
243.572
245.03
246.116
246.919
247.503
247.924
248.219
248.411
248.515
248.536
248.471
248.308
248.027
247.601
247.019
246.289
245.42
244.419
243.294
242.062
240.743
239.363
237.951
236.54
235.153
233.806
232.49
231.16
229.751
198.146
193.47
188.174
182.627
177.289
171.772
166.332
161.134
156.103
151.322
146.804
142.509
138.447
134.6
130.957
127.521
124.297
121.301
118.557
116.097
113.96
112.19
110.815
109.87
109.341
109.207
109.501
110.282
111.617
113.571
116.209
119.588
123.757
128.749
134.57
141.188
148.521
156.394
164.261
202.579
206.841
211.552
216.535
221.284
225.909
230.239
233.959
236.988
239.424
241.319
242.741
243.806
244.6
245.184
245.612
245.921
246.133
246.265
246.321
246.301
246.195
245.987
245.651
245.175
244.566
243.831
242.972
241.998
240.918
239.75
238.514
237.231
235.926
234.618
233.317
232.015
230.674
229.248
197.693
193.228
188.175
182.891
177.814
172.574
167.417
162.498
157.746
153.24
148.991
144.96
141.157
137.564
134.169
130.975
127.986
125.215
122.685
120.424
118.467
116.851
115.604
114.753
114.281
114.169
114.44
115.149
116.355
118.116
120.488
123.526
127.275
131.768
137.016
143
149.658
156.852
164.094
201.93
206.008
210.52
215.298
219.857
224.302
228.47
232.057
234.984
237.343
239.184
240.571
241.615
242.398
242.981
243.414
243.733
243.962
244.116
244.202
244.221
244.164
244.018
243.76
243.378
242.875
242.257
241.525
240.684
239.743
238.712
237.608
236.446
235.245
234.018
232.772
231.498
230.161
228.737
197.281
193.017
188.196
183.162
178.333
173.356
168.466
163.812
159.323
155.077
151.08
147.297
143.737
140.382
137.219
134.25
131.48
128.919
126.587
124.511
122.72
121.249
120.12
119.355
118.938
118.847
119.1
119.747
120.838
122.425
124.559
127.288
130.655
134.692
139.414
144.812
150.844
157.401
164.052
201.332
205.233
209.555
214.137
218.514
222.787
226.801
230.26
233.088
235.373
237.162
238.514
239.536
240.309
240.887
241.323
241.651
241.893
242.066
242.177
242.227
242.212
242.12
241.929
241.628
241.218
240.703
240.083
239.361
238.543
237.637
236.654
235.605
234.504
233.359
232.174
230.939
229.623
228.216
196.907
192.835
188.235
183.439
178.845
174.118
169.482
165.077
160.837
156.834
153.076
149.526
146.193
143.06
140.113
137.355
134.788
132.422
130.275
128.369
126.732
125.395
124.376
123.692
123.326
123.254
123.493
124.085
125.074
126.506
128.425
130.875
133.895
137.516
141.757
146.617
152.069
158.033
164.127
200.781
204.514
208.654
213.049
217.251
221.36
225.225
228.561
231.294
233.507
235.245
236.563
237.564
238.324
238.898
239.335
239.669
239.922
240.109
240.241
240.318
240.338
240.291
240.159
239.928
239.599
239.173
238.651
238.035
237.327
236.533
235.66
234.717
233.711
232.649
231.529
230.341
229.058
227.681
196.569
192.68
188.29
183.72
179.35
174.86
170.463
166.295
162.29
158.517
154.982
151.651
148.531
145.605
142.86
140.298
137.92
135.735
133.758
132.011
130.517
129.302
128.384
127.774
127.455
127.403
127.63
128.173
129.071
130.363
132.09
134.288
136.995
140.239
144.041
148.409
153.327
158.74
164.31
200.273
203.846
207.813
212.028
216.064
220.015
223.737
226.956
229.597
231.741
233.428
234.713
235.692
236.44
237.008
237.445
237.782
238.043
238.242
238.39
238.49
238.54
238.531
238.448
238.278
238.018
237.671
237.235
236.711
236.101
235.407
234.635
233.789
232.875
231.893
230.841
229.708
228.468
227.132
196.264
192.548
188.359
184.004
179.846
175.58
171.411
167.466
163.683
160.126
156.802
153.676
150.755
148.022
145.466
143.086
140.884
138.866
137.048
135.447
134.084
132.983
132.157
131.616
131.34
131.305
131.522
132.021
132.838
134.006
135.558