/*--------------------------------*- C++ -*----------------------------------*\
| =========                 |                                                 |
| \\      /  F ield         | OpenFOAM: The Open Source CFD Toolbox           |
|  \\    /   O peration     | Version:  3.0.0                                 |
|   \\  /    A nd           | Web:      www.OpenFOAM.org                      |
|    \\/     M anipulation  |                                                 |
\*---------------------------------------------------------------------------*/
FoamFile
{
    version     2.0;
    format      ascii;
    class       surfaceScalarField;
    location    "350";
    object      phi;
}
// * * * * * * * * * * * * * * * * * * * * * * * * * * * * * * * * * * * * * //

dimensions      [0 3 -1 0 0 0 0];

internalField   nonuniform List<scalar> 
21254
(
-0.270113
0.289017
-0.0189021
0.310472
-0.0214546
0.32827
-0.0177988
0.343822
-0.0155517
0.358365
-0.0145438
0.369438
-0.0110726
0.377707
-0.0082691
0.384062
-0.00635539
0.387546
-0.00348346
0.389324
-0.00177844
0.389507
-0.000182685
0.387726
0.00178115
0.384616
0.00311056
0.380408
0.0042079
0.375069
0.00533834
0.36895
0.00611918
0.361846
0.00710441
0.353846
0.00799997
0.344759
0.00908655
0.334776
0.00998352
0.323513
0.0112631
0.311517
0.0119961
0.299028
0.012489
0.287358
0.0116699
0.277721
0.00963615
0.26941
0.00831185
0.261266
0.00814348
0.252973
0.00829363
0.244196
0.00877707
0.234848
0.00934772
0.224901
0.00994687
0.214338
0.0105637
0.203074
0.011264
0.190843
0.0122303
0.177073
0.0137708
0.160639
0.0164333
0.139143
0.0214959
0.107657
0.0314861
0.0904278
0.01723
-0.247195
-0.0229178
-0.223635
-0.0235589
-0.194135
-0.0295001
-0.161419
-0.032716
-0.126671
-0.034748
-0.0903786
-0.0362926
-0.0540691
-0.0363095
-0.0197103
-0.0343587
0.011436
-0.0311462
0.0391249
-0.0276889
0.0630579
-0.0239329
0.0835313
-0.0204734
0.10098
-0.0174491
0.115704
-0.0147235
0.128347
-0.0126428
0.139265
-0.0109183
0.14895
-0.00968525
0.157661
-0.00871042
0.165717
-0.00805621
0.173262
-0.0075447
0.180478
-0.00721621
0.187374
-0.00689661
0.193898
-0.0065237
0.199453
-0.00555462
0.203855
-0.00440222
0.207372
-0.00351754
0.210004
-0.00263143
0.211861
-0.00185689
0.212976
-0.00111549
0.213377
-0.000401273
0.212942
0.000434987
0.211681
0.00126117
0.209711
0.00197027
0.207127
0.00258393
0.203833
0.00329437
0.199452
0.00438018
0.192902
0.00654984
0.179087
0.0138154
0.158497
0.02059
-0.247215
0.268837
-0.0405235
0.290858
-0.0434756
0.313696
-0.0406369
0.334869
-0.0367248
0.355425
-0.0350998
0.374294
-0.0299413
0.391119
-0.0250942
0.406181
-0.021417
0.419068
-0.016371
0.429849
-0.0125588
0.438778
-0.00911206
0.446131
-0.00557175
0.45189
-0.00264847
0.455915
0.000182697
0.458078
0.00317542
0.458086
0.00611195
0.455933
0.00925735
0.451809
0.0121234
0.445266
0.0156297
0.43668
0.0185697
0.425706
0.0222373
0.412713
0.0249891
0.397751
0.0274513
0.381524
0.0278966
0.365345
0.0258159
0.349643
0.0240135
0.334472
0.023315
0.320005
0.0227607
0.306017
0.0227653
0.292326
0.0230385
0.278699
0.0235738
0.264957
0.0243062
0.25083
0.025391
0.236076
0.0269846
0.220252
0.0295953
0.20226
0.0344245
0.180701
0.0430549
0.146555
0.0656323
0.104302
0.0594836
-0.225026
-0.045107
-0.201262
-0.0473228
-0.173386
-0.0573754
-0.143768
-0.0623345
-0.112152
-0.066364
-0.0789862
-0.0694584
-0.0458189
-0.0694768
-0.0140664
-0.0661111
0.0155956
-0.0608081
0.0424225
-0.0545158
0.0659359
-0.0474463
0.0864252
-0.0409627
0.104333
-0.035357
0.11994
-0.0303301
0.133669
-0.0263722
0.145819
-0.0230684
0.156684
-0.0205499
0.166571
-0.0185977
0.175739
-0.0172245
0.184313
-0.016118
0.192456
-0.0153599
0.200249
-0.0146894
0.20763
-0.0139041
0.214161
-0.0120857
0.219575
-0.00981618
0.224067
-0.00801006
0.227635
-0.00619929
0.230331
-0.00455343
0.232185
-0.0029696
0.233272
-0.0014878
0.23373
-2.34395e-05
0.233626
0.0013657
0.232837
0.00275848
0.231296
0.00412509
0.228927
0.00566311
0.225487
0.00782049
0.221011
0.0110263
0.211045
0.0237804
0.191891
0.0397439
-0.239641
0.261231
-0.0621126
0.282863
-0.0651075
0.30613
-0.0639039
0.327291
-0.0578858
0.347254
-0.0550625
0.366246
-0.0489338
0.382971
-0.0418185
0.397857
-0.0363036
0.410457
-0.0289711
0.42111
-0.0232119
0.429791
-0.0177928
0.436734
-0.012515
0.441834
-0.00774808
0.445626
-0.00360903
0.447966
0.000835584
0.449519
0.00455844
0.449885
0.00889203
0.449359
0.0126492
0.447551
0.0174371
0.444354
0.0217668
0.439614
0.0269775
0.433131
0.0314725
0.424871
0.0357105
0.414957
0.0378113
0.403963
0.0368093
0.392007
0.0359695
0.379029
0.0362931
0.365222
0.0365671
0.350793
0.0371952
0.335849
0.0379821
0.320532
0.0388907
0.304851
0.0399871
0.288716
0.0415262
0.27191
0.043791
0.253988
0.0475168
0.23386
0.0545527
0.210253
0.0666617
0.175248
0.100637
0.126141
0.108591
-0.217844
-0.0669044
-0.193775
-0.0713919
-0.164865
-0.0862853
-0.134647
-0.0925524
-0.102933
-0.0980776
-0.0698452
-0.102546
-0.0370153
-0.102307
-0.00622627
-0.0969002
0.0223268
-0.0893612
0.0483591
-0.080548
0.0715368
-0.0706241
0.0920253
-0.0614511
0.11011
-0.0534419
0.126059
-0.0462792
0.140189
-0.0405014
0.152816
-0.0356954
0.164202
-0.0319362
0.174612
-0.0290078
0.184259
-0.0268712
0.19331
-0.0251695
0.201954
-0.0240042
0.210216
-0.0229513
0.218018
-0.0217058
0.225072
-0.0191397
0.2311
-0.0158446
0.2362
-0.0131095
0.240428
-0.0104277
0.243818
-0.00794358
0.246435
-0.00558661
0.24827
-0.0033225
0.249387
-0.0011403
0.249791
0.000961912
0.249517
0.00303224
0.248508
0.00513435
0.246676
0.00749505
0.24366
0.0108368
0.239074
0.0156115
0.229365
0.0334894
0.210917
0.0581924
-0.230972
0.253699
-0.0848398
0.276388
-0.0877964
0.301253
-0.0887688
0.323875
-0.0805075
0.345682
-0.0768703
0.366463
-0.0697139
0.385447
-0.0608032
0.402407
-0.0532633
0.41759
-0.0441542
0.430783
-0.0364047
0.442095
-0.0291045
0.451551
-0.0219715
0.459205
-0.0154015
0.465095
-0.00949912
0.469481
-0.00355059
0.471966
0.00207355
0.47275
0.00810759
0.471625
0.0137748
0.468969
0.0200924
0.464677
0.0260589
0.458908
0.0327475
0.451899
0.0384814
0.443746
0.0438632
0.434913
0.046644
0.425778
0.0459445
0.416357
0.0453908
0.406249
0.0464011
0.395295
0.0475214
0.383324
0.0491666
0.370188
0.0511185
0.355924
0.0531543
0.340561
0.0553504
0.324121
0.0579662
0.306474
0.0614382
0.287326
0.0666647
0.26564
0.0762384
0.240085
0.0922166
0.203591
0.137131
0.152774
0.159408
-0.208523
-0.0893531
-0.184354
-0.0955605
-0.15497
-0.115669
-0.124692
-0.12283
-0.0930005
-0.129769
-0.0599119
-0.135635
-0.0273253
-0.134893
0.00301345
-0.127239
0.0309027
-0.11725
0.0563508
-0.105996
0.0790497
-0.0933229
0.0992143
-0.0816157
0.117203
-0.0714302
0.133235
-0.0623121
0.147628
-0.0548939
0.16061
-0.0486772
0.172446
-0.043773
0.18332
-0.0398814
0.193457
-0.0370085
0.203002
-0.0347142
0.212068
-0.0330702
0.220727
-0.0316103
0.228929
-0.0299082
0.236371
-0.0265815
0.242814
-0.0222877
0.248315
-0.0186105
0.252918
-0.0150307
0.256672
-0.0116972
0.259609
-0.00852425
0.261788
-0.00550103
0.263238
-0.00259014
0.263986
0.00021389
0.264042
0.00297636
0.263396
0.00577958
0.261946
0.00894534
0.25934
0.0134431
0.255036
0.0199156
0.24586
0.0426647
0.227653
0.0763995
-0.226307
0.249819
-0.108352
0.273367
-0.111344
0.299651
-0.115053
0.323029
-0.103885
0.345884
-0.0997249
0.367799
-0.0916284
0.387714
-0.080719
0.4057
-0.0712491
0.422091
-0.0605453
0.43621
-0.050523
0.44846
-0.0413551
0.458788
-0.0322987
0.467499
-0.0241129
0.474244
-0.0162443
0.479188
-0.0084945
0.482401
-0.00113956
0.484049
0.00646011
0.484153
0.0136702
0.482456
0.0217898
0.479236
0.0292788
0.474353
0.0376302
0.467965
0.0448695
0.460325
0.0515035
0.451835
0.0551341
0.443059
0.0547199
0.434182
0.0542681
0.425024
0.0555587
0.415481
0.0570642
0.405361
0.0592863
0.39445
0.0620303
0.382461
0.0651428
0.369154
0.0686571
0.354325
0.0727957
0.337706
0.0780572
0.318897
0.0854734
0.296978
0.0981573
0.270459
0.118736
0.232885
0.174705
0.181454
0.210839
-0.202803
-0.112857
-0.177922
-0.120441
-0.147277
-0.146315
-0.116182
-0.153925
-0.0838051
-0.162146
-0.0501507
-0.169289
-0.0171733
-0.167871
0.0131504
-0.157563
0.04073
-0.14483
0.065814
-0.13108
0.0881044
-0.115613
0.10791
-0.101421
0.125708
-0.0892288
0.141696
-0.0782999
0.156178
-0.0693754
0.169411
-0.0619104
0.181564
-0.0559267
0.192814
-0.0511314
0.203347
-0.0475416
0.213301
-0.0446677
0.222771
-0.0425403
0.2318
-0.0406397
0.240361
-0.0384692
0.24819
-0.0344102
0.255031
-0.0291283
0.26091
-0.0244902
0.265862
-0.0199818
0.269936
-0.015772
0.273164
-0.0117515
0.275577
-0.00791432
0.27722
-0.00423295
0.278145
-0.000711027
0.278357
0.00276426
0.277824
0.00631229
0.276507
0.0102625
0.274041
0.015909
0.269866
0.0240907
0.261221
0.0513099
0.243614
0.0940061
-0.222473
0.24701
-0.132889
0.27194
-0.136274
0.299629
-0.142742
0.324271
-0.128528
0.348187
-0.123641
0.371553
-0.114994
0.392501
-0.101667
0.411866
-0.0906141
0.429323
-0.0780022
0.444775
-0.0659757
0.458447
-0.0550267
0.470144
-0.0439959
0.480113
-0.0340817
0.488328
-0.0244597
0.494641
-0.0148079
0.499384
-0.0058825
0.502154
0.00369101
0.503044
0.0127798
0.502193
0.0226411
0.499433
0.0320383
0.494835
0.0422288
0.488639
0.0510648
0.481013
0.0591299
0.472392
0.0637556
0.463296
0.0638153
0.45399
0.0635748
0.444422
0.0651264
0.434597
0.0668892
0.424496
0.0693875
0.414009
0.0725178
0.403008
0.0761436
0.39119
0.0804757
0.378205
0.0857805
0.363554
0.0927085
0.346564
0.102463
0.325994
0.118727
0.300161
0.144569
0.262732
0.212133
0.211351
0.26222
-0.198002
-0.137329
-0.172318
-0.146125
-0.140381
-0.178251
-0.108158
-0.186148
-0.0748093
-0.195495
-0.0402771
-0.203821
-0.00662268
-0.201525
0.0239868
-0.188172
0.0515713
-0.172414
0.0764972
-0.156006
0.0985091
-0.137625
0.117994
-0.120906
0.135544
-0.106779
0.151399
-0.0941553
0.165865
-0.0838416
0.179197
-0.0752418
0.191547
-0.0682772
0.203094
-0.0626779
0.213962
-0.0584097
0.224273
-0.0549792
0.234118
-0.0523848
0.24352
-0.0500422
0.252432
-0.0473813
0.260673
-0.042651
0.267921
-0.0363759
0.274162
-0.030731
0.279478
-0.025298
0.283866
-0.0201602
0.287374
-0.0152593
0.290032
-0.0105721
0.291881
-0.00608179
0.292947
-0.00177794
0.293247
0.00246447
0.292802
0.00675721
0.291476
0.0115884
0.289001
0.0183844
0.284726
0.0283659
0.276349
0.0596867
0.259392
0.110963
-0.220146
0.246028
-0.158771
0.27198
-0.162226
0.301252
-0.172013
0.327194
-0.15447
0.352397
-0.148843
0.376855
-0.139452
0.399021
-0.123833
0.419266
-0.110859
0.437827
-0.0965632
0.45427
-0.0824192
0.468819
-0.0695759
0.481628
-0.0568049
0.492558
-0.0450116
0.501674
-0.0335749
0.509043
-0.0221775
0.514469
-0.011308
0.518139
2.05278e-05
0.519963
0.0109557
0.519964
0.02264
0.518082
0.033921
0.514364
0.0459464
0.50888
0.056549
0.501967
0.0660428
0.493815
0.0719078
0.484943
0.0726872
0.475592
0.0729258
0.465774
0.0749439
0.455531
0.0771318
0.444953
0.079966
0.434002
0.083469
0.422669
0.0874756
0.410878
0.0922669
0.398432
0.0982264
0.384893
0.106248
0.369606
0.11775
0.351177
0.137156
0.327531
0.168216
0.29211
0.247554
0.241884
0.312447
-0.194457
-0.163018
-0.16766
-0.172921
-0.134284
-0.211627
-0.100762
-0.21967
-0.0662333
-0.230024
-0.0304769
-0.239578
0.00411176
-0.236114
0.0353312
-0.219391
0.063218
-0.200301
0.0882438
-0.181032
0.110103
-0.159484
0.129353
-0.140155
0.146668
-0.124094
0.162336
-0.109823
0.176695
-0.0982009
0.190035
-0.0885821
0.202508
-0.0807499
0.214252
-0.0744219
0.225392
-0.0695502
0.236017
-0.0656042
0.246192
-0.0625594
0.255932
-0.0597817
0.265213
-0.0566633
0.2738
-0.0512373
0.281457
-0.0440336
0.288108
-0.0373818
0.293771
-0.0309608
0.298495
-0.024884
0.302283
-0.0190469
0.305195
-0.013485
0.307237
-0.00812308
0.308466
-0.00300675
0.308895
0.00203511
0.308482
0.00716995
0.307184
0.0128862
0.304645
0.0209233
0.300216
0.0327948
0.291924
0.0679795
0.275555
0.127331
-0.218632
0.245855
-0.185995
0.273261
-0.189632
0.304231
-0.202983
0.331379
-0.181618
0.357893
-0.175357
0.383628
-0.165187
0.406838
-0.147043
0.428349
-0.13237
0.447754
-0.115969
0.465184
-0.0998491
0.480848
-0.08524
0.494573
-0.0705295
0.50644
-0.0568788
0.51657
-0.0437045
0.524891
-0.0304986
0.531359
-0.0177766
0.536003
-0.0046232
0.538774
0.00818481
0.539562
0.0218522
0.538392
0.0350911
0.535366
0.0489726
0.530492
0.0614226
0.524024
0.0725108
0.516323
0.0796087
0.507714
0.0812965
0.498453
0.0821875
0.488598
0.0847986
0.478158
0.0875716
0.467185
0.0909393
0.455749
0.0949053
0.443805
0.099419
0.431405
0.104668
0.418441
0.111191
0.404774
0.119914
0.389914
0.132609
0.372821
0.154249
0.351581
0.189456
0.319639
0.279496
0.272081
0.360005
-0.191717
-0.189933
-0.163769
-0.200869
-0.128674
-0.246723
-0.0936328
-0.254712
-0.0576871
-0.26597
-0.0205757
-0.276689
0.0152001
-0.271889
0.0472506
-0.251442
0.0756465
-0.228697
0.100914
-0.206299
0.1228
-0.18137
0.141901
-0.159257
0.159016
-0.141209
0.174484
-0.125291
0.1887
-0.112416
0.201997
-0.101879
0.214494
-0.0932473
0.226362
-0.08629
0.237694
-0.0808822
0.248574
-0.0764845
0.25903
-0.0730145
0.269098
-0.0698504
0.27872
-0.0662851
0.287688
-0.0602056
0.295733
-0.0520788
0.30277
-0.0444179
0.308807
-0.0369981
0.313873
-0.0299504
0.317963
-0.0231366
0.321119
-0.016641
0.323388
-0.0103926
0.324778
-0.00439678
0.325322
0.0014912
0.324987
0.00750525
0.323672
0.0142016
0.321073
0.0235223
0.316507
0.0373603
0.308231
0.0762553
0.292453
0.143109
-0.218084
0.246669
-0.21458
0.275528
-0.218491
0.308198
-0.235654
0.336747
-0.210167
0.364753
-0.203363
0.391863
-0.192297
0.416319
-0.171499
0.438725
-0.154775
0.459286
-0.13653
0.477581
-0.118145
0.493983
-0.101642
0.508565
-0.0851122
0.521343
-0.0696567
0.532316
-0.0546766
0.541486
-0.0396691
0.54888
-0.0251706
0.554353
-0.0100957
0.557886
0.00465142
0.559457
0.0202807
0.559035
0.0355139
0.556709
0.0512983
0.552529
0.0656026
0.546673
0.0783671
0.539464
0.0868171
0.531232
0.0895284
0.52218
0.0912395
0.512361
0.0946174
0.501851
0.0980814
0.490713
0.102077
0.478941
0.106678
0.466549
0.111811
0.453549
0.117668
0.439893
0.124846
0.42547
0.134337
0.410048
0.148032
0.39292
0.171377
0.372953
0.209423
0.344663
0.307786
0.300736
0.403931
-0.189664
-0.218353
-0.160359
-0.230174
-0.123491
-0.28359
-0.0869077
-0.291295
-0.0493132
-0.303564
-0.0106262
-0.315376
0.026615
-0.309131
0.0596771
-0.284504
0.0887742
-0.257794
0.114482
-0.232007
0.13652
-0.203408
0.155597
-0.178334
0.172581
-0.158192
0.187873
-0.140584
0.201923
-0.126466
0.215097
-0.115053
0.227571
-0.105721
0.23949
-0.0982085
0.250946
-0.0923388
0.262024
-0.0875625
0.272751
-0.0837415
0.283093
-0.0801921
0.293028
-0.0762205
0.302362
-0.0695393
0.310812
-0.0605288
0.318219
-0.0518253
0.324633
-0.0434117
0.330024
-0.035341
0.334437
-0.02755
0.337871
-0.0200749
0.340356
-0.0128774
0.341932
-0.00597334
0.34259
0.000833501
0.342329
0.00776687
0.341043
0.0154869
0.338402
0.0261635
0.333683
0.0420786
0.32545
0.0844893
0.310262
0.158296
-0.21804
0.248251
-0.24479
0.278664
-0.248904
0.313238
-0.270227
0.343244
-0.240173
0.372532
-0.232651
0.401132
-0.220896
0.426773
-0.19714
0.450341
-0.178344
0.47191
-0.158098
0.491111
-0.137346
0.508401
-0.118932
0.523903
-0.100614
0.53742
-0.083174
0.549146
-0.0664021
0.559224
-0.0497475
0.567357
-0.0333036
0.573651
-0.0163891
0.577958
0.000344215
0.580359
0.0178791
0.580745
0.0351283
0.57904
0.0530029
0.575519
0.0691245
0.570245
0.0836404
0.563541
0.0935219
0.555658
0.0974109
0.546767
0.100131
0.537044
0.10434
0.526538
0.108588
0.51524
0.113374
0.503261
0.118658
0.490548
0.124523
0.47708
0.131137
0.462822
0.139104
0.447665
0.149494
0.431405
0.164292
0.413442
0.18934
0.393306
0.229559
0.3675
0.333592
0.327194
0.444237
-0.188263
-0.248131
-0.15749
-0.260947
-0.118658
-0.322423
-0.0802068
-0.329746
-0.0409489
-0.342822
-0.000416999
-0.355908
0.0383418
-0.347889
0.0726322
-0.318794
0.102603
-0.287765
0.128933
-0.258337
0.151262
-0.225736
0.170393
-0.197465
0.187322
-0.175122
0.202478
-0.155739
0.216363
-0.140351
0.229402
-0.128092
0.241798
-0.118117
0.253698
-0.110109
0.265244
-0.103885
0.276464
-0.0987826
0.287364
-0.0946411
0.297976
-0.0908039
0.308221
-0.0864656
0.317896
-0.0792142
0.326708
-0.0693407
0.334514
-0.0596319
0.341279
-0.0501769
0.347034
-0.0410959
0.351755
-0.0322705
0.355466
-0.0237863
0.358203
-0.0156144
0.359952
-0.00772207
0.360758
2.73889e-05
0.360583
0.00794116
0.359311
0.0167593
0.356615
0.0288591
0.351811
0.0468832
0.343643
0.0926569
0.329025
0.172915
-0.218705
0.25048
-0.276565
0.282467
-0.280891
0.31897
-0.30673
0.350673
-0.271876
0.381588
-0.263566
0.411664
-0.250972
0.438446
-0.223922
0.463262
-0.20316
0.485882
-0.180719
0.506048
-0.157511
0.524149
-0.137034
0.540303
-0.116767
0.554653
-0.0975239
0.567262
-0.0790109
0.577953
-0.0604391
0.586896
-0.0422465
0.593939
-0.023432
0.599061
-0.00477801
0.602146
0.0147941
0.603222
0.0340525
0.602255
0.0539694
0.599322
0.0720582
0.594636
0.0883265
0.588444
0.0997134
0.58096
0.104895
0.572366
0.108724
0.562751
0.113955
0.552198
0.119141
0.540837
0.124736
0.528621
0.130873
0.515615
0.137529
0.501787
0.144965
0.487052
0.153839
0.471275
0.165271
0.454217
0.18135
0.43533
0.208228
0.414175
0.250714
0.389376
0.358391
0.351755
0.481858
-0.18724
-0.279596
-0.154966
-0.293221
-0.114055
-0.363334
-0.0736733
-0.370127
-0.0324382
-0.384057
0.00994482
-0.398291
0.0504594
-0.388404
0.0861395
-0.354474
0.117174
-0.3188
0.144194
-0.285357
0.166968
-0.24851
0.186284
-0.216782
0.203247
-0.192085
0.218298
-0.17079
0.232038
-0.154091
0.244934
-0.140988
0.257214
-0.130398
0.269078
-0.121973
0.280618
-0.115424
0.291923
-0.110087
0.303006
-0.105724
0.313832
-0.101631
0.324337
-0.0969707
0.334348
-0.0892243
0.343523
-0.0785155
0.351696
-0.067805
0.358845
-0.0573261
0.364942
-0.0471933
0.37
-0.0373284
0.373998
-0.027784
0.376962
-0.0185782
0.378933
-0.00969296
0.379876
-0.000916114
0.379798
0.00801939
0.378549
0.018008
0.375838
0.0315701
0.370933
0.0517887
0.362848
0.100742
0.34886
0.186902
-0.219736
0.253321
-0.310149
0.28707
-0.314641
0.325611
-0.345271
0.358907
-0.305172
0.391435
-0.296094
0.423099
-0.282635
0.451406
-0.252229
0.477358
-0.229111
0.50106
-0.204421
0.52214
-0.178591
0.541162
-0.156056
0.558206
-0.133811
0.573189
-0.112507
0.586441
-0.0922622
0.597938
-0.071936
0.607595
-0.0519033
0.615322
-0.0311596
0.621102
-0.010558
0.624892
0.011004
0.626678
0.0322669
0.626404
0.0542433
0.624147
0.0743157
0.620051
0.0924225
0.61436
0.105404
0.607262
0.111992
0.598936
0.11705
0.589461
0.123431
0.578965
0.129636
0.56749
0.136212
0.555107
0.143255
0.541819
0.150818
0.527612
0.159172
0.512451
0.169
0.496127
0.181594
0.478399
0.199078
0.45871
0.227917
0.436377
0.273047
0.411435
0.383333
0.375472
0.517821
-0.186639
-0.312694
-0.152626
-0.327233
-0.109587
-0.406372
-0.0671075
-0.412607
-0.0238289
-0.427336
0.0205976
-0.442718
0.0630565
-0.430863
0.100232
-0.391649
0.132431
-0.350999
0.160348
-0.313274
0.183687
-0.271848
0.203293
-0.236388
0.220321
-0.209113
0.235351
-0.185819
0.248977
-0.167718
0.261732
-0.153743
0.273877
-0.142542
0.285646
-0.133742
0.297177
-0.126955
0.308515
-0.121425
0.319696
-0.116906
0.330694
-0.112628
0.341469
-0.107745
0.351784
-0.0995401
0.361306
-0.0880373
0.369844
-0.076343
0.377348
-0.0648299
0.38381
-0.053656
0.389174
-0.0426919
0.393478
-0.0320884
0.396704
-0.021804
0.398872
-0.0118604
0.39999
-0.00203469
0.399995
0.008014
0.398796
0.0192071
0.39606
0.0343067
0.391082
0.056766
0.383147
0.108677
0.369811
0.200238
-0.221336
0.256615
-0.345429
0.292228
-0.350254
0.332927
-0.38597
0.368083
-0.340328
0.402365
-0.330376
0.435666
-0.315936
0.465393
-0.281956
0.492688
-0.256406
0.517451
-0.229184
0.539526
-0.200667
0.559392
-0.175922
0.577186
-0.151605
0.593014
-0.128335
0.606992
-0.106241
0.619125
-0.0840682
0.629397
-0.0621761
0.637821
-0.0395834
0.644317
-0.0170535
0.648786
0.00653492
0.651159
0.0298942
0.651531
0.0538707
0.649868
0.0759787
0.646346
0.0959447
0.641211
0.11054
0.634609
0.118594
0.626576
0.125083
0.617295
0.132711
0.606838
0.140094
0.595297
0.147752
0.582755
0.155797
0.569215
0.164358
0.554653
0.173734
0.539022
0.184631
0.522162
0.198454
0.503812
0.217428
0.483428
0.248301
0.460128
0.296347
0.434529
0.408932
0.399475
0.552875
-0.186302
-0.347727
-0.150644
-0.362892
-0.105229
-0.451787
-0.0605648
-0.457272
-0.0150259
-0.472874
0.0316776
-0.489421
0.0760882
-0.475273
0.114973
-0.430534
0.14847
-0.384497
0.17739
-0.342194
0.201386
-0.295844
0.221374
-0.256376
0.238614
-0.226354
0.253667
-0.200872
0.26722
-0.181271
0.279854
-0.166376
0.291861
-0.15455
0.303511
-0.145392
0.314963
-0.138407
0.326308
-0.13277
0.337552
-0.12815
0.348702
-0.123778
0.359678
-0.118721
0.370287
-0.110149
0.380131
-0.0978819
0.389018
-0.0852294
0.396878
-0.07269
0.403667
-0.0604452
0.409375
-0.0483995
0.41398
-0.0366935
0.417477
-0.0253009
0.419878
-0.0142611
0.421157
-0.00331439
0.421285
0.00788652
0.420125
0.0203672
0.417403
0.0370281
0.412384
0.0617855
0.404563
0.116498
0.391931
0.212869
-0.223214
0.26044
-0.382655
0.298021
-0.387834
0.341018
-0.428968
0.378063
-0.377372
0.414121
-0.366434
0.449177
-0.350992
0.480454
-0.313233
0.509056
-0.285009
0.535058
-0.255186
0.558132
-0.223741
0.578976
-0.196766
0.597564
-0.170192
0.614116
-0.144887
0.628785
-0.12091
0.641473
-0.0967565
0.652452
-0.0731548
0.661518
-0.0486494
0.66863
-0.0241656
0.673764
0.00140081
0.676824
0.0268339
0.677795
0.0528997
0.676758
0.0770156
0.673822
0.0988807
0.6692
0.115162
0.663021
0.124773
0.655313
0.132792
0.64626
0.141764
0.635912
0.150442
0.624343
0.159321
0.611653
0.168487
0.597851
0.17816
0.58295
0.188635
0.566854
0.200727
0.549478
0.21583
0.530507
0.236399
0.509462
0.269346
0.485315
0.320493
0.459024
0.435224
0.424532
0.587366
-0.186415
-0.384527
-0.14869
-0.400616
-0.100904
-0.499574
-0.0538536
-0.504322
-0.00600563
-0.520722
0.0430334
-0.53846
0.0897212
-0.521961
0.130389
-0.471202
0.165368
-0.419475
0.195391
-0.372217
0.220168
-0.320622
0.240621
-0.276829
0.25812
-0.243852
0.273259
-0.216011
0.286764
-0.194777
0.299304
-0.178916
0.31119
-0.166436
0.3227
-0.156902
0.33406
-0.149768
0.345369
-0.144079
0.356645
-0.139426
0.367887
-0.13502
0.379058
-0.129892
0.389918
-0.121009
0.400062
-0.108026
0.409277
-0.0944442
0.41748
-0.0808936
0.424625
-0.0675902
0.430664
-0.0544382
0.435575
-0.0416042
0.439339
-0.0290657
0.441959
-0.016881
0.443427
-0.00478231
0.443677
0.0076361
0.442582
0.0214623
0.439871
0.0397391
0.434843
0.0668137
0.427223
0.124117
0.415282
0.22481
-0.225451
0.264791
-0.421995
0.30439
-0.427433
0.3498
-0.474379
0.388792
-0.416365
0.426778
-0.40442
0.463792
-0.388007
0.496584
-0.346024
0.526632
-0.315057
0.553997
-0.282551
0.578175
-0.24792
0.599905
-0.218496
0.61935
-0.189637
0.636534
-0.16207
0.651893
-0.136268
0.665355
-0.110219
0.676914
-0.0847136
0.686601
-0.0583362
0.694304
-0.0318689
0.699936
-0.00423086
0.703585
0.0231853
0.705188
0.0512961
0.704686
0.0775181
0.702318
0.101248
0.69823
0.11925
0.692527
0.130476
0.685226
0.140092
0.676378
0.150613
0.666156
0.160664
0.654629
0.170847
0.641825
0.181291
0.627809
0.192176
0.612558
0.203886
0.596062
0.217223
0.578142
0.23375
0.558523
0.256019
0.536809
0.29106
0.511973
0.345329
0.485004
0.462192
0.451032
0.621338
-0.186648
-0.42333
-0.147061
-0.440203
-0.0965996
-0.550034
-0.0470646
-0.553857
0.00328244
-0.57107
0.0549017
-0.590079
0.103881
-0.57094
0.146546
-0.513867
0.183044
-0.455973
0.214338
-0.403512
0.239968
-0.346251
0.26102
-0.297881
0.278866
-0.261699
0.294157
-0.231301
0.307694
-0.208315
0.320147
-0.191368
0.331905
-0.178194
0.343304
-0.1683
0.354548
-0.161013
0.365779
-0.155309
0.377044
-0.150691
0.388367
-0.146343
0.399688
-0.141212
0.410771
-0.132093
0.421208
-0.118462
0.430729
-0.103965
0.43926
-0.0894249
0.446728
-0.0750574
0.453094
-0.0608051
0.458301
-0.0468105
0.462351
-0.0331158
0.465225
-0.0197552
0.466867
-0.00642446
0.467267
0.0072361
0.466256
0.0224742
0.463573
0.0424215
0.458566
0.0718208
0.451119
0.131564
0.439925
0.236004
-0.228106
0.269605
-0.463495
0.311328
-0.469155
0.359246
-0.522296
0.400298
-0.457417
0.440405
-0.444527
0.479366
-0.426967
0.513859
-0.380518
0.54546
-0.346658
0.574112
-0.311203
0.599382
-0.27319
0.622106
-0.24122
0.642429
-0.20996
0.6605
-0.180141
0.676491
-0.15226
0.69055
-0.124278
0.702704
-0.0968672
0.712954
-0.0685865
0.721228
-0.0401429
0.727531
-0.0105339
0.731713
0.0190037
0.733824
0.0491849
0.733924
0.0774186
0.732066
0.103105
0.728487
0.12283
0.723229
0.135734
0.716303
0.147018
0.707759
0.159157
0.697696
0.170726
0.686195
0.182348
0.673313
0.194173
0.659113
0.206376
0.643574
0.219425
0.626636
0.23416
0.608192
0.252194
0.587967
0.276244
0.565599
0.313428
0.540071
0.370857
0.512523
0.48974
0.479083
0.654778
-0.187131
-0.464305
-0.145391
-0.481943
-0.0922307
-0.603195
-0.0400582
-0.606029
0.0129374
-0.624065
0.0672516
-0.644394
0.118742
-0.622431
0.163488
-0.558613
0.201699
-0.494185
0.234325
-0.436137
0.260952
-0.372878
0.282647
-0.319576
0.300894
-0.279945
0.316417
-0.246824
0.330008
-0.221906
0.342441
-0.203802
0.354089
-0.189842
0.365358
-0.179568
0.37648
-0.172135
0.387625
-0.166455
0.398851
-0.161918
0.410197
-0.157689
0.421642
-0.152657
0.432943
-0.143394
0.443625
-0.129144
0.453427
-0.113767
0.462267
-0.0982645
0.470056
-0.0828462
0.476744
-0.0674934
0.482269
-0.0523357
0.486599
-0.0374461
0.489699
-0.0228545
0.491565
-0.00829088
0.492103
0.00669756
0.49119
0.0233871
0.488561
0.0450506
0.483593
0.0767887
0.476382
0.138776
0.465966
0.24642
-0.231004
0.274717
-0.507208
0.318771
-0.51321
0.369371
-0.572896
0.412652
-0.500699
0.454916
-0.48679
0.495897
-0.467948
0.532244
-0.416864
0.56545
-0.379865
0.595471
-0.341224
0.62197
-0.299688
0.645831
-0.265081
0.667005
-0.231134
0.685838
-0.198975
0.702565
-0.168987
0.717226
-0.138939
0.729989
-0.10963
0.740787
-0.0793845
0.749638
-0.0489938
0.75642
-0.0173159
0.761177
0.0142467
0.763805
0.046557
0.764386
0.0768374
0.763075
0.104417
0.759983
0.125921
0.755217
0.140501
0.748664
0.153571
0.740407
0.167413
0.730535
0.180599
0.719093
0.19379
0.706185
0.207081
0.69182
0.220741
0.676008
0.235237
0.658687
0.251481
0.63974
0.271141
0.618933
0.297052
0.595863
0.336498
0.569708
0.397012
0.541644
0.517804
0.50872
0.687702
-0.187807
-0.507502
-0.143859
-0.52589
-0.0878262
-0.659228
-0.0328088
-0.661047
0.0229638
-0.679838
0.0800929
-0.701523
0.13431
-0.676648
0.181247
-0.60555
0.221308
-0.534246
0.25538
-0.470209
0.28306
-0.400559
0.305492
-0.342008
0.324259
-0.298713
0.340051
-0.262616
0.353767
-0.235622
0.36621
-0.216245
0.377796
-0.201428
0.388945
-0.190718
0.399943
-0.183132
0.410971
-0.177484
0.422143
-0.173089
0.433494
-0.16904
0.445029
-0.164193
0.456494
-0.154858
0.467394
-0.140044
0.477471
-0.123845
0.486597
-0.10739
0.494703
-0.0909529
0.501691
-0.0744813
0.507521
-0.0581654
0.512132
-0.0420573
0.515502
-0.0262238
0.517565
-0.0103544
0.518257
0.00600591
0.517465
0.0241793
0.5149
0.0476152
0.510034
0.0816546
0.503051
0.145759
0.493393
0.256078
-0.234271
0.280386
-0.553322
0.326882
-0.559706
0.380151
-0.626164
0.425904
-0.546452
0.470315
-0.531201
0.513566
-0.5112
0.551747
-0.455045
0.586659
-0.414777
0.618216
-0.372781
0.646017
-0.32749
0.670844
-0.289908
0.693055
-0.253345
0.712645
-0.218565
0.730088
-0.186429
0.745489
-0.15434
0.758792
-0.122933
0.770177
-0.0907697
0.779538
-0.0583551
0.786886
-0.0246642
0.792105
0.00902868
0.795217
0.0434449
0.796335
0.0757187
0.795452
0.1053
0.792836
0.128537
0.788492
0.144845
0.782329
0.159735
0.774397
0.175345
0.764742
0.190254
0.753445
0.205087
0.740512
0.220014
0.726015
0.235238
0.709947
0.251305
0.69226
0.269168
0.672853
0.290547
0.651431
0.318474
0.627747
0.360182
0.600959
0.423799
0.572367
0.546396
0.539991
0.720078
-0.188734
-0.55304
-0.142401
-0.572224
-0.0832778
-0.718351
-0.0253502
-0.718974
0.033429
-0.738617
0.0935785
-0.761672
0.150543
-0.733612
0.199931
-0.654938
0.241908
-0.576223
0.277585
-0.505886
0.306435
-0.429409
0.329701
-0.365274
0.349024
-0.318035
0.365162
-0.278754
0.379053
-0.249513
0.391527
-0.228719
0.403087
-0.212988
0.414125
-0.201755
0.424995
-0.194002
0.43591
-0.188398
0.447
-0.18418
0.458331
-0.180371
0.469935
-0.175797
0.481544
-0.166468
0.492649
-0.151149
0.502952
-0.134148
0.512339
-0.116776
0.52072
-0.0993339
0.528019
-0.0817809
0.534135
-0.0642812
0.53904
-0.0469624
0.542648
-0.0298314
0.544945
-0.0126517
0.545829
0.00512126
0.545137
0.0248716
0.542702
0.0500506
0.537931
0.0864249
0.531251
0.152439
0.522369
0.26496
-0.237804
0.286446
-0.601964
0.335404
-0.608664
0.391746
-0.682507
0.439788
-0.594494
0.486725
-0.578138
0.532225
-0.5567
0.572511
-0.495331
0.609135
-0.451401
0.642263
-0.405908
0.671382
-0.356609
0.697485
-0.316011
0.72061
-0.276469
0.741142
-0.239097
0.759333
-0.204621
0.775359
-0.170366
0.789285
-0.136859
0.801189
-0.102674
0.811037
-0.0682031
0.818826
-0.032453
0.824532
0.00332258
0.828152
0.0398242
0.829653
0.0742179
0.829231
0.105722
0.827083
0.130685
0.823167
0.14876
0.817433
0.165469
0.809821
0.182956
0.800386
0.19969
0.789195
0.216278
0.776307
0.232902
0.761717
0.249828
0.745429
0.267594
0.727409
0.287187
0.707547
0.310409
0.685601
0.34042
0.661293
0.38449
0.63391
0.451182
0.604837
0.57547
0.572965
0.751949
-0.1898
-0.601044
-0.140961
-0.621063
-0.0786156
-0.780696
-0.0176186
-0.779971
0.0443125
-0.800548
0.107663
-0.825023
0.167651
-0.7936
0.219526
-0.706814
0.263592
-0.620288
0.300936
-0.54323
0.331065
-0.459538
0.355251
-0.38946
0.375206
-0.33799
0.391765
-0.295314
0.405887
-0.263634
0.418459
-0.241291
0.429996
-0.224525
0.440964
-0.212723
0.451717
-0.204755
0.462532
-0.199214
0.473516
-0.195164
0.484823
-0.191677
0.496458
-0.187432
0.508182
-0.178192
0.519463
-0.16243
0.52996
-0.144645
0.539605
-0.12642
0.548251
-0.10798
0.555811
-0.0893404
0.56224
-0.07071
0.567411
-0.0521341
0.571286
-0.0337058
0.573787
-0.0151525
0.574855
0.00405337
0.574335
0.0253915
0.572004
0.0523816
0.567408
0.0910203
0.561008
0.15884
0.552917
0.273051
-0.241667
0.29292
-0.653217
0.344547
-0.66029
0.403931
-0.741891
0.454697
-0.64526
0.504058
-0.627499
0.552083
-0.604725
0.594363
-0.537611
0.632931
-0.489969
0.667741
-0.440719
0.698336
-0.387204
0.725598
-0.343273
0.74987
-0.300741
0.771269
-0.260496
0.790249
-0.2236
0.806909
-0.187026
0.821473
-0.151423
0.833885
-0.115085
0.844221
-0.0785399
0.852525
-0.0407564
0.858643
-0.0027954
0.862656
0.0358105
0.864597
0.072277
0.864587
0.105732
0.86285
0.132423
0.859363
0.152248
0.853988
0.170844
0.8467
0.190244
0.837556
0.208834
0.826532
0.227302
0.813671