/*--------------------------------*- C++ -*----------------------------------*\
| =========                 |                                                 |
| \\      /  F ield         | OpenFOAM: The Open Source CFD Toolbox           |
|  \\    /   O peration     | Version:  3.0.0                                 |
|   \\  /    A nd           | Web:      www.OpenFOAM.org                      |
|    \\/     M anipulation  |                                                 |
\*---------------------------------------------------------------------------*/
FoamFile
{
    version     2.0;
    format      ascii;
    class       volVectorField;
    location    "350";
    object      U;
}
// * * * * * * * * * * * * * * * * * * * * * * * * * * * * * * * * * * * * * //

dimensions      [0 1 -1 0 0 0 0];

internalField   nonuniform List<vector> 
10720
(
(-0.199695 31.7356 4.74605e-18)
(1.83355 33.9843 -4.43886e-18)
(4.31456 36.1181 0)
(7.1126 37.6855 -3.09913e-16)
(10.1559 38.8 3.41289e-16)
(13.371 39.4281 2.47979e-16)
(16.5926 39.468 3.79553e-16)
(19.7262 38.9713 0)
(22.6929 38.0123 0)
(25.4154 36.6307 0)
(27.8714 34.9383 1.25512e-16)
(30.0178 32.9571 0)
(31.8525 30.7383 2.01556e-15)
(33.3932 28.3489 0)
(34.6353 25.8247 0)
(35.5945 23.2237 0)
(36.2609 20.5722 -3.29322e-15)
(36.6401 17.925 -4.93736e-15)
(36.7134 15.3051 4.34012e-15)
(36.4914 12.7689 0)
(35.9544 10.3474 3.40891e-15)
(35.1381 8.10717 -6.53731e-15)
(34.0891 6.09354 3.16275e-15)
(32.9178 4.36271 -9.32588e-17)
(31.8258 2.95635 0)
(30.8981 1.81755 1.08738e-15)
(30.0344 0.855846 1.63667e-17)
(29.1335 0.0290691 -4.14004e-16)
(28.158 -0.685158 -1.35768e-15)
(27.1044 -1.30069 -4.30701e-15)
(25.976 -1.82318 1.554e-15)
(24.7753 -2.25508 2.00572e-15)
(23.4989 -2.59661 7.91033e-16)
(22.1361 -2.84764 -1.98198e-15)
(20.6349 -3.00264 3.68516e-15)
(18.9568 -3.05886 4.11753e-17)
(16.7779 -2.95881 -9.55171e-17)
(14.2585 -2.69987 -6.1777e-14)
(8.61722 -2.10715 9.29779e-14)
(-1.85973 29.2935 -5.48742e-18)
(-3.26758 26.4988 -2.2972e-17)
(-4.35398 23.315 7.78926e-17)
(-4.9705 19.553 -2.17937e-16)
(-4.95296 15.63 -6.34905e-16)
(-4.23947 11.6618 1.02199e-15)
(-2.84555 7.89844 4.66254e-15)
(-0.92791 4.64063 2.6288e-15)
(1.20355 2.06737 0)
(3.35301 -0.0792864 0)
(5.62609 -1.84247 4.51124e-15)
(7.84043 -3.0994 1.63589e-15)
(9.83979 -3.89361 -2.67298e-15)
(11.5972 -4.3497 2.24233e-15)
(13.142 -4.58172 3.83483e-15)
(14.5086 -4.66174 2.54651e-15)
(15.7248 -4.6421 3.40817e-15)
(16.8206 -4.55622 2.38338e-15)
(17.8271 -4.42773 0)
(18.7674 -4.26292 0)
(19.6605 -4.06555 -4.07461e-15)
(20.5183 -3.82729 -2.24473e-16)
(21.3441 -3.53439 3.56094e-15)
(22.1097 -3.15757 -3.03416e-15)
(22.7519 -2.69188 2.26237e-17)
(23.2523 -2.17375 0)
(23.635 -1.62904 1.2033e-15)
(23.9156 -1.07382 0)
(24.0994 -0.519337 0)
(24.1909 0.0232321 1.04477e-15)
(24.1819 0.543999 0)
(24.0627 1.03598 -3.98874e-15)
(23.8482 1.49385 -7.69625e-15)
(23.5558 1.91273 -3.83252e-14)
(23.1851 2.28893 1.53808e-14)
(22.7307 2.62302 -5.98887e-17)
(22.0744 2.9079 0)
(21.1614 3.10721 3.3382e-14)
(18.4855 3.27633 3.83877e-14)
(7.30042 27.6571 -1.67833e-17)
(9.44098 29.375 1.14389e-17)
(12.0124 30.8907 0)
(14.9356 32.0987 0)
(18.0405 32.9467 -9.36294e-17)
(21.3316 33.3753 -2.37826e-16)
(24.6834 33.3445 0)
(27.9524 32.8868 0)
(31.0818 32.019 5.01084e-16)
(33.9842 30.8031 0)
(36.5971 29.2969 1.9638e-15)
(38.9269 27.6233 0)
(40.9621 25.8159 7.02574e-16)
(42.6974 23.891 -6.93097e-16)
(44.1052 21.8789 1.37458e-15)
(45.1741 19.8022 -2.74442e-15)
(45.9095 17.674 2.99201e-15)
(46.3053 15.5223 2.66262e-15)
(46.3665 13.3594 2.58545e-15)
(46.082 11.2211 1.54831e-16)
(45.4582 9.13711 -2.66585e-15)
(44.4936 7.16648 2.47091e-15)
(43.2202 5.35336 -1.36893e-16)
(41.6808 3.75802 0)
(39.993 2.4315 0)
(38.3077 1.31778 0)
(36.6797 0.336755 8.26149e-17)
(35.0952 -0.523987 -1.63963e-17)
(33.5509 -1.26916 9.81496e-16)
(32.0374 -1.90707 3.68489e-17)
(30.5357 -2.44173 -2.90848e-17)
(29.0261 -2.87647 -5.28412e-17)
(27.4877 -3.21399 5.00947e-16)
(25.9034 -3.45666 6.79825e-16)
(24.2279 -3.60357 2.6254e-17)
(22.4399 -3.65472 8.71769e-15)
(20.2566 -3.56439 0)
(17.9185 -3.33808 1.735e-14)
(12.3131 -2.52707 4.87231e-14)
(5.45354 25.8034 2.29721e-17)
(3.81304 23.7181 -7.47964e-17)
(2.30481 21.2533 -7.98204e-16)
(1.0819 18.4177 9.25657e-16)
(0.326906 15.3013 0)
(0.135087 12.0302 -1.74323e-15)
(0.558061 8.78704 -1.19224e-15)
(1.55888 5.82734 -9.6419e-15)
(2.98463 3.30529 4.04887e-15)
(4.66669 1.16096 -3.61964e-15)
(6.51185 -0.539357 4.39855e-15)
(8.39135 -1.7399 -1.24429e-15)
(10.1854 -2.5283 0)
(11.8403 -3.02091 -9.03804e-16)
(13.3461 -3.31112 4.64424e-17)
(14.7121 -3.45608 -2.16965e-15)
(15.9498 -3.5035 0)
(17.0787 -3.48339 0)
(18.1213 -3.41771 -2.65864e-16)
(19.0995 -3.30785 2.54156e-16)
(20.0288 -3.15456 -3.38699e-15)
(20.9217 -2.94376 -4.09052e-16)
(21.7804 -2.65745 1.91138e-16)
(22.5832 -2.26094 2.70822e-15)
(23.2782 -1.76656 -2.52954e-15)
(23.8414 -1.23879 -2.22686e-15)
(24.2876 -0.705826 0)
(24.6289 -0.178986 0)
(24.8695 0.33516 0)
(25.0096 0.828187 8.35562e-18)
(25.0671 1.29231 0)
(25.0598 1.72214 0)
(24.9809 2.1168 1.31502e-14)
(24.8218 2.47555 1.2799e-14)
(24.5712 2.80017 -1.25839e-14)
(24.2367 3.09621 1.2517e-14)
(23.7187 3.36244 -2.49243e-14)
(23.2123 3.59604 -2.52807e-14)
(21.2359 3.65885 -2.66392e-14)
(8.19799 25.4291 -4.62675e-18)
(9.75664 26.9408 -4.85802e-17)
(11.6239 28.3866 3.56827e-17)
(13.7434 29.6925 7.26092e-18)
(16.0498 30.7362 -8.55156e-17)
(18.543 31.4924 3.48038e-16)
(21.1424 31.9249 -2.58181e-16)
(23.767 31.9998 -3.2668e-16)
(26.36 31.7194 1.85535e-19)
(28.8632 31.1008 -4.87281e-16)
(31.2253 30.1659 4.20566e-16)
(33.4171 28.9424 -1.23022e-15)
(35.4164 27.4685 -5.6639e-16)
(37.2074 25.7828 0)
(38.8021 23.9123 -1.42485e-15)
(40.2051 21.8882 2.83781e-15)
(41.4067 19.7398 0)
(42.3824 17.5126 -5.25025e-15)
(43.1202 15.236 -2.61967e-15)
(43.5899 12.9614 2.96106e-16)
(43.7773 10.7257 -2.93812e-16)
(43.6597 8.59552 -1.2692e-16)
(43.2384 6.61934 -1.76027e-15)
(42.5229 4.85816 8.52845e-16)
(41.5706 3.3573 0)
(40.4658 2.06067 6.74608e-16)
(39.2353 0.898704 -7.57878e-17)
(37.879 -0.129557 0)
(36.4191 -1.02193 8.29636e-16)
(34.8857 -1.7839 1.35403e-15)
(33.2998 -2.41953 -1.92362e-15)
(31.6734 -2.93382 -1.17495e-15)
(30.0062 -3.3325 -4.49135e-17)
(28.2906 -3.62044 6.77619e-16)
(26.4863 -3.79922 2.21218e-15)
(24.5718 -3.8672 -7.45519e-15)
(22.2852 -3.78705 0)
(19.8677 -3.52023 1.39694e-14)
(14.6895 -2.79783 -7.24599e-14)
(6.89703 23.816 -2.89319e-17)
(5.73155 22.0288 -8.59441e-17)
(4.71053 19.9003 3.34272e-16)
(3.83977 17.4917 0)
(3.27899 14.8812 5.65012e-16)
(3.08259 12.128 0)
(3.29539 9.34909 3.63911e-15)
(3.91454 6.73017 2.41272e-15)
(4.88588 4.39875 2.75753e-15)
(6.14175 2.37143 0)
(7.59662 0.704628 -4.30438e-15)
(9.13283 -0.580686 -9.48999e-16)
(10.6571 -1.53349 4.31463e-15)
(12.1135 -2.21923 0)
(13.4781 -2.69403 -2.13868e-15)
(14.7462 -3.00357 -6.595e-16)
(15.9198 -3.18828 2.93144e-15)
(17.0086 -3.27806 1.60533e-15)
(18.0273 -3.29472 4.81961e-16)
(18.9922 -3.2467 -2.43338e-16)
(19.9153 -3.13876 3.08869e-15)
(20.8055 -2.96457 0)
(21.6635 -2.71233 0)
(22.4711 -2.36162 2.16509e-17)
(23.1862 -1.92525 0)
(23.7858 -1.45001 4.44493e-15)
(24.2795 -0.955246 -6.58908e-17)
(24.6782 -0.449198 -4.89701e-16)
(24.9855 0.060034 0)
(25.2031 0.56217 -8.94854e-16)
(25.3348 1.04821 1.75274e-15)
(25.3867 1.51241 0)
(25.3618 1.94969 -6.60071e-15)
(25.2617 2.35479 0)
(25.0759 2.7257 0)
(24.8052 3.06313 3.88106e-17)
(24.3409 3.3671 3.59216e-17)
(23.8086 3.59887 2.53048e-14)
(22.0449 3.66662 5.16587e-14)
(10.8916 23.2831 -2.55664e-17)
(12.3377 24.5738 -3.55275e-17)
(14.0459 25.8088 4.73224e-17)
(15.9862 26.9134 4.32855e-17)
(18.1008 27.7963 0)
(20.3949 28.4373 0)
(22.8059 28.796 -3.57844e-16)
(25.2667 28.8411 5.19389e-16)
(27.7276 28.5686 0)
(30.1308 27.9862 -6.92015e-16)
(32.4238 27.1122 -9.8387e-16)
(34.5671 25.9755 -8.95208e-16)
(36.5267 24.6141 1.14003e-15)
(38.2807 23.0628 1.04148e-15)
(39.8107 21.3558 0)
(41.0902 19.5344 1.64854e-15)
(42.1011 17.6349 5.77751e-16)
(42.8445 15.6842 4.64306e-15)
(43.323 13.708 2.76835e-16)
(43.5447 11.7361 -2.7501e-16)
(43.5189 9.80076 2.2501e-15)
(43.2609 7.94721 -3.6488e-16)
(42.797 6.21625 1.93826e-15)
(42.1602 4.65256 7.54145e-16)
(41.4016 3.28791 -4.25415e-17)
(40.575 2.08404 -6.08497e-16)
(39.6807 0.985365 4.04323e-18)
(38.6839 -0.0122284 -4.0559e-18)
(37.566 -0.904527 -7.90277e-16)
(36.3231 -1.69139 -1.64013e-17)
(34.9568 -2.36869 9.21303e-16)
(33.4749 -2.9323 -1.05555e-15)
(31.8852 -3.38011 -3.62963e-16)
(30.1941 -3.71128 5.14653e-17)
(28.377 -3.9241 -1.9993e-15)
(26.4217 -4.01214 0)
(24.0912 -3.9429 -9.42236e-15)
(21.5876 -3.63052 -1.21264e-14)
(16.6731 -2.95846 2.99658e-14)
(9.65134 21.918 -4.24606e-17)
(8.51563 20.4195 1.34813e-16)
(7.48129 18.6363 5.12932e-16)
(6.57351 16.5997 0)
(5.92997 14.38 -5.11823e-16)
(5.59286 12.0165 0)
(5.6 9.60027 -3.07467e-15)
(5.95535 7.28794 -1.03398e-16)
(6.61788 5.17284 2.07058e-15)
(7.54504 3.27934 1.8698e-15)
(8.67353 1.66716 4.44711e-17)
(9.9162 0.364415 3.18568e-15)
(11.2026 -0.649558 -2.17517e-15)
(12.4796 -1.4141 6.86936e-16)
(13.7145 -1.96984 2.47958e-15)
(14.8915 -2.35677 2.85146e-15)
(16.0038 -2.61003 -2.65343e-15)
(17.0517 -2.75866 2.35332e-18)
(18.0426 -2.82465 0)
(18.9865 -2.81974 3.29811e-15)
(19.8922 -2.74927 1.84218e-16)
(20.7655 -2.60978 -2.95482e-15)
(21.606 -2.3921 0)
(22.3979 -2.08098 2.01964e-17)
(23.1062 -1.68373 0)
(23.7082 -1.23772 -2.01999e-15)
(24.209 -0.765489 0)
(24.6182 -0.279078 4.58844e-16)
(24.9395 0.211211 -2.032e-17)
(25.1756 0.694671 1.33098e-17)
(25.3304 1.1624 -1.57916e-15)
(25.4094 1.60696 -5.04451e-17)
(25.4162 2.02328 0)
(25.3535 2.40841 6.08835e-15)
(25.2126 2.76251 9.52175e-17)
(24.9943 3.08594 -1.21151e-14)
(24.5966 3.38065 4.89202e-14)
(24.1139 3.58127 9.27563e-17)
(22.5292 3.64039 0)
(12.3977 21.6469 -3.75898e-17)
(13.6223 22.793 -2.91052e-17)
(15.0787 23.9141 9.41301e-17)
(16.7255 24.9471 -2.33751e-16)
(18.5134 25.8077 3.88772e-17)
(20.4645 26.4882 -1.08271e-17)
(22.5267 26.9503 1.3791e-16)
(24.6479 27.1598 0)
(26.796 27.1075 6.89203e-16)
(28.9224 26.7893 3.9734e-16)
(30.9848 26.2084 0)
(32.9491 25.3781 8.6359e-16)
(34.7824 24.3178 -4.58737e-16)
(36.4591 23.0482 1.22744e-15)
(37.9579 21.5912 0)
(39.2606 19.969 -2.19416e-15)
(40.3616 18.1961 2.00103e-15)
(41.2438 16.3062 -1.74773e-16)
(41.8919 14.3357 0)
(42.2917 12.3308 2.13392e-15)
(42.4362 10.3378 -2.16318e-15)
(42.3277 8.41415 -1.05592e-16)
(41.9873 6.61203 -1.56765e-15)
(41.4534 4.98162 -1.41288e-15)
(40.7867 3.55692 0)
(40.0535 2.3087 0)
(39.2775 1.18337 -1.2748e-16)
(38.444 0.166746 -1.26471e-17)
(37.5399 -0.743247 7.28222e-16)
(36.5542 -1.55117 -1.53076e-17)
(35.47 -2.25687 1.52648e-17)
(34.2684 -2.85705 9.85438e-16)
(32.9312 -3.34745 0)
(31.4457 -3.72298 -1.37139e-15)
(29.7808 -3.97712 9.98388e-18)
(27.9259 -4.09645 0)
(25.6667 -4.04962 -2.7728e-17)
(23.176 -3.71189 0)
(18.4738 -3.05813 -2.59919e-14)
(11.3434 20.4415 5.73383e-17)
(10.3774 19.1318 -2.95646e-16)
(9.47673 17.5734 3.17793e-16)
(8.65648 15.798 4.36588e-16)
(8.03949 13.871 -1.77243e-15)
(7.65735 11.8099 -2.17666e-15)
(7.54762 9.68548 2.63396e-15)
(7.72552 7.62805 -3.20247e-15)
(8.16886 5.71171 -1.60614e-15)
(8.85225 3.96456 -1.4608e-15)
(9.72683 2.44041 2.80115e-15)
(10.7289 1.16609 -2.70743e-15)
(11.8052 0.132132 -1.24348e-15)
(12.9095 -0.685199 1.20443e-15)
(14.0083 -1.31136 -2.76882e-15)
(15.0817 -1.7764 5.16282e-16)
(16.1175 -2.10711 0)
(17.1101 -2.32715 -2.2157e-15)
(18.0608 -2.45539 8.23569e-16)
(18.9745 -2.50393 -3.42172e-15)
(19.8562 -2.47851 0)
(20.709 -2.37797 2.56119e-15)
(21.5307 -2.19611 2.22236e-15)
(22.3072 -1.92316 -2.03104e-15)
(23.0082 -1.56511 0)
(23.6116 -1.15307 -1.90827e-15)
(24.1182 -0.710378 0)
(24.5354 -0.249246 0)
(24.8665 0.220388 0)
(25.1134 0.68804 7.88153e-16)
(25.2802 1.14436 0)
(25.3718 1.58193 0)
(25.3919 1.99583 -5.88486e-15)
(25.3437 2.38168 -5.76185e-15)
(25.2198 2.73788 0)
(25.0224 3.06226 -1.14886e-14)
(24.6577 3.35602 6.33316e-17)
(24.2164 3.54002 0)
(22.8153 3.58709 -2.29964e-14)
(13.9038 20.2093 5.46195e-17)
(15.0153 21.2252 -4.03305e-17)
(16.332 22.2255 0)
(17.8159 23.1512 6.22482e-18)
(19.4195 23.9282 1.49248e-16)
(21.1745 24.5544 1.02482e-17)
(23.0357 24.9928 4.87938e-17)
(24.9604 25.213 -2.57231e-16)
(26.926 25.2024 -1.06717e-16)
(28.8919 24.9527 6.4696e-16)
(30.8208 24.462 -2.45793e-16)
(32.6823 23.736 5.88971e-16)
(34.4427 22.7875 2.93609e-16)
(36.0734 21.6329 1.52986e-16)
(37.5495 20.292 0)
(38.8483 18.7887 -4.56392e-16)
(39.9437 17.1581 -1.02767e-15)
(40.8151 15.4348 -3.67284e-15)
(41.4492 13.6491 1.05663e-15)
(41.8397 11.8322 -1.37967e-15)
(41.984 10.0192 -2.11497e-16)
(41.8878 8.25246 0)
(41.5693 6.57607 1.40932e-15)
(41.0616 5.03323 8.74178e-17)
(40.4176 3.65671 -3.57359e-17)
(39.696 2.43257 -4.78613e-16)
(38.9263 1.32166 1.0502e-16)
(38.1076 0.312473 1.99667e-16)
(37.2397 -0.594627 -6.82942e-16)
(36.3253 -1.40322 -2.82189e-17)
(35.3596 -2.11515 7.77117e-16)
(34.329 -2.72939 8.35177e-16)
(33.2097 -3.24329 0)
(31.9717 -3.65142 -6.88209e-17)
(30.5599 -3.94445 1.96215e-15)
(28.9399 -4.10203 0)
(26.8918 -4.08994 1.67404e-14)
(24.563 -3.74999 0)
(20.1279 -3.1224 2.34815e-14)
(12.9379 19.1455 -5.56227e-17)
(12.0493 17.9974 1.32652e-16)
(11.2071 16.6289 0)
(10.4271 15.0663 0)
(9.81832 13.3712 7.89727e-16)
(9.40238 11.5515 3.7716e-15)
(9.21381 9.66491 0)
(9.26806 7.82114 -2.57251e-15)
(9.55417 6.083 -2.52806e-15)
(10.0555 4.47871 2.49584e-15)
(10.732 3.0517 -6.09566e-17)
(11.5374 1.8275 1.13658e-15)
(12.4321 0.802846 2.57735e-17)
(13.379 -0.0356965 3.15015e-15)
(14.3472 -0.70256 2.9553e-15)
(15.3162 -1.21874 -2.83301e-15)
(16.2714 -1.60408 4.30312e-16)
(17.2033 -1.87737 -8.19456e-16)
(18.1084 -2.05449 3.89238e-16)
(18.9871 -2.14676 2.47613e-15)
(19.8408 -2.16026 3.33969e-16)
(20.6698 -2.09558 -2.92685e-16)
(21.4704 -1.94854 -1.92099e-15)
(22.2293 -1.71287 0)
(22.9202 -1.39372 1.16798e-16)
(23.5217 -1.01638 3.47362e-15)
(24.0312 -0.603219 -2.5953e-17)
(24.4537 -0.16688 2.56954e-17)
(24.7917 0.282214 0)
(25.0468 0.732952 -7.3919e-16)
(25.2223 1.17537 0)
(25.3229 1.60149 0)
(25.3519 2.00537 5.43993e-15)
(25.3124 2.38214 5.53029e-15)
(25.1974 2.72993 0)
(25.009 3.04505 1.0697e-14)
(24.6594 3.32835 -4.3253e-14)
(24.2348 3.48937 1.6204e-16)
(22.9784 3.51324 2.10694e-14)
(15.1057 18.9903 6.7499e-18)
(16.1053 19.9031 -3.93341e-17)
(17.2898 20.81 9.59413e-17)
(18.6196 21.656 -9.37681e-17)
(20.0482 22.3749 -8.82035e-17)
(21.6138 22.9704 0)
(23.2749 23.41 -1.14253e-18)
(24.9957 23.6652 1.95893e-17)
(26.7625 23.7247 -1.88311e-16)
(28.5406 23.5782 -3.80428e-16)
(30.3 23.2196 0)
(32.0159 22.6491 -1.03551e-15)
(33.6573 21.8728 -9.56689e-16)
(35.1969 20.9 -2.35189e-15)
(36.6103 19.7444 0)
(37.872 18.4242 -1.46969e-15)
(38.9607 16.9587 -1.54645e-15)
(39.8597 15.3674 1.70616e-15)
(40.5513 13.6796 -1.67411e-15)
(41.0209 11.9321 1.50006e-15)
(41.2592 10.1662 1.82587e-16)
(41.2643 8.43021 -1.54484e-15)
(41.0471 6.77237 0)
(40.634 5.23696 -1.24592e-15)
(40.0685 3.85564 7.24635e-17)
(39.4022 2.62077 5.02511e-16)
(38.666 1.50059 0)
(37.8662 0.483207 -1.79252e-17)
(37.0076 -0.431261 2.77122e-17)
(36.0998 -1.24598 9.17271e-16)
(35.1492 -1.96332 -6.94003e-16)
(34.1568 -2.58364 -8.06859e-16)
(33.1152 -3.1065 1.82967e-16)
(32.0088 -3.52934 -5.99368e-17)
(30.7889 -3.84511 -1.89567e-15)
(29.4163 -4.03258 -6.12946e-15)
(27.6589 -4.05634 -8.21207e-15)
(25.6382 -3.73092 1.49734e-16)
(21.5961 -3.14867 -7.67987e-17)
(14.2316 18.0371 2.53546e-17)
(13.4247 17.0149 2.59835e-16)
(12.6474 15.7951 3.07121e-16)
(11.9143 14.4014 -6.05587e-16)
(11.3244 12.8927 -2.21605e-15)
(10.8933 11.2693 7.69835e-16)
(10.6539 9.57881 1.96855e-15)
(10.6225 7.91532 5.44008e-15)
(10.7945 6.33494 2.16278e-15)
(11.1579 4.86367 -2.05819e-15)
(11.6803 3.53596 -4.84838e-17)
(12.3268 2.37489 -1.01714e-15)
(13.0681 1.37942 0)
(13.8747 0.542009 -3.06662e-17)
(14.7207 -0.14483 -1.80308e-15)
(15.5872 -0.695311 8.37313e-16)
(16.4593 -1.12323 -8.19307e-16)
(17.3253 -1.44211 0)
(18.1788 -1.66412 1.40978e-15)
(19.0168 -1.79877 -2.62798e-15)
(19.8376 -1.85134 0)
(20.639 -1.82312 2.25723e-15)
(21.416 -1.71154 0)
(22.1557 -1.5129 -1.18136e-16)
(22.8347 -1.23189 1.16682e-16)
(23.4322 -0.889259 -1.64593e-15)
(23.943 -0.505921 -2.69272e-17)
(24.3698 -0.0950425 -2.44788e-17)
(24.7141 0.332514 1.12995e-17)
(24.977 0.765404 -7.21375e-16)
(25.1611 1.19331 -1.381e-15)
(25.2703 1.60779 2.62454e-15)
(25.3078 2.00253 8.29016e-17)
(25.2763 2.37203 2.54847e-17)
(25.1687 2.71353 0)
(24.987 3.0213 1.59811e-16)
(24.6487 3.29505 1.98331e-14)
(24.2338 3.43496 -9.37355e-18)
(23.0871 3.43261 1.96239e-14)
(16.1666 17.9176 1.06893e-17)
(17.0829 18.7414 7.10625e-17)
(18.1674 19.5641 0)
(19.3808 20.3334 -2.84163e-17)
(20.677 20.9903 -1.39313e-16)
(22.0975 21.5422 0)
(23.6047 21.9588 4.47416e-17)
(25.1672 22.2151 2.01913e-16)
(26.7772 22.3005 -4.23501e-16)
(28.406 22.2038 1.22008e-16)
(30.0284 21.9172 2.81808e-16)
(31.6245 21.4373 1.19484e-15)
(33.1669 20.7656 8.91189e-16)
(34.6301 19.9064 1.18857e-15)
(35.9898 18.8688 3.16895e-16)
(37.2202 17.6663 1.09363e-15)
(38.2983 16.3167 1.49787e-15)
(39.2003 14.8465 1.36838e-15)
(39.9056 13.2857 -1.00505e-15)
(40.4002 11.665 -3.12651e-15)
(40.6754 10.0192 0)
(40.7301 8.38858 8.72612e-17)
(40.5736 6.81565 1.14266e-15)
(40.2285 5.34057 1.1838e-15)
(39.7306 3.99354 -6.53717e-17)
(39.1224 2.77471 -4.35847e-16)
(38.4322 1.66226 2.84827e-18)
(37.6682 0.6471 -1.93888e-16)
(36.8354 -0.269163 1.93256e-17)
(35.9429 -1.08762 -1.70478e-15)
(34.9985 -1.80954 -8.12454e-18)
(34.0081 -2.43458 -1.52158e-17)
(32.9733 -2.962 -1.81309e-16)
(31.8937 -3.38989 -5.99909e-17)
(30.7426 -3.71342 1.90342e-15)
(29.5079 -3.9136 1.19046e-14)
(27.9859 -3.96038 -7.9512e-15)
(26.3222 -3.65243 -9.25204e-15)
(22.805 -3.12921 2.04611e-14)
(15.3604 17.0591 -1.0601e-16)
(14.6148 16.1425 -3.62779e-16)
(13.8876 15.047 -2.53352e-16)
(13.193 13.7935 -5.92597e-16)
(12.6218 12.4384 1.29906e-15)
(12.1845 10.978 -4.31233e-17)
(11.9112 9.45142 -5.14298e-15)
(11.8196 7.94151 -1.87088e-15)
(11.908 6.50042 6.62808e-18)
(12.1664 5.15009 0)
(12.5684 3.91848 -1.78383e-15)
(13.0868 2.82597 1.72758e-15)
(13.6994 1.87175 -1.69926e-15)
(14.3836 1.05118 -8.62935e-16)
(15.1181 0.361024 7.87302e-16)
(15.887 -0.208158 7.78591e-16)
(16.6763 -0.665028 2.94655e-15)
(17.4741 -1.01853 -7.11199e-16)
(18.2724 -1.27729 -1.3136e-15)
(19.0657 -1.44865 0)
(19.8499 -1.5368 -2.28401e-15)
(20.6207 -1.54308 -1.85939e-15)
(21.3718 -1.46581 -1.252e-17)
(22.0905 -1.3031 -2.35963e-16)
(22.7555 -1.05928 -1.05341e-16)
(23.3467 -0.751169 1.7363e-15)
(23.8568 -0.398095 -4.71831e-17)
(24.2863 -0.0134504 4.14827e-16)
(24.6357 0.391655 9.89639e-17)
(24.9055 0.805779 6.64266e-16)
(25.0974 1.21827 -9.6908e-18)
(25.215 1.62022 -5.25356e-15)
(25.2607 2.00474 -4.93071e-15)
(25.2369 2.36565 -4.9234e-15)
(25.1369 2.69937 -1.5173e-16)
(24.962 2.99842 7.41653e-17)
(24.6347 3.26115 -1.90788e-14)
(24.2308 3.3809 -1.85738e-14)
(23.1768 3.35304 -1.80313e-14)
(17.0818 16.9697 -3.83917e-17)
(17.9259 17.7179 -3.08902e-17)
(18.9241 18.4681 -1.90053e-16)
(20.037 19.1717 6.7277e-16)
(21.2194 19.7743 -2.72072e-16)
(22.514 20.2867 1.72794e-16)
(23.8861 20.6818 -1.45775e-16)
(25.3075 20.9367 0)
(26.775 21.0431 1.17291e-16)
(28.2637 20.9899 6.90035e-18)
(29.7534 20.7687 -2.06259e-16)
(31.2284 20.3745 -1.06366e-15)
(32.6651 19.8056 -4.98124e-16)
(34.0406 19.0629 0)
(35.3322 18.1514 0)
(36.5152 17.0805 0)
(37.5656 15.8649 0)
(38.4616 14.522 -1.33307e-15)
(39.1829 13.0747 1.31991e-15)
(39.7122 11.552 1.28846e-15)
(40.0376 9.98884 -9.96756e-16)
(40.1543 8.42606 8.91097e-16)
(40.0676 6.90621 -8.9483e-16)
(39.7956 5.46918 -6.36218e-17)
(39.3682 4.14431 -2.6655e-17)
(38.8216 2.93566 4.41486e-16)
(38.1832 1.82803 8.68336e-17)
(37.4637 0.81415 0)
(36.6686 -0.104011 0)
(35.8063 -0.926207 3.86745e-17)
(34.8836 -1.65293 0)
(33.9058 -2.2831 5.86224e-16)
(32.8753 -2.81523 -9.09212e-17)
(31.7955 -3.2467 7.57797e-16)
(30.6503 -3.57266 -3.62096e-15)
(29.4508 -3.77414 -5.74324e-15)
(28.0372 -3.82764 7.64804e-15)
(26.6394 -3.52497 1.80953e-14)
(23.6973 -3.0581 -1.97298e-14)
(16.3352 16.1911 0)
(15.6432 15.3628 1.08225e-16)
(14.961 14.3713 4.73719e-16)
(14.3021 13.2354 -2.0613e-15)
(13.7509 12.0091 1.7363e-15)
(13.3138 10.6861 -1.35966e-15)
(13.0188 9.29818 -1.19797e-18)
(12.8844 7.92027 1.48562e-15)
(12.9112 6.60216 1.53871e-15)
(13.089 5.36107 0)
(13.3966 4.22007 7.65914e-16)
(13.8118 3.19728 -2.33464e-15)
(14.3174 2.29117 3.8179e-15)
(14.8959 1.49824 7.32289e-16)
(15.5305 0.817216 -1.47931e-15)
(16.2085 0.242058 -1.42589e-15)
(16.9176 -0.232286 -1.36383e-15)
(17.6468 -0.611068 0)
(18.3875 -0.899657 0)
(19.133 -1.1029 0)
(19.8773 -1.22361 2.1429e-15)
(20.6146 -1.26263 0)
(21.3376 -1.21871 -1.63553e-15)
(22.0336 -1.09098 -2.23601e-16)
(22.6827 -0.883265 -1.64681e-15)
(23.2654 -0.609385 -1.5459e-15)
(23.7729 -0.286795 0)
(24.2036 0.0711466 -3.4984e-16)
(24.5571 0.453221 -1.04696e-16)
(24.8329 0.847899 2.06858e-17)
(25.0321 1.24428 2.53599e-15)
(25.1576 1.63302 -1.66559e-17)
(25.2114 2.00675 4.80678e-15)
(25.1955 2.35868 -4.68717e-15)
(25.1031 2.68436 0)
(24.9353 2.97452 -1.44806e-16)
(24.6197 3.22598 9.10146e-17)
(24.2285 3.32731 1.76595e-14)
(23.2605 3.27576 -1.26832e-16)
(17.8875 16.1208 3.99388e-17)
(18.6713 16.803 0)
(19.5971 17.4889 3.86537e-16)
(20.6258 18.1331 -3.44953e-16)
(21.7133 18.6852 1.21098e-16)
(22.9026 19.1583 -1.62624e-16)
(24.1609 19.5273 8.67756e-17)
(25.4628 19.7726 4.6143e-17)
(26.8081 19.887 0)
(28.1751 19.8601 -1.45415e-16)
(29.5476 19.6836 -1.70845e-16)
(30.9135 19.3516 1.67767e-16)
(32.2523 18.8605 8.47866e-16)
(33.5448 18.2083 3.96127e-16)
(34.77 17.397 -1.19477e-15)
(35.9043 16.4326 -8.95447e-16)
(36.9247 15.3256 7.17063e-16)
(37.8088 14.0912 5.51161e-16)
(38.5344 12.752 -2.72232e-16)
(39.083 11.3344 2.72114e-16)
(39.4414 9.86968 7.07737e-16)
(39.6038 8.39387 1.27708e-16)
(39.5727 6.94575 -1.14916e-16)
(39.3626 5.56267 -7.39474e-16)
(38.9978 4.27282 0)
(38.5086 3.08372 -3.55642e-16)
(37.92 1.98701 -1.61089e-16)
(37.2447 0.978546 -1.34485e-16)
(36.4894 0.0613498 -4.42325e-16)
(35.662 -0.762801 1.4225e-15)
(34.7694 -1.49332 4.41154e-16)
(33.8159 -2.12839 -3.77081e-17)
(32.8027 -2.66557 3.88115e-17)
(31.732 -3.10114 0)
(30.5885 -3.42942 1.75053e-15)
(29.3894 -3.6295 0)
(27.9999 -3.68208 0)
(26.7162 -3.37084 -8.78364e-15)
(24.279 -2.94077 1.31989e-16)
(17.1912 15.4113 -1.30025e-16)
(16.5448 14.6586 3.95087e-16)
(15.9014 13.7562 7.70945e-18)
(15.2748 12.7209 4.66703e-16)
(14.7432 11.6042 -1.61233e-15)
(14.3105 10.3985 1.22479e-15)
(14.0021 9.12938 4.86324e-17)
(13.8375 7.86637 -1.26946e-15)
(13.8181 6.6568 -1.26364e-15)
(13.934 5.51377 -1.31381e-15)
(14.1672 4.45697 -2.66638e-15)
(14.4992 3.50244 0)
(14.9161 2.6475 -1.38441e-15)
(15.4043 1.88882 -2.74844e-17)
(15.9506 1.22612 0)
(16.5452 0.655101 -1.28547e-15)
(17.1783 0.173317 -6.25526e-16)
(17.84 -0.221851 -6.06421e-16)
(18.5224 -0.533088 2.25875e-15)
(19.218 -0.762845 2.13491e-15)
(19.92 -0.912252 -2.46155e-16)
(20.6215 -0.98147 1.89156e-15)
(21.3143 -0.96922 4.36467e-16)
(21.9857 -0.874967 -2.11913e-16)
(22.617 -0.702116 1.46273e-15)
(23.1893 -0.461949 9.49832e-17)
(23.6922 -0.169908 0)
(24.1226 0.160958 0)
(24.4789 0.51939 -1.99587e-17)
(24.7598 0.893898 5.86473e-17)
(24.9658 1.27339 -2.48201e-15)
(25.0988 1.64817 -1.61617e-17)
(25.1604 2.01037 4.83002e-15)
(25.1523 2.35262 4.50184e-15)
(25.0677 2.66957 1.40812e-16)
(24.9075 2.95032 2.8115e-18)
(24.6043 3.19008 3.44617e-14)
(24.227 3.27433 -1.67817e-14)
(23.3414 3.20155 1.19155e-16)
(18.5991 15.3547 1.77475e-17)
(19.3303 15.9792 0)
(20.1932 16.6082 -1.89421e-16)
(21.1492 17.1992 0)
(22.1546 17.7058 2.22788e-16)
(23.2526 18.1421 -2.16495e-16)
(24.412 18.4856 -1.32597e-16)
(25.6094 18.7187 -4.36187e-17)
(26.8464 18.8356 0)
(28.1042 18.8272 -3.21405e-18)
(29.3696 18.6857 2.0413e-16)
(30.6338 18.4049 -4.24251e-16)
(31.8791 17.9802 -2.72111e-16)
(33.089 17.4081 -2.72573e-16)
(34.2451 16.6881 7.61271e-16)
(35.3258 15.8233 8.57642e-16)
(36.3091 14.8212 -9.44289e-16)
(37.1731 13.694 -9.09104e-16)
(37.8963 12.4589 0)
(38.4592 11.1391 2.40958e-16)
(38.8473 9.76316 -4.65787e-16)
(39.0521 8.36507 1.16342e-16)
(39.0736 6.98183 5.10891e-18)
(38.9222 5.64922 1.7313e-15)
(38.6174 4.39429 -9.09486e-17)
(38.1841 3.22656 6.3208e-17)
(37.6449 2.1428 1.45403e-16)
(37.0134 1.1417 1.42257e-16)
(36.2976 0.227224 3.83638e-16)
(35.5057 -0.597424 -6.42487e-16)
(34.6449 -1.33061 -4.10126e-16)
(33.7197 -1.96982 -9.29535e-16)
(32.7308 -2.51181 5.24911e-17)
(31.6797 -2.95178 5.63769e-18)
(30.5498 -3.28313 -1.77086e-15)
(29.3563 -3.48232 1.29681e-16)
(27.974 -3.53354 -9.29455e-17)
(26.6987 -3.20903 1.41159e-16)
(24.623 -2.78962 -1.79281e-14)
(17.9468 14.7054 7.52635e-17)
(17.3404 14.018 -1.93347e-16)
(16.7319 13.1927 3.74997e-16)
(16.1347 12.2443 0)
(15.6225 11.2226 9.7218e-16)
(15.1966 10.118 0)
(14.8811 8.95207 0)
(14.6953 7.78992 0)
(14.6412 6.67642 2.31343e-15)
(14.7092 5.62139 -1.1645e-15)
(14.8835 4.64209 1.25605e-15)
(15.1483 3.75289 0)
(15.4918 2.94989 0)
(15.9033 2.2293 -1.2413e-15)
(16.3723 1.59118 0)
(16.8916 1.03216 1.19497e-15)
(17.4537 0.550979 1.51227e-17)
(18.0505 0.147112 0)
(18.6749 -0.179975 -1.59741e-15)
(19.3196 -0.430822 -2.51282e-15)
(19.9776 -0.60504 -1.88191e-15)
(20.6413 -0.701751 -1.77212e-15)
(21.302 -0.719207 3.32383e-15)
(21.9474 -0.656847 0)
(22.5591 -0.517494 1.39971e-15)
(23.1188 -0.31019 1.50945e-15)
(23.6153 -0.0484936 6.77306e-16)
(24.0438 0.255099 0)
(24.4016 0.589434 -7.81663e-17)
(24.6867 0.943132 -6.05933e-16)
(24.8988 1.30505 2.35582e-15)
(25.0389 1.66519 -1.56409e-17)
(25.1082 2.0152 -4.43231e-15)
(25.1079 2.34717 4.17079e-15)
(25.0312 2.65484 -1.28327e-18)
(24.8788 2.92581 1.30998e-16)
(24.5888 3.15353 -3.302e-14)
(24.2266 3.22232 1.57425e-14)
(23.4199 3.13098 2.96038e-14)
(19.2324 14.658 1.37246e-17)
(19.9176 15.2313 -5.93916e-17)
(20.7255 15.8096 0)
(21.618 16.3525 -3.13757e-16)
(22.5523 16.8175 0)
(23.571 17.219 0)
(24.6443 17.5371 1.70198e-17)
(25.7503 17.7557 -7.16865e-17)
(26.8922 17.8704 -7.23316e-17)
(28.0531 17.8732 1.27969e-16)
(29.2223 17.7571 1.38321e-16)
(30.3933 17.5161 2.41709e-16)
(31.5515 17.145 0)
(32.6829 16.6392 7.021e-16)
(33.7715 15.9966 -2.64539e-16)
(34.7977 15.218 0)
(35.7411 14.3083 7.01769e-16)
(36.5806 13.2768 8.72582e-16)
(37.2954 12.1378 0)
(37.8653 10.9122 8.04845e-16)
(38.2745 9.62533 -7.88966e-16)
(38.5134 8.30782 0)
(38.5798 6.9936 -9.18397e-17)
(38.4806 5.71617 -4.51966e-18)
(38.2311 4.50131 4.24651e-17)
(37.851 3.35997 5.92438e-16)
(37.3602 2.29304 -4.06189e-18)
(36.7723 1.30226 -1.27816e-17)
(36.096 0.392914 -7.56316e-18)
(35.3397 -0.430506 2.0382e-17)
(34.5107 -1.16505 3.65717e-16)
(33.6141 -1.80736 7.61031e-16)
(32.6514 -2.35346 -3.20439e-17)
(31.6238 -2.79755 8.61896e-16)
(30.5154 -3.13226 1.57959e-15)
(29.3382 -3.33149 5.09064e-15)
(27.9765 -3.38233 6.70323e-15)
(26.6791 -3.04928 -2.39239e-16)
(24.8278 -2.6206 1.69289e-14)
(18.6188 14.0618 -1.52966e-16)
(18.0477 13.4317 -5.18172e-16)
(17.4706 12.6738 9.95773e-16)
(16.9006 11.8015 0)
(16.4072 10.8627 1.71526e-15)
(15.9899 9.84635 0)
(15.6716 8.77089 -9.62437e-16)
(15.4712 7.69805 3.85698e-15)
(15.3911 6.66982 -2.96561e-15)
(15.4217 5.69404 0)
(15.5493 4.78579 2.1587e-15)
(15.7595 3.95801 2.16324e-15)
(16.0424 3.20597 0)
(16.3889 2.5254 -2.20476e-15)
(16.7907 1.91605 5.48385e-16)
(17.2428 1.37462 -5.483e-16)
(17.7397 0.900617 5.43193e-16)
(18.2749 0.494702 1.02224e-15)
(18.8427 0.157836 -1.48917e-17)
(19.4366 -0.108892 1.38553e-15)
(20.0495 -0.303688 4.41528e-16)
(20.6739 -0.424642 -4.25664e-16)
(21.3011 -0.469468 -1.57012e-15)
(21.9189 -0.437128 1.4871e-15)
(22.5093 -0.329638 -1.23844e-15)
(23.0545 -0.154218 -1.51876e-15)
(23.5427 0.0774723 -6.43678e-16)
(23.9678 0.353706 -9.5295e-18)
(24.3258 0.663555 8.40904e-17)
(24.6142 0.995891 5.78992e-16)
(24.8315 1.33958 8.2209e-18)
(24.9782 1.6844 -1.50836e-17)
(25.0549 2.02154 4.44969e-15)
(25.0623 2.34258 -4.2863e-15)
(24.9938 2.64039 1.31242e-16)
(24.8497 2.90117 -8.28349e-15)
(24.5736 3.11664 1.58988e-14)
(24.2273 3.17142 0)
(23.496 3.06382 -2.83737e-14)
(19.7986 14.0206 3.09966e-17)
(20.443 14.5484 0)
(21.2021 15.081 0)
(22.0385 15.5806 5.69738e-16)
(22.9102 16.0075 -1.91768e-17)
(23.859 16.3769 0)
(24.8564 16.6703 0)
(25.8816 16.8735 3.73861e-16)
(26.9389 16.9833 -4.29295e-17)
(28.0132 16.9927 -5.02551e-17)
(29.0953 16.8955 -2.78578e-16)
(30.1812 16.6861 -1.56445e-16)
(31.2581 16.3593 2.56188e-16)
(32.3146 15.91 -7.57118e-17)
(33.3371 15.335 0)
(34.3081 14.6335 0)
(35.209 13.808 -1.84203e-15)
(36.0198 12.8655 -3.58399e-16)
(36.7208 11.8172 3.57554e-16)
(37.2919 10.6806 -7.80613e-16)
(37.7167 9.47821 1.45425e-15)
(37.984 8.23802 6.7034e-16)
(38.0897 6.99128 -6.40058e-16)
(38.0377 5.76941 -7.29636e-16)
(37.8393 4.59679 1.10412e-16)
(37.51 3.48494 -5.64698e-16)
(37.0667 2.43782 -6.05383e-17)
(36.5223 1.45994 1.14331e-17)
(35.8858 0.557868 -1.1432e-17)
(35.1654 -0.262516 2.62046e-17)
(34.3686 -0.997014 -4.08503e-17)
(33.5011 -1.64137 -3.56989e-16)
(32.5648 -2.19074 -3.07376e-17)
(31.5615 -2.63839 4.97508e-17)
(30.4768 -2.97618 0)
(29.3215 -3.17605 -4.76221e-15)
(27.9929 -3.22657 -6.23495e-15)
(26.6869 -2.89253 0)
(24.9726 -2.44548 0)
(19.2196 13.4717 0)
(18.6801 12.8921 4.80076e-16)
(18.1317 12.1937 -1.53124e-15)
(17.5869 11.3887 -6.96994e-16)
(17.1117 10.523 -1.59251e-15)
(16.704 9.5844 0)
(16.386 8.58899 0)
(16.1761 7.59571 -1.73142e-15)
(16.0764 6.64374 1.79477e-15)
(16.078 5.73931 0)
(16.1682 4.89592 -9.5327e-16)
(16.3342 4.12551 -1.0115e-15)
(16.5668 3.4227 9.98953e-16)
(16.8584 2.78248 1.03161e-15)
(17.2022 2.20411 -2.00217e-15)
(17.5949 1.68427 0)
(18.0323 1.22253 -4.82707e-16)
(18.5101 0.820177 1.15113e-17)
(19.0235 0.47902 2.27528e-15)
(19.5673 0.201327 -4.42553e-16)
(20.1349 -0.00988508 4.30609e-16)
(20.7192 -0.151767 -3.85143e-16)
(21.3117 -0.221344 5.60456e-16)
(21.9004 -0.21696 -2.99474e-15)
(22.468 -0.139626 -1.18192e-15)
(22.997 0.00514749 1.20423e-15)
(23.475 0.20742 -7.89263e-17)
(23.895 0.456412 0)
(24.252 0.741593 -7.21448e-17)
(24.5425 1.05213 5.26783e-16)
(24.7643 1.377 -1.05617e-15)
(24.9172 1.70584 2.15056e-15)
(25.001 2.02945 -8.57394e-15)
(25.016 2.33895 8.48193e-15)
(24.9558 2.62632 -1.25881e-16)
(24.8203 2.87654 7.8411e-15)
(24.5588 3.07954 2.43791e-16)
(24.2294 3.12187 -4.54873e-16)