/*--------------------------------*- C++ -*----------------------------------*\
| =========                 |                                                 |
| \\      /  F ield         | OpenFOAM: The Open Source CFD Toolbox           |
|  \\    /   O peration     | Version:  3.0.0                                 |
|   \\  /    A nd           | Web:      www.OpenFOAM.org                      |
|    \\/     M anipulation  |                                                 |
\*---------------------------------------------------------------------------*/
FoamFile
{
    version     2.0;
    format      ascii;
    class       volScalarField;
    location    "2.5";
    object      k;
}
// * * * * * * * * * * * * * * * * * * * * * * * * * * * * * * * * * * * * * //

dimensions      [0 2 -2 0 0 0 0];

internalField   nonuniform List<scalar> 
400
(
3.28603e-08
1.54933e-07
2.723e-07
3.82926e-07
5.43169e-07
1.80877e-06
1.78159e-05
0.000100293
0.000273495
0.000347238
0.000365647
0.000367322
0.000338355
0.000304721
0.000264889
0.000222425
0.00017888
0.000136164
9.32903e-05
5.35361e-05
2.32115e-07
2.0389e-06
2.67062e-06
2.85381e-06
4.84536e-06
1.49943e-05
5.19505e-05
0.0001293
0.000196129
0.000221014
0.000232589
0.000250219
0.000269625
0.00029542
0.00030802
0.000319474
0.000323168
0.00031516
0.000284462
0.000271141
1.53152e-06
7.58585e-06
8.82136e-06
9.49744e-06
1.80259e-05
4.22176e-05
8.65452e-05
0.000151383
0.000224041
0.000285337
0.00037591
0.000456185
0.000515626
0.00054305
0.000554028
0.000538325
0.00052691
0.000498752
0.000486769
0.000575016
5.37021e-06
1.72278e-05
1.67772e-05
1.54609e-05
2.69348e-05
6.02036e-05
0.000118353
0.000204244
0.000309753
0.000412213
0.000472961
0.000534253
0.000593394
0.000655783
0.000722769
0.000753172
0.000737303
0.000675749
0.000620274
0.00077216
1.32161e-05
3.47427e-05
2.89357e-05
2.55454e-05
4.48744e-05
9.11018e-05
0.000159243
0.000253216
0.000352617
0.000402056
0.000422832
0.000429466
0.000460147
0.000571215
0.000737508
0.00086693
0.000913628
0.000887428
0.000767743
0.000938174
2.40575e-05
5.92204e-05
4.62461e-05
3.38235e-05
5.26215e-05
0.000103109
0.000175396
0.000271641
0.000334855
0.00034397
0.00029594
0.000263829
0.000263403
0.000358708
0.000597493
0.000903117
0.00106435
0.00108606
0.000910274
0.00106662
3.57679e-05
9.03703e-05
7.66356e-05
4.28306e-05
5.20397e-05
9.99426e-05
0.000170125
0.000261422
0.000302051
0.000297343
0.000243585
0.000191425
0.00018368
0.000260485
0.000508868
0.000887604
0.00119028
0.0012823
0.00106781
0.00118861
4.51969e-05
0.000126373
0.000127239
6.09719e-05
5.26809e-05
8.44678e-05
0.00015051
0.000232923
0.000273183
0.000269019
0.000226772
0.000175677
0.00016267
0.000232166
0.000483078
0.000894234
0.00129059
0.00145466
0.0012284
0.00129772
5.11445e-05
0.00016027
0.000189512
0.000111956
6.49703e-05
7.27592e-05
0.000105205
0.000161187
0.000202168
0.000201672
0.000181002
0.000157354
0.000171099
0.000267854
0.000549826
0.000981321
0.0013897
0.00160697
0.00139646
0.00141445
5.45265e-05
0.000182212
0.00025273
0.000211789
0.000116261
8.41937e-05
9.76599e-05
0.000120858
0.000146013
0.000158399
0.000160383
0.000169387
0.000221114
0.000378974
0.000685683
0.00107728
0.00146806
0.00172489
0.001569
0.00153343
5.55947e-05
0.000192901
0.000309552
0.000310106
0.000250608
0.000160401
0.000130399
0.000135898
0.000151474
0.000168666
0.000188348
0.000238455
0.000361845
0.000563901
0.000820215
0.00115942
0.00151213
0.00180992
0.0017486
0.0016711
5.52362e-05
0.000193764
0.000354143
0.000399427
0.000387505
0.000347979
0.000285966
0.000250783
0.00025164
0.000275368
0.000332684
0.000442246
0.000574939
0.000722832
0.000921032
0.0012037
0.00152725
0.00185896
0.00192689
0.00182533
5.38893e-05
0.000192395
0.000388173
0.00047515
0.000509062
0.000516593
0.000508953
0.000502335
0.000508777
0.00053495
0.00058533
0.000653955
0.000734165
0.000834153
0.000984983
0.00121854
0.00151504
0.00188041
0.00209953
0.00201259
5.15154e-05
0.000188618
0.000413259
0.000538066
0.000610486
0.000655251
0.000682837
0.000701082
0.000717699
0.000737589
0.000763823
0.000797661
0.000841562
0.000906817
0.00101742
0.00120752
0.00146248
0.00188265
0.00225859
0.00223945
4.92503e-05
0.000189279
0.000434954
0.000591478
0.000694743
0.000766027
0.000814388
0.000845244
0.000863788
0.000875134
0.00088489
0.000897709
0.000919212
0.00095941
0.00103715
0.00118942
0.00140768
0.00186037
0.00238832
0.00252812
4.88465e-05
0.000193742
0.000455302
0.000638855
0.00076534
0.000854233
0.000914763
0.000952618
0.000972908
0.000981292
0.000985308
0.000990824
0.00100291
0.00102977
0.00108361
0.00119586
0.00138538
0.00185028
0.00252617
0.0029069
5.22706e-05
0.000208933
0.000488926
0.000690863
0.000836269
0.000942211
0.00101755
0.00106924
0.00110227
0.00112319
0.00113864
0.00115494
0.00117443
0.00120378
0.00124666
0.00133195
0.00147703
0.00192167
0.0027436
0.00343055
6.88511e-05
0.000253458
0.000595328
0.0008392
0.00102236
0.0011631
0.00127117
0.00135738
0.00142472
0.00148371
0.00153478
0.00159059
0.00164259
0.00170989
0.00176964
0.00185997
0.00196925
0.00235048
0.00323816
0.0042237
0.000134689
0.000548657
0.00118371
0.00161624
0.00192929
0.00217304
0.00236661
0.00253984
0.00268123
0.00282262
0.00293648
0.00306788
0.00316884
0.00330311
0.00339455
0.0035243
0.00364762
0.00399685
0.00497918
0.00564807
0.0025521
0.00507548
0.0066308
0.00731757
0.0077412
0.00800543
0.00816752
0.00826371
0.00831252
0.00832746
0.00832124
0.00830783
0.00827306
0.00825926
0.00823056
0.00824483
0.00827986
0.00835845
0.00871245
0.00736586
)
;

boundaryField
{
    movingWall
    {
        type            kqRWallFunction;
        value           nonuniform List<scalar> 
20
(
0.0025521
0.00507548
0.0066308
0.00731757
0.0077412
0.00800543
0.00816752
0.00826371
0.00831252
0.00832746
0.00832124
0.00830783
0.00827306
0.00825926
0.00823056
0.00824483
0.00827986
0.00835845
0.00871245
0.00736586
)
;
    }
    fixedWalls
    {
        type            kqRWallFunction;
        value           nonuniform List<scalar> 
60
(
3.28603e-08
2.32115e-07
1.53152e-06
5.37021e-06
1.32161e-05
2.40575e-05
3.57679e-05
4.51969e-05
5.11445e-05
5.45265e-05
5.55947e-05
5.52362e-05
5.38893e-05
5.15154e-05
4.92503e-05
4.88465e-05
5.22706e-05
6.88511e-05
0.000134689
0.0025521
5.35361e-05
0.000271141
0.000575016
0.00077216
0.000938174
0.00106662
0.00118861
0.00129772
0.00141445
0.00153343
0.0016711
0.00182533
0.00201259
0.00223945
0.00252812
0.0029069
0.00343055
0.0042237
0.00564807
0.00736586
3.28603e-08
1.54933e-07
2.723e-07
3.82926e-07
5.43169e-07
1.80877e-06
1.78159e-05
0.000100293
0.000273495
0.000347238
0.000365647
0.000367322
0.000338355
0.000304721
0.000264889
0.000222425
0.00017888
0.000136164
9.32903e-05
5.35361e-05
)
;
    }
    frontAndBack
    {
        type            empty;
    }
}


// ************************************************************************* //
