/*--------------------------------*- C++ -*----------------------------------*\
| =========                 |                                                 |
| \\      /  F ield         | OpenFOAM: The Open Source CFD Toolbox           |
|  \\    /   O peration     | Version:  3.0.0                                 |
|   \\  /    A nd           | Web:      www.OpenFOAM.org                      |
|    \\/     M anipulation  |                                                 |
\*---------------------------------------------------------------------------*/
FoamFile
{
    version     2.0;
    format      ascii;
    class       volScalarField;
    location    "2.5";
    object      nut;
}
// * * * * * * * * * * * * * * * * * * * * * * * * * * * * * * * * * * * * * //

dimensions      [0 2 -1 0 0 0 0];

internalField   nonuniform List<scalar> 
400
(
2.5672e-10
1.21039e-09
2.12729e-09
2.9915e-09
4.24328e-09
1.41286e-08
1.38955e-07
7.76256e-07
2.08285e-06
2.62622e-06
2.76072e-06
2.77291e-06
2.56086e-06
2.31342e-06
2.01834e-06
1.70145e-06
1.37391e-06
1.05004e-06
7.22341e-07
4.16102e-07
1.81336e-09
6.20061e-08
9.53993e-08
9.60315e-08
1.24179e-07
2.579e-07
7.03438e-07
1.66078e-06
2.73714e-06
4.14055e-06
5.51334e-06
6.93624e-06
8.07388e-06
8.8686e-06
8.32355e-06
7.87472e-06
6.68761e-06
5.21599e-06
3.34718e-06
2.0648e-06
1.19632e-08
3.19061e-07
4.61709e-07
4.00046e-07
5.21119e-07
9.16353e-07
1.751e-06
3.26015e-06
6.78832e-06
1.14589e-05
1.72461e-05
2.20014e-05
2.50143e-05
2.41717e-05
2.21171e-05
1.81933e-05
1.39377e-05
9.5397e-06
5.91138e-06
4.26129e-06
4.19327e-08
7.93756e-07
9.47628e-07
6.60683e-07
8.25523e-07
1.64694e-06
3.25263e-06
7.04546e-06
1.55721e-05
2.50514e-05
3.13393e-05
3.65935e-05
4.07869e-05
4.20994e-05
4.15475e-05
3.61793e-05
2.66586e-05
1.62356e-05
8.42683e-06
5.62646e-06
1.03117e-07
1.66014e-06
1.69815e-06
1.11632e-06
1.554e-06
3.00972e-06
5.68317e-06
1.23922e-05
2.37628e-05
3.13701e-05
3.52726e-05
3.66769e-05
3.93262e-05
4.62308e-05
5.39925e-05
5.23425e-05
4.04321e-05
2.50454e-05
1.14794e-05
6.74253e-06
1.8751e-07
2.8845e-06
2.86024e-06
1.57765e-06
2.07298e-06
3.97882e-06
7.61317e-06
1.68145e-05
2.69834e-05
3.09853e-05
2.78898e-05
2.51706e-05
2.49018e-05
3.26785e-05
5.07287e-05
6.46585e-05
5.55444e-05
3.53926e-05
1.49789e-05
7.5863e-06
2.78471e-07
4.41529e-06
5.11589e-06
2.21283e-06
2.3139e-06
4.39044e-06
8.36104e-06
1.73109e-05
2.53515e-05
2.77624e-05
2.37415e-05
1.88374e-05
1.78219e-05
2.465e-05
4.63511e-05
6.99442e-05
6.80591e-05
4.52243e-05
1.87419e-05
8.37246e-06
3.51565e-07
6.1338e-06
9.35174e-06
3.68496e-06
2.601e-06
4.06186e-06
7.84921e-06
1.51238e-05
2.23224e-05
2.45254e-05
2.1595e-05
1.6809e-05
1.53625e-05
2.18422e-05
4.51843e-05
7.44901e-05
7.86245e-05
5.42125e-05
2.25403e-05
9.06351e-06
3.97604e-07
7.60688e-06
1.53117e-05
8.25472e-06
3.77406e-06
3.82977e-06
5.67978e-06
9.94299e-06
1.49154e-05
1.66902e-05
1.57566e-05
1.39791e-05
1.54546e-05
2.48536e-05
5.19688e-05
8.46313e-05
8.81875e-05
6.16344e-05
2.61757e-05
9.79078e-06
4.23758e-07
8.31694e-06
2.20997e-05
1.8794e-05
8.50932e-06
5.25824e-06
5.74159e-06
7.4989e-06
1.00189e-05
1.19182e-05
1.29056e-05
1.43373e-05
1.95508e-05
3.56359e-05
6.7452e-05
9.70171e-05
9.69325e-05
6.77589e-05
2.96938e-05
1.05197e-05
4.32016e-07
8.25544e-06
2.81638e-05
3.18213e-05
2.31725e-05
1.27879e-05
9.3925e-06
9.29443e-06
1.07547e-05
1.279e-05
1.5334e-05
2.0835e-05
3.44195e-05
5.87274e-05
8.72494e-05
0.000110188
0.000103457
7.21224e-05
3.31465e-05
1.13481e-05
4.29245e-07
7.7232e-06
3.21192e-05
4.5255e-05
4.30077e-05
3.55492e-05
2.66071e-05
2.20619e-05
2.16848e-05
2.43274e-05
3.12652e-05
4.54113e-05
6.42264e-05
8.5384e-05
0.000107271
0.000121385
0.000108508
7.53295e-05
3.66996e-05
1.22579e-05
4.1883e-07
7.23027e-06
3.46214e-05
5.69288e-05
6.4544e-05
6.38448e-05
5.99009e-05
5.69056e-05
5.707e-05
6.10494e-05
6.95055e-05
8.1941e-05
9.64216e-05
0.00011115
0.000125766
0.000130555
0.000111975
7.71197e-05
4.00802e-05
1.3338e-05
4.00469e-07
6.89505e-06
3.58078e-05
6.60022e-05
8.42008e-05
9.26012e-05
9.5755e-05
9.71952e-05
9.95174e-05
0.000103493
0.000109742
0.000117605
0.000125722
0.000133645
0.000139329
0.00013534
0.000111449
7.77063e-05
4.34111e-05
1.46122e-05
3.82942e-07
7.01403e-06
3.72275e-05
7.29046e-05
0.000100081
0.000117481
0.000127712
0.000133637
0.000137409
0.00014034
0.00014294
0.000145238
0.000147236
0.00014816
0.000145741
0.000135354
0.000108487
7.65649e-05
4.51802e-05
1.61832e-05
3.79815e-07
7.52769e-06
3.90884e-05
7.83314e-05
0.000110084
0.000131876
0.000145462
0.000153128
0.000156716
0.000157824
0.000157599
0.000156276
0.000153832
0.000149798
0.000142366
0.000128175
0.000102322
7.24874e-05
4.47429e-05
1.81659e-05
4.06304e-07
8.87021e-06
4.26015e-05
8.16086e-05
0.00011259
0.000133442
0.000145688
0.000152108
0.00015419
0.000153276
0.000150482
0.000146298
0.000141087
0.000134437
0.000125852
0.000112653
9.09151e-05
6.61596e-05
4.42976e-05
2.07749e-05
5.34335e-07
1.075e-05
4.59925e-05
7.63621e-05
9.56118e-05
0.000107082
0.000112819
0.000115086
0.000115143
0.000113673
0.000111447
0.000108586
0.00010547
0.000101737
9.70296e-05
9.06389e-05
7.72023e-05
5.9192e-05
4.30967e-05
2.44734e-05
1.03877e-06
1.69999e-05
4.09462e-05
5.26835e-05
5.87359e-05
6.24776e-05
6.4729e-05
6.618e-05
6.70374e-05
6.75535e-05
6.78123e-05
6.78817e-05
6.78521e-05
6.761e-05
6.68935e-05
6.58906e-05
6.05298e-05
5.07809e-05
4.28268e-05
3.04946e-05
1.63111e-05
2.81591e-05
3.42764e-05
3.67701e-05
3.82543e-05
3.91607e-05
3.97096e-05
4.00329e-05
4.01962e-05
4.02463e-05
4.02256e-05
4.01809e-05
4.00647e-05
4.00186e-05
3.99227e-05
3.99708e-05
4.00885e-05
4.03514e-05
4.15209e-05
3.69421e-05
)
;

boundaryField
{
    movingWall
    {
        type            nutkWallFunction;
        Cmu             0.09;
        kappa           0.41;
        E               9.8;
        value           nonuniform List<scalar> 
20
(
0
0
0
1.25207e-07
3.52752e-07
4.91055e-07
5.74598e-07
6.23718e-07
6.4852e-07
6.56097e-07
6.52942e-07
6.46144e-07
6.28476e-07
6.21456e-07
6.0683e-07
6.14106e-07
6.31938e-07
6.71781e-07
8.48646e-07
1.51525e-07
)
;
    }
    fixedWalls
    {
        type            nutkWallFunction;
        Cmu             0.09;
        kappa           0.41;
        E               9.8;
        value           nonuniform List<scalar> 
60
(
0
0
0
0
0
0
0
0
0
0
0
0
0
0
0
0
0
0
0
0
0
0
0
0
0
0
0
0
0
0
0
0
0
0
0
0
0
0
0
1.51525e-07
0
0
0
0
0
0
0
0
0
0
0
0
0
0
0
0
0
0
0
0
)
;
    }
    frontAndBack
    {
        type            empty;
    }
}


// ************************************************************************* //
