/*--------------------------------*- C++ -*----------------------------------*\
| =========                 |                                                 |
| \\      /  F ield         | OpenFOAM: The Open Source CFD Toolbox           |
|  \\    /   O peration     | Version:  3.0.0                                 |
|   \\  /    A nd           | Web:      www.OpenFOAM.org                      |
|    \\/     M anipulation  |                                                 |
\*---------------------------------------------------------------------------*/
FoamFile
{
    version     2.0;
    format      ascii;
    class       volScalarField;
    location    "2.5";
    object      omega;
}
// * * * * * * * * * * * * * * * * * * * * * * * * * * * * * * * * * * * * * //

dimensions      [0 0 -1 0 0 0 0];

internalField   nonuniform List<scalar> 
400
(
128
128.002
128.003
128.005
128.007
128.022
128.213
129.201
131.308
132.219
132.446
132.468
132.126
131.719
131.241
130.726
130.198
129.675
129.15
128.661
128.003
32.8823
27.9941
29.7174
39.0191
58.1398
73.8522
77.8551
71.6548
53.378
42.1866
36.0741
33.3948
33.3108
37.0058
40.5696
48.3233
60.422
84.9855
131.316
128.019
23.7756
19.1059
23.7409
34.5907
46.0713
49.4261
46.4342
33.0039
24.9009
21.7968
20.7344
20.6132
22.4663
25.0497
29.5892
37.8047
52.2818
82.3444
134.939
128.067
21.7041
17.7044
23.4014
32.6276
36.5548
36.3867
28.9895
19.8915
16.4547
15.0916
14.5997
14.5487
15.577
17.3962
20.8177
27.6572
41.6215
73.607
137.237
128.165
20.9276
17.0395
22.8836
28.8767
30.2692
28.0201
20.4336
14.8391
12.8165
11.9876
11.7094
11.7008
12.3557
13.6594
16.5627
22.5966
35.4327
66.8803
139.143
128.3
20.5306
16.1686
21.4392
25.3845
25.9145
23.0385
16.1551
12.4096
11.1011
10.611
10.4816
10.5776
10.9769
11.7782
13.9675
19.1622
30.686
60.7706
140.598
128.444
20.4676
14.9799
19.3556
22.49
22.7637
20.3473
15.1016
11.9145
10.7103
10.2599
10.162
10.3064
10.5673
10.9785
12.6902
17.4889
28.3543
56.9744
141.967
128.559
20.6028
13.6059
16.5462
20.2541
20.7953
19.1751
15.4011
12.2381
10.969
10.5012
10.4513
10.5887
10.6292
10.6913
12.0047
16.4146
26.8325
54.4978
143.18
128.632
21.0691
12.377
13.5626
17.215
18.9983
18.5226
16.2111
13.5543
12.0833
11.4874
11.2564
11.0711
10.7773
10.5799
11.5953
15.7584
26.0725
53.3496
144.467
128.674
21.9086
11.4359
11.269
13.6627
16.0118
17.0092
16.1168
14.5738
13.2905
12.4274
11.8144
11.3097
10.6346
10.1655
11.1041
15.1452
25.4563
52.8393
145.768
128.687
23.3666
10.9911
9.74522
10.8149
12.5432
13.8833
14.6214
14.0845
13.1874
12.283
11.4449
10.5128
9.60201
9.40081
10.5222
14.6161
25.0951
52.7537
147.258
128.682
25.0886
11.0259
8.82615
9.01013
9.78865
10.7477
11.3673
11.6044
11.3192
10.6407
9.73867
8.95176
8.46567
8.58606
9.91637
14.075
24.6778
52.5045
148.911
128.666
26.6097
11.2119
8.34639
7.88705
8.09139
8.49659
8.8275
8.91496
8.76259
8.42135
7.9808
7.61411
7.50478
7.83185
9.33353
13.5302
24.383
52.3832
150.892
128.638
27.3556
11.541
8.15225
7.25036
7.07605
7.13108
7.21313
7.2118
7.12696
6.96018
6.78256
6.69385
6.78527
7.30233
8.92211
13.1225
24.2277
52.0281
153.259
128.61
26.9858
11.6837
8.11304
6.94182
6.52042
6.37676
6.32494
6.28623
6.2358
6.19066
6.18096
6.24314
6.4755
7.11643
8.78752
12.9756
24.298
52.862
156.218
128.606
25.7372
11.648
8.1558
6.95232
6.47753
6.28867
6.22107
6.20811
6.21765
6.25199
6.3402
6.51949
6.87442
7.61139
9.32983
13.5393
25.5256
56.4597
160.02
128.649
23.5545
11.4767
8.46557
7.42754
7.06085
6.98444
7.02949
7.14879
7.32792
7.56661
7.89444
8.32412
8.95424
9.90582
11.8235
16.2462
29.0461
61.9356
165.13
128.854
23.5775
12.944
10.9897
10.6929
10.8617
11.2673
11.7945
12.3735
13.0524
13.7714
14.6481
15.574
16.8069
18.2381
20.5207
25.5077
39.7095
75.1371
172.583
129.662
32.2741
28.9088
30.6784
32.8468
34.7811
36.5617
38.3777
39.996
41.7834
43.303
45.1945
46.7021
48.8554
50.7456
53.4871
60.2616
78.7077
116.263
185.215
156.464
180.243
193.451
199.008
202.362
204.425
205.682
206.423
206.798
206.912
206.864
206.761
206.492
206.386
206.163
206.272
206.54
207.141
209.833
199.389
)
;

boundaryField
{
    movingWall
    {
        Cmu             0.09;
        kappa           0.41;
        E               9.8;
        beta1           0.075;
        type            omegaWallFunction;
        value           nonuniform List<scalar> 
20
(
156.464
180.243
193.451
199.008
202.362
204.425
205.682
206.423
206.798
206.912
206.864
206.761
206.492
206.386
206.163
206.272
206.54
207.141
209.833
199.389
)
;
    }
    fixedWalls
    {
        Cmu             0.09;
        kappa           0.41;
        E               9.8;
        beta1           0.075;
        type            omegaWallFunction;
        value           nonuniform List<scalar> 
60
(
128
128.003
128.019
128.067
128.165
128.3
128.444
128.559
128.632
128.674
128.687
128.682
128.666
128.638
128.61
128.606
128.649
128.854
129.662
156.464
128.661
131.316
134.939
137.237
139.143
140.598
141.967
143.18
144.467
145.768
147.258
148.911
150.892
153.259
156.218
160.02
165.13
172.583
185.215
199.389
128
128.002
128.003
128.005
128.007
128.022
128.213
129.201
131.308
132.219
132.446
132.468
132.126
131.719
131.241
130.726
130.198
129.675
129.15
128.661
)
;
    }
    frontAndBack
    {
        type            empty;
    }
}


// ************************************************************************* //
