/*--------------------------------*- C++ -*----------------------------------*\
| =========                 |                                                 |
| \\      /  F ield         | OpenFOAM: The Open Source CFD Toolbox           |
|  \\    /   O peration     | Version:  3.0.0                                 |
|   \\  /    A nd           | Web:      www.OpenFOAM.org                      |
|    \\/     M anipulation  |                                                 |
\*---------------------------------------------------------------------------*/
FoamFile
{
    version     2.0;
    format      ascii;
    class       volScalarField;
    location    "2.5";
    object      p;
}
// * * * * * * * * * * * * * * * * * * * * * * * * * * * * * * * * * * * * * //

dimensions      [0 2 -2 0 0 0 0];

internalField   nonuniform List<scalar> 
400
(
3.3337e-07
-2.46734e-05
-8.25663e-05
-0.000173288
-0.000270578
-0.000367855
-0.000345278
-7.31593e-05
-0.000315424
-0.00119725
-0.0020651
-0.00247665
-0.00231979
-0.00165303
-0.000446298
0.00126109
0.00330803
0.00539342
0.00683704
0.00717669
2.84089e-05
4.28398e-06
-5.76553e-05
-0.000165507
-0.00028263
-0.00038113
-0.000536426
-0.000797262
-0.00134395
-0.00216495
-0.00289333
-0.00319203
-0.00301313
-0.00236868
-0.00126712
0.000280693
0.00220139
0.00424969
0.00590986
0.00671162
8.65557e-05
6.81516e-05
8.67817e-06
-0.000120055
-0.000315236
-0.000599433
-0.00106355
-0.00178407
-0.00265898
-0.00355973
-0.00423756
-0.00444655
-0.00416814
-0.00349852
-0.00251049
-0.00120489
0.000392379
0.00223147
0.00411882
0.00521872
0.000119785
0.000102836
3.82821e-05
-0.000117013
-0.000416408
-0.000949173
-0.00179262
-0.00289998
-0.0040819
-0.00499889
-0.00546874
-0.00553327
-0.00518518
-0.004528
-0.00366147
-0.00260001
-0.00134211
0.000172809
0.00194261
0.00305592
7.16252e-05
4.72352e-05
-3.40776e-05
-0.00022587
-0.000664025
-0.00142362
-0.00258282
-0.00396688
-0.00527466
-0.00611864
-0.00650349
-0.00646361
-0.0060408
-0.0053759
-0.00459777
-0.00372831
-0.00274981
-0.00158251
-0.000193626
0.000882443
-8.23493e-05
-0.000121918
-0.000231479
-0.00046574
-0.00101598
-0.00195726
-0.0032722
-0.00478124
-0.00613938
-0.00695983
-0.00730974
-0.00721931
-0.00671599
-0.00600961
-0.00527851
-0.00455163
-0.00379161
-0.00292086
-0.00191953
-0.000974379
-0.000337134
-0.000395788
-0.000537154
-0.000803468
-0.00137647
-0.00240269
-0.00374638
-0.00526742
-0.00664125
-0.00747287
-0.00780789
-0.00767086
-0.00711362
-0.00636304
-0.0056691
-0.00506006
-0.00447141
-0.00383469
-0.00315877
-0.00236511
-0.000650171
-0.000725416
-0.000892924
-0.00117925
-0.00170008
-0.0026755
-0.00394387
-0.00538137
-0.00670163
-0.00752084
-0.00783459
-0.00766807
-0.00709452
-0.00637079
-0.00576114
-0.00528416
-0.00485026
-0.00438086
-0.00394338
-0.00330743
-0.000969249
-0.00105235
-0.00123138
-0.00151479
-0.00196883
-0.00278275
-0.00386604
-0.00509369
-0.0062479
-0.00700094
-0.00728777
-0.00713537
-0.0066428
-0.00605528
-0.00559505
-0.00527075
-0.00497273
-0.00459734
-0.00435547
-0.00383679
-0.00125895
-0.00133515
-0.00150573
-0.00176469
-0.00214539
-0.0027626
-0.00358972
-0.00452535
-0.00541924
-0.00603978
-0.00630681
-0.0062518
-0.00595386
-0.00558735
-0.00530603
-0.00510026
-0.00492102
-0.0045658
-0.00449191
-0.00403119
-0.00149455
-0.00155995
-0.00170024
-0.00191433
-0.00222543
-0.00267416
-0.00326575
-0.00393877
-0.00459528
-0.00509925
-0.00536693
-0.00541288
-0.00529938
-0.00512311
-0.00497659
-0.00485234
-0.00474363
-0.00433847
-0.00445064
-0.00394491
-0.00167509
-0.00172421
-0.0018282
-0.00199344
-0.00223723
-0.00257232
-0.00300271
-0.00349478
-0.00398988
-0.0044069
-0.00466895
-0.00478872
-0.00478506
-0.00472186
-0.00464916
-0.00456313
-0.00447959
-0.00399686
-0.00431196
-0.00361196
-0.00181029
-0.00184062
-0.00190696
-0.0020261
-0.00221681
-0.00248452
-0.00282395
-0.00321172
-0.00360815
-0.00395736
-0.00421651
-0.00435965
-0.00440475
-0.00438843
-0.00434315
-0.00426105
-0.00417352
-0.00357469
-0.0041165
-0.00306972
-0.0019127
-0.00191803
-0.00194655
-0.00202549
-0.00217638
-0.00240293
-0.00269394
-0.00302506
-0.0033628
-0.00366542
-0.00389849
-0.00404256
-0.0041073
-0.00411148
-0.00406705
-0.00396405
-0.00384849
-0.00312969
-0.00384746
-0.00237069
-0.00199181
-0.00196404
-0.00195498
-0.00199773
-0.00211703
-0.00231539
-0.00257643
-0.0028736
-0.00317573
-0.00344907
-0.00366339
-0.00380584
-0.00387944
-0.0038868
-0.00382728
-0.0036842
-0.00351273
-0.00267329
-0.00344413
-0.00156916
-0.00206173
-0.00197931
-0.00192837
-0.00193767
-0.00203229
-0.00221048
-0.00245161
-0.00272802
-0.00300989
-0.0032687
-0.00348139
-0.00363004
-0.00370961
-0.00371406
-0.0036321
-0.00343053
-0.00316047
-0.00216375
-0.00286669
-0.000527852
-0.00212294
-0.00197613
-0.00188944
-0.00185447
-0.00191608
-0.00207061
-0.00229486
-0.00256065
-0.00283874
-0.00309957
-0.00332361
-0.00348911
-0.00358333
-0.00358826
-0.0034828
-0.00319633
-0.00276443
-0.00153166
-0.00187695
0.00176858
-0.00215722
-0.00189933
-0.00181092
-0.00170257
-0.0017263
-0.00186209
-0.00207959
-0.00234732
-0.00263761
-0.00291887
-0.00316955
-0.00336164
-0.00348015
-0.00348832
-0.00335492
-0.00295416
-0.00227271
-0.000630643
0.000313826
0.00784615
-0.00319567
-0.00259573
-0.00217252
-0.00178203
-0.00165467
-0.00171517
-0.0019014
-0.00216159
-0.00246146
-0.00275838
-0.00303307
-0.00324355
-0.00338307
-0.00339037
-0.0032415
-0.00274211
-0.00162666
0.000947817
0.00497721
0.0187726
-0.00107117
0.00109843
0.000523914
-7.86586e-05
-0.000492914
-0.000831164
-0.00118911
-0.00157997
-0.00197953
-0.00236016
-0.00269196
-0.00295703
-0.00310848
-0.00310377
-0.00280185
-0.00207177
-0.000259134
0.00411002
0.0126041
0.0291829
)
;

boundaryField
{
    movingWall
    {
        type            zeroGradient;
    }
    fixedWalls
    {
        type            zeroGradient;
    }
    frontAndBack
    {
        type            empty;
    }
}


// ************************************************************************* //
