/*--------------------------------*- C++ -*----------------------------------*\
| =========                 |                                                 |
| \\      /  F ield         | OpenFOAM: The Open Source CFD Toolbox           |
|  \\    /   O peration     | Version:  3.0.0                                 |
|   \\  /    A nd           | Web:      www.OpenFOAM.org                      |
|    \\/     M anipulation  |                                                 |
\*---------------------------------------------------------------------------*/
FoamFile
{
    version     2.0;
    format      ascii;
    class       surfaceScalarField;
    location    "2.5";
    object      phi;
}
// * * * * * * * * * * * * * * * * * * * * * * * * * * * * * * * * * * * * * //

dimensions      [0 3 -1 0 0 0 0];

internalField   nonuniform List<scalar> 
760
(
2.38126e-08
-2.38452e-08
4.44306e-08
-2.0619e-08
7.66862e-08
-3.22568e-08
9.17928e-08
-1.51078e-08
9.39381e-09
8.2398e-08
-2.95512e-07
3.04905e-07
-1.04109e-06
7.4558e-07
-2.37597e-06
1.33488e-06
-3.89096e-06
1.51499e-06
-4.98786e-06
1.0969e-06
-5.65771e-06
6.69855e-07
-6.06166e-06
4.03951e-07
-6.14947e-06
8.78024e-08
-5.9832e-06
-1.66271e-07
-5.60227e-06
-3.80925e-07
-4.91289e-06
-6.89381e-07
-3.90602e-06
-1.00687e-06
-2.5473e-06
-1.35872e-06
-9.39063e-07
-1.60823e-06
-9.39063e-07
-6.84471e-08
4.46018e-08
-1.93735e-07
1.04669e-07
-3.60918e-07
1.34926e-07
-6.34046e-07
2.58019e-07
-1.18583e-06
6.34185e-07
-2.18765e-06
1.30672e-06
-3.5822e-06
2.14013e-06
-4.81055e-06
2.56323e-06
-5.52541e-06
2.22985e-06
-6.01793e-06
1.58941e-06
-6.41605e-06
1.06798e-06
-6.54923e-06
5.37131e-07
-6.44184e-06
-1.9586e-08
-6.21782e-06
-3.90291e-07
-5.79905e-06
-7.99695e-07
-5.2018e-06
-1.28663e-06
-4.34562e-06
-1.86306e-06
-3.12097e-06
-2.58337e-06
-1.57154e-06
-3.15767e-06
-2.5106e-06
-1.91924e-07
2.36527e-07
-4.96285e-07
4.09029e-07
-8.93625e-07
5.32265e-07
-1.4572e-06
8.21589e-07
-2.30575e-06
1.48274e-06
-3.39972e-06
2.40069e-06
-4.3747e-06
3.11511e-06
-5.0167e-06
3.20522e-06
-5.41372e-06
2.62688e-06
-5.62647e-06
1.80215e-06
-5.67507e-06
1.11657e-06
-5.54763e-06
4.09691e-07
-5.36322e-06
-2.03988e-07
-5.07979e-06
-6.73721e-07
-4.72035e-06
-1.15914e-06
-4.29147e-06
-1.71552e-06
-3.71254e-06
-2.44198e-06
-2.88777e-06
-3.40814e-06
-1.68571e-06
-4.35973e-06
-4.19631e-06
-3.03669e-07
5.40197e-07
-7.44654e-07
8.50016e-07
-1.2827e-06
1.07032e-06
-1.94846e-06
1.48735e-06
-2.78835e-06
2.32263e-06
-3.65474e-06
3.26707e-06
-4.2418e-06
3.70217e-06
-4.58512e-06
3.54854e-06
-4.70273e-06
2.74449e-06
-4.69947e-06
1.79889e-06
-4.59142e-06
1.00853e-06
-4.41449e-06
2.3276e-07
-4.16836e-06
-4.50119e-07
-3.85612e-06
-9.85963e-07
-3.54092e-06
-1.47433e-06
-3.20553e-06
-2.05091e-06
-2.81367e-06
-2.83384e-06
-2.27635e-06
-3.94546e-06
-1.38635e-06
-5.24973e-06
-5.58266e-06
-3.60821e-07
9.01019e-07
-8.53677e-07
1.34287e-06
-1.41767e-06
1.63431e-06
-2.03633e-06
2.106e-06
-2.7216e-06
3.00791e-06
-3.26227e-06
3.80774e-06
-3.56197e-06
4.00187e-06
-3.70392e-06
3.69049e-06
-3.73639e-06
2.77697e-06
-3.72428e-06
1.78677e-06
-3.6234e-06
9.07648e-07
-3.42094e-06
3.0301e-08
-3.1399e-06
-7.31151e-07
-2.82621e-06
-1.29966e-06
-2.55344e-06
-1.7471e-06
-2.30774e-06
-2.29661e-06
-2.0682e-06
-3.07338e-06
-1.77348e-06
-4.24018e-06
-1.10585e-06
-5.91736e-06
-6.68851e-06
-3.51083e-07
1.2521e-06
-8.16364e-07
1.80815e-06
-1.32562e-06
2.14357e-06
-1.82476e-06
2.60515e-06
-2.25427e-06
3.43742e-06
-2.49434e-06
4.04781e-06
-2.62759e-06
4.13512e-06
-2.6972e-06
3.76011e-06
-2.73214e-06
2.81191e-06
-2.73296e-06
1.78758e-06
-2.64893e-06
8.23623e-07
-2.46442e-06
-1.54208e-07
-2.20045e-06
-9.95123e-07
-1.92305e-06
-1.57705e-06
-1.71302e-06
-1.95713e-06
-1.5553e-06
-2.45433e-06
-1.41712e-06
-3.21156e-06
-1.25017e-06
-4.40714e-06
-8.62897e-07
-6.30462e-06
-7.55141e-06
-2.87422e-07
1.53953e-06
-6.65808e-07
2.18654e-06
-1.06024e-06
2.538e-06
-1.39913e-06
2.94404e-06
-1.57661e-06
3.6149e-06
-1.62804e-06
4.09925e-06
-1.62765e-06
4.13472e-06
-1.61623e-06
3.74869e-06
-1.6349e-06
2.83057e-06
-1.62628e-06
1.77897e-06
-1.55033e-06
7.47673e-07
-1.42379e-06
-2.80747e-07
-1.24894e-06
-1.16997e-06
-1.09608e-06
-1.72992e-06
-1.00803e-06
-2.04518e-06
-9.62673e-07
-2.49969e-06
-9.25745e-07
-3.24849e-06
-8.48959e-07
-4.48393e-06
-6.53641e-07
-6.49994e-06
-8.20505e-06
-1.95875e-07
1.7354e-06
-4.58537e-07
2.4492e-06
-7.11108e-07
2.79057e-06
-8.84462e-07
3.11739e-06
-8.62694e-07
3.59313e-06
-7.48593e-07
3.98514e-06
-6.10697e-07
3.99683e-06
-4.83929e-07
3.62192e-06
-4.30432e-07
2.77708e-06
-3.84862e-07
1.7334e-06
-3.14814e-07
6.77625e-07
-2.56321e-07
-3.39239e-07
-2.3876e-07
-1.18753e-06
-3.13479e-07
-1.6552e-06
-4.09952e-07
-1.9487e-06
-4.93303e-07
-2.41633e-06
-5.55447e-07
-3.18635e-06
-5.62636e-07
-4.47674e-06
-4.85888e-07
-6.57669e-06
-8.69094e-06
-1.02419e-07
1.83782e-06
-2.51272e-07
2.59806e-06
-3.70764e-07
2.91006e-06
-4.05477e-07
3.15211e-06
-2.54651e-07
3.44231e-06
1.46908e-08
3.7158e-06
3.21232e-07
3.69029e-06
5.92985e-07
3.35017e-06
7.49325e-07
2.62074e-06
8.22149e-07
1.66057e-06
8.36303e-07
6.63472e-07
7.60603e-07
-2.6354e-07
5.6631e-07
-9.93237e-07
2.84146e-07
-1.37303e-06
3.53005e-08
-1.69986e-06
-1.50582e-07
-2.23045e-06
-2.93645e-07
-3.04328e-06
-3.74763e-07
-4.39562e-06
-3.82421e-07
-6.56903e-06
-9.07336e-06
-2.08336e-08
1.85866e-06
-7.89297e-08
2.65615e-06
-9.54546e-08
2.92659e-06
-2.90226e-08
3.08568e-06
1.78749e-07
3.23454e-06
5.41859e-07
3.35269e-06
9.42572e-07
3.28958e-06
1.31117e-06
2.98157e-06
1.54795e-06
2.38396e-06
1.64045e-06
1.56807e-06
1.5885e-06
7.15426e-07
1.376e-06
-5.10448e-08
1.01254e-06
-6.29774e-07
6.32304e-07
-9.92798e-07
3.31929e-07
-1.39948e-06
9.24036e-08
-1.99093e-06
-9.92999e-08
-2.85158e-06
-2.32094e-07
-4.26283e-06
-2.91293e-07
-6.50983e-06
-9.36465e-06
3.41643e-08
1.82449e-06
4.40881e-08
2.64623e-06
9.48232e-08
2.87586e-06
2.12544e-07
2.96796e-06
4.34696e-07
3.01239e-06
7.79081e-07
3.00831e-06
1.18044e-06
2.88822e-06
1.55916e-06
2.60285e-06
1.8167e-06
2.12642e-06
1.8944e-06
1.49037e-06
1.796e-06
8.13832e-07
1.53176e-06
2.13192e-07
1.15629e-06
-2.54306e-07
8.08828e-07
-6.45331e-07
5.18993e-07
-1.10965e-06
2.64336e-07
-1.73627e-06
4.13874e-08
-2.62863e-06
-1.44346e-07
-4.07709e-06
-2.61373e-07
-6.39281e-06
-9.62602e-06
6.65282e-08
1.75797e-06
1.23274e-07
2.58949e-06
2.17056e-07
2.78207e-06
3.65714e-07
2.8193e-06
5.82963e-07
2.79514e-06
8.74086e-07
2.71719e-06
1.20623e-06
2.55607e-06
1.52227e-06
2.28682e-06
1.7509e-06
1.89779e-06
1.82102e-06
1.42025e-06
1.72523e-06
9.09626e-07
1.49333e-06
4.45087e-07
1.20391e-06
3.51116e-08
9.21053e-07
-3.62471e-07
6.52049e-07
-8.40644e-07
3.90347e-07
-1.47457e-06
1.38648e-07
-2.37693e-06
-7.64785e-08
-3.86196e-06
-2.21254e-07
-6.24803e-06
-9.84728e-06
8.04637e-08
1.6775e-06
1.66593e-07
2.50336e-06
2.9126e-07
2.65741e-06
4.59139e-07
2.65142e-06
6.71694e-07
2.58258e-06
9.23502e-07
2.46538e-06
1.1906e-06
2.28898e-06
1.43427e-06
2.04315e-06
1.60523e-06
1.72682e-06
1.66655e-06
1.35893e-06
1.60494e-06
9.7123e-07
1.45062e-06
5.99408e-07
1.24211e-06
2.43625e-07
1.01184e-06
-1.32205e-07
7.64758e-07
-5.93559e-07
5.01808e-07
-1.21162e-06
2.3139e-07
-2.10651e-06
-2.81249e-08
-3.60245e-06
-1.9382e-07
-6.08234e-06
-1.00411e-05
7.76868e-08
1.59982e-06
1.83514e-07
2.39753e-06
3.31971e-07
2.50895e-06
5.16371e-07
2.46702e-06
7.28893e-07
2.37006e-06
9.58739e-07
2.23553e-06
1.18621e-06
2.0615e-06
1.38488e-06
1.84448e-06
1.52516e-06
1.58654e-06
1.58571e-06
1.29837e-06
1.55986e-06
9.97084e-07
1.46068e-06
6.98584e-07
1.3081e-06
3.9621e-07
1.1164e-06
5.94948e-08
8.87821e-07
-3.6498e-07
6.25654e-07
-9.49449e-07
3.40916e-07
-1.82177e-06
5.58661e-08
-3.3174e-06
-9.69735e-08
-5.9295e-06
-1.01381e-05
4.82272e-08
1.55159e-06
1.68263e-07
2.27749e-06
3.42204e-07
2.33501e-06
5.47045e-07
2.26218e-06
7.67325e-07
2.14978e-06
9.90402e-07
2.01246e-06
1.20109e-06
1.85081e-06
1.38168e-06
1.6639e-06
1.51452e-06
1.4537e-06
1.58652e-06
1.22638e-06
1.59151e-06
9.92089e-07
1.53415e-06
7.55945e-07
1.42307e-06
5.07292e-07
1.26247e-06
2.2009e-07
1.0497e-06
-1.52209e-07
7.88201e-07
-6.87948e-07
4.90412e-07
-1.52398e-06
2.00111e-07
-3.0271e-06
2.76346e-08
-5.75702e-06
-1.01104e-05
6.41878e-09
1.54517e-06
1.39341e-07
2.14457e-06
3.34552e-07
2.1398e-06
5.59689e-07
2.03704e-06
7.95111e-07
1.91436e-06
1.02688e-06
1.78068e-06
1.24227e-06
1.63543e-06
1.42834e-06
1.47783e-06
1.57292e-06
1.30911e-06
1.66645e-06
1.13285e-06
1.70458e-06
9.53957e-07
1.68872e-06
7.71813e-07
1.61748e-06
5.78526e-07
1.48893e-06
3.48642e-07
1.295e-06
4.17224e-08
1.03675e-06
-4.29697e-07
7.23754e-07
-1.21099e-06
3.96259e-07
-2.6996e-06
1.51969e-07
-5.51273e-06
-9.95847e-06
-1.46338e-07
1.69151e-06
9.53756e-09
1.9887e-06
2.63292e-07
1.88604e-06
5.43243e-07
1.75709e-06
8.22119e-07
1.63548e-06
1.0898e-06
1.51301e-06
1.33727e-06
1.38795e-06
1.55582e-06
1.25929e-06
1.7356e-06
1.12933e-06
1.86959e-06
9.98851e-07
1.95309e-06
8.70458e-07
1.98584e-06
7.39069e-07
1.96248e-06
6.01886e-07
1.87806e-06
4.3306e-07
1.71585e-06
2.03928e-07
1.47607e-06
-1.89918e-07
1.1358e-06
-8.70718e-07
7.17084e-07
-2.28089e-06
3.1858e-07
-5.11423e-06
-9.63989e-06
-2.76914e-07
1.96842e-06
-3.74716e-08
1.74925e-06
2.74114e-07
1.57446e-06
6.21617e-07
1.40958e-06
9.71949e-07
1.28515e-06
1.30997e-06
1.17498e-06
1.62437e-06
1.07355e-06
1.90727e-06
9.76389e-07
2.14986e-06
8.86742e-07
2.35098e-06
7.97726e-07
2.50533e-06
7.16116e-07
2.61507e-06
6.29322e-07
2.66967e-06
5.47285e-07
2.66491e-06
4.37829e-07
2.56919e-06
2.99643e-07
2.39476e-06
-1.54861e-08
2.03585e-06
-5.11813e-07
1.5057e-06
-1.75073e-06
7.3756e-07
-4.34609e-06
-8.90233e-06
-2.88284e-07
2.2567e-06
6.97525e-08
1.39122e-06
6.28943e-07
1.01527e-06
1.19356e-06
8.44966e-07
1.72039e-06
7.58326e-07
2.20956e-06
6.8581e-07
2.65805e-06
6.25056e-07
3.0684e-06
5.66037e-07
3.4323e-06
5.22844e-07
3.75929e-06
4.70738e-07
4.03556e-06
4.39849e-07
4.27941e-06
3.85473e-07
4.46471e-06
3.61976e-07
4.62062e-06
2.81925e-07
4.68656e-06
2.33698e-07
4.62689e-06
4.4184e-08
4.37731e-06
-2.62233e-07
3.75573e-06
-1.12915e-06
2.20259e-06
-2.79294e-06
-6.69974e-06
2.2567e-06
3.64792e-06
4.66319e-06
5.50815e-06
6.26648e-06
6.95229e-06
7.57735e-06
8.14338e-06
8.66623e-06
9.13696e-06
9.57681e-06
9.96229e-06
1.03243e-05
1.06062e-05
1.08399e-05
1.08841e-05
1.06218e-05
9.49268e-06
6.69974e-06
)
;

boundaryField
{
    movingWall
    {
        type            calculated;
        value           uniform 0;
    }
    fixedWalls
    {
        type            calculated;
        value           uniform 0;
    }
    frontAndBack
    {
        type            empty;
        value           nonuniform 0();
    }
}


// ************************************************************************* //
