/*--------------------------------*- C++ -*----------------------------------*\
| =========                 |                                                 |
| \\      /  F ield         | OpenFOAM: The Open Source CFD Toolbox           |
|  \\    /   O peration     | Version:  3.0.0                                 |
|   \\  /    A nd           | Web:      www.OpenFOAM.org                      |
|    \\/     M anipulation  |                                                 |
\*---------------------------------------------------------------------------*/
FoamFile
{
    version     2.0;
    format      ascii;
    class       volVectorField;
    location    "2.5";
    object      U;
}
// * * * * * * * * * * * * * * * * * * * * * * * * * * * * * * * * * * * * * //

dimensions      [0 1 -1 0 0 0 0];

internalField   nonuniform List<vector> 
400
(
(0.000331211 -0.000583689 0)
(0.000663658 -0.000789202 0)
(0.00114664 -0.00109965 0)
(0.00178547 -0.00125639 0)
(0.00181224 -0.00109076 0)
(-0.00158054 -0.000651179 0)
(-0.0110836 0.00114321 0)
(-0.0272369 0.00828953 0)
(-0.0645286 0.0178557 0)
(-0.0955519 0.0128008 0)
(-0.109711 0.00760573 0)
(-0.119601 0.00602424 0)
(-0.123289 0.00236692 0)
(-0.122652 -0.00106679 0)
(-0.116052 -0.00311246 0)
(-0.105117 -0.00696307 0)
(-0.0869961 -0.00987935 0)
(-0.0630305 -0.0118953 0)
(-0.0345109 -0.0141174 0)
(-0.0066274 -0.00323128 0)
(-0.000289934 -0.000344575 0)
(-0.00232079 -3.40768e-05 0)
(-0.00519939 -0.000215075 0)
(-0.00935896 0.000576782 0)
(-0.0164192 0.00450012 0)
(-0.0305389 0.0137608 0)
(-0.0565045 0.0299974 0)
(-0.0850072 0.0425813 0)
(-0.105305 0.0383839 0)
(-0.11851 0.0279223 0)
(-0.126708 0.0172915 0)
(-0.132215 0.00913449 0)
(-0.130496 0.000545718 0)
(-0.127616 -0.00652428 0)
(-0.120349 -0.0137155 0)
(-0.109736 -0.0229203 0)
(-0.0947579 -0.0329413 0)
(-0.0734967 -0.0447196 0)
(-0.0467118 -0.0502988 0)
(-0.0162067 -0.0312822 0)
(-0.00118821 0.00235689 0)
(-0.00624761 0.00458796 0)
(-0.0131125 0.00606669 0)
(-0.022345 0.0103348 0)
(-0.0357154 0.0215383 0)
(-0.055238 0.0385062 0)
(-0.0792858 0.0544977 0)
(-0.0956752 0.0586079 0)
(-0.106281 0.048995 0)
(-0.112929 0.0330977 0)
(-0.115023 0.0222883 0)
(-0.113234 0.00975216 0)
(-0.108474 -0.00177187 0)
(-0.104608 -0.0109519 0)
(-0.0977729 -0.0208386 0)
(-0.090318 -0.032008 0)
(-0.0801223 -0.046346 0)
(-0.065576 -0.0645112 0)
(-0.0438692 -0.0808538 0)
(-0.0205485 -0.0727337 0)
(-0.00209906 0.00756742 0)
(-0.00972911 0.0123874 0)
(-0.0194024 0.0159309 0)
(-0.0311188 0.0233819 0)
(-0.0455658 0.0388171 0)
(-0.064591 0.0578674 0)
(-0.0804957 0.068965 0)
(-0.0905796 0.0673696 0)
(-0.0961102 0.0531422 0)
(-0.0951198 0.0361736 0)
(-0.0934188 0.0211267 0)
(-0.0903978 0.00642404 0)
(-0.0855391 -0.00634251 0)
(-0.0798506 -0.0166751 0)
(-0.0736993 -0.0266636 0)
(-0.0677344 -0.0382783 0)
(-0.0609321 -0.053886 0)
(-0.0513418 -0.0756011 0)
(-0.0344609 -0.0981761 0)
(-0.0180905 -0.10124 0)
(-0.00261815 0.0143206 0)
(-0.0115019 0.0218421 0)
(-0.0219503 0.0270278 0)
(-0.0334689 0.0361483 0)
(-0.0463643 0.0536337 0)
(-0.0613087 0.0717505 0)
(-0.0692476 0.077146 0)
(-0.0757108 0.0718963 0)
(-0.0764544 0.0548154 0)
(-0.0749617 0.0355812 0)
(-0.0740554 0.0188649 0)
(-0.0705747 0.00254191 0)
(-0.0651143 -0.0119353 0)
(-0.0589664 -0.0231716 0)
(-0.0534055 -0.0328146 0)
(-0.04868 -0.0442685 0)
(-0.0442994 -0.0601214 0)
(-0.0388261 -0.0837877 0)
(-0.0287398 -0.11548 0)
(-0.0119454 -0.126006 0)
(-0.00254846 0.0214619 0)
(-0.0112678 0.0314713 0)
(-0.0208017 0.0378027 0)
(-0.0306664 0.0473524 0)
(-0.0407598 0.0653619 0)
(-0.0488924 0.0791322 0)
(-0.0517083 0.081485 0)
(-0.0557632 0.0743341 0)
(-0.055758 0.0553661 0)
(-0.0548032 0.0350935 0)
(-0.0543918 0.0166194 0)
(-0.0511462 -0.0016806 0)
(-0.0459026 -0.0181286 0)
(-0.0401719 -0.0296455 0)
(-0.0359168 -0.0376047 0)
(-0.0326973 -0.0478239 0)
(-0.030102 -0.0628526 0)
(-0.0267834 -0.0861074 0)
(-0.0218018 -0.122719 0)
(-0.00923026 -0.143707 0)
(-0.00196052 0.0279348 0)
(-0.00941363 0.0400226 0)
(-0.0168681 0.0469786 0)
(-0.0242267 0.0557002 0)
(-0.0299743 0.0712634 0)
(-0.033112 0.0819979 0)
(-0.0331044 0.0831778 0)
(-0.0340136 0.075367 0)
(-0.0336129 0.0563426 0)
(-0.0328117 0.0351856 0)
(-0.0321414 0.0150095 0)
(-0.0295453 -0.00498416 0)
(-0.0257233 -0.0229156 0)
(-0.0222334 -0.0343375 0)
(-0.0208574 -0.0408805 0)
(-0.0198128 -0.0500991 0)
(-0.0191942 -0.0650656 0)
(-0.0177743 -0.0894578 0)
(-0.0168529 -0.128633 0)
(-0.00617199 -0.158276 0)
(-0.00108185 0.0328632 0)
(-0.00667408 0.046593 0)
(-0.0115689 0.0536246 0)
(-0.0160255 0.0609387 0)
(-0.0177531 0.0724295 0)
(-0.0166871 0.0816957 0)
(-0.0143241 0.0823916 0)
(-0.0115016 0.0749894 0)
(-0.00954829 0.0570674 0)
(-0.00817334 0.0356143 0)
(-0.00695797 0.0142263 0)
(-0.00543008 -0.00654766 0)
(-0.00391062 -0.0239245 0)
(-0.0046963 -0.0341013 0)
(-0.0075253 -0.0401688 0)
(-0.00934695 -0.0493485 0)
(-0.0108668 -0.0644077 0)
(-0.0109143 -0.0893997 0)
(-0.0127763 -0.130319 0)
(-0.00409049 -0.168666 0)
(-0.000216931 0.0359284 0)
(-0.0037883 0.0507986 0)
(-0.00632393 0.0574682 0)
(-0.008022 0.0631802 0)
(-0.00722929 0.070658 0)
(-0.00268819 0.077891 0)
(0.00310899 0.0784834 0)
(0.00880117 0.071897 0)
(0.0131134 0.056401 0)
(0.0156804 0.0358692 0)
(0.0169062 0.0143941 0)
(0.0169998 -0.00616958 0)
(0.0150186 -0.021756 0)
(0.00907876 -0.0302545 0)
(0.00260795 -0.0364527 0)
(-0.00146889 -0.0465604 0)
(-0.00494248 -0.0624321 0)
(-0.00600929 -0.0888597 0)
(-0.0103917 -0.13145 0)
(-0.00267491 -0.177487 0)
(0.000524263 0.0372622 0)
(-0.00128148 0.0528961 0)
(-0.00196347 0.0588192 0)
(-0.00165114 0.0628421 0)
(0.000741395 0.067122 0)
(0.00658811 0.0711375 0)
(0.0144008 0.0707971 0)
(0.0221782 0.0647905 0)
(0.0284127 0.0518276 0)
(0.032052 0.0339089 0)
(0.0330618 0.0145428 0)
(0.031124 -0.00325476 0)
(0.0252232 -0.0161081 0)
(0.0165408 -0.0232683 0)
(0.0090014 -0.0307961 0)
(0.00403764 -0.0421901 0)
(-0.000839726 -0.0589682 0)
(-0.00232168 -0.086456 0)
(-0.00850087 -0.130258 0)
(-0.00110324 -0.183974 0)
(0.000858976 0.0369732 0)
(0.000566334 0.0533268 0)
(0.00116856 0.0583676 0)
(0.00275947 0.0608541 0)
(0.00595991 0.0626407 0)
(0.0115963 0.0635491 0)
(0.01921 0.0616756 0)
(0.027224 0.0557823 0)
(0.0339394 0.0451396 0)
(0.0376921 0.0303497 0)
(0.0377261 0.0152476 0)
(0.0344987 0.00145916 0)
(0.0274836 -0.00849407 0)
(0.0195234 -0.0160664 0)
(0.0129253 -0.0249513 0)
(0.00780249 -0.0372456 0)
(0.00187136 -0.0548391 0)
(0.00055247 -0.0834636 0)
(-0.00798984 -0.129054 0)
(-0.000198164 -0.189873 0)
(0.000998213 0.0360639 0)
(0.00172621 0.0526126 0)
(0.00323138 0.0568165 0)
(0.00557945 0.0580484 0)
(0.00913404 0.0581129 0)
(0.0142149 0.0570188 0)
(0.020564 0.0539301 0)
(0.0272784 0.048196 0)
(0.0329957 0.0394791 0)
(0.036392 0.0287097 0)
(0.0363154 0.0168858 0)
(0.0328024 0.00667521 0)
(0.0272744 -0.00183569 0)
(0.0212507 -0.00982926 0)
(0.0156089 -0.0193686 0)
(0.0105508 -0.0320721 0)
(0.00389172 -0.0500833 0)
(0.00327401 -0.0793802 0)
(-0.00791704 -0.126265 0)
(0.00168161 -0.194359 0)
(0.000952628 0.0344679 0)
(0.00233008 0.051093 0)
(0.00446242 0.0545484 0)
(0.00732548 0.0548128 0)
(0.0110786 0.0537746 0)
(0.0157546 0.0516541 0)
(0.0210568 0.0480882 0)
(0.0263439 0.0428007 0)
(0.0307084 0.0357541 0)
(0.0332042 0.0274541 0)
(0.0332683 0.0188148 0)
(0.0310036 0.0106512 0)
(0.0272006 0.00305848 0)
(0.0226449 -0.004752 0)
(0.017808 -0.0142352 0)
(0.012923 -0.0268367 0)
(0.00569499 -0.0448872 0)
(0.00597622 -0.0747119 0)
(-0.00839607 -0.123807 0)
(0.00371176 -0.198562 0)
(0.000767368 0.0328602 0)
(0.00247493 0.0491574 0)
(0.0050627 0.0518159 0)
(0.00836413 0.051285 0)
(0.0123132 0.0495433 0)
(0.0167829 0.0469205 0)
(0.0214537 0.043327 0)
(0.0258422 0.0386573 0)
(0.0293678 0.0329555 0)
(0.0314693 0.0265105 0)
(0.0318695 0.0197768 0)
(0.030552 0.0131544 0)
(0.0279479 0.00659241 0)
(0.0244243 -0.000567955 0)
(0.0201961 -0.00949092 0)
(0.0155064 -0.0215846 0)
(0.0078022 -0.039344 0)
(0.00904793 -0.0693049 0)
(-0.00876504 -0.120213 0)
(0.00748951 -0.202111 0)
(0.000197912 0.0314349 0)
(0.00192131 0.046752 0)
(0.00502489 0.0485087 0)
(0.00882329 0.0473668 0)
(0.0130692 0.0452297 0)
(0.0175476 0.0424542 0)
(0.0219616 0.0390572 0)
(0.0259626 0.0350132 0)
(0.0291802 0.0303689 0)
(0.0312869 0.0252732 0)
(0.0321194 0.0199871 0)
(0.0315449 0.0147008 0)
(0.0298271 0.00920334 0)
(0.0270895 0.00294017 0)
(0.0233449 -0.00508089 0)
(0.0188638 -0.016361 0)
(0.0107143 -0.0335671 0)
(0.0129047 -0.0637026 0)
(-0.00880987 -0.117437 0)
(0.0120988 -0.205821 0)
(-0.000695522 0.0307508 0)
(0.00106319 0.0445861 0)
(0.00466369 0.0451106 0)
(0.00887691 0.0431657 0)
(0.0134979 0.0407223 0)
(0.0182185 0.0379636 0)
(0.0227532 0.0348751 0)
(0.0268325 0.031436 0)
(0.0302016 0.0276786 0)
(0.032637 0.0236924 0)
(0.0339557 0.0196061 0)
(0.0342016 0.015443 0)
(0.0333193 0.0110298 0)
(0.031335 0.0058399 0)
(0.0280894 -0.00100605 0)
(0.0239214 -0.0111902 0)
(0.0153524 -0.0275423 0)
(0.018513 -0.0578645 0)
(-0.00837377 -0.11503 0)
(0.01839 -0.208955 0)
(-0.00280377 0.0307799 0)
(-0.00236788 0.0405078 0)
(0.00272598 0.0401529 0)
(0.0080646 0.0380132 0)
(0.0136427 0.0356436 0)
(0.0191429 0.0331223 0)
(0.0243409 0.0304406 0)
(0.0290436 0.0275898 0)
(0.0330809 0.0245976 0)
(0.0362697 0.0215365 0)
(0.0384336 0.0184781 0)
(0.0396332 0.0153494 0)
(0.0397214 0.0120329 0)
(0.0386859 0.00802303 0)
(0.0361276 0.00259514 0)
(0.0326682 -0.006125 0)
(0.0238538 -0.0211846 0)
(0.0274694 -0.0510948 0)
(-0.0069839 -0.111054 0)
(0.0264771 -0.207428 0)
(-0.00525782 0.0415586 0)
(-0.00455333 0.0431202 0)
(0.00271076 0.0380332 0)
(0.00886357 0.0338324 0)
(0.0158867 0.0306869 0)
(0.0228462 0.0279775 0)
(0.0294107 0.0254863 0)
(0.0354404 0.0230897 0)
(0.0407067 0.0208058 0)
(0.0451859 0.0185554 0)
(0.0487197 0.0164019 0)
(0.0514134 0.0141979 0)
(0.0529953 0.0119673 0)
(0.053621 0.00918808 0)
(0.0523015 0.00552384 0)
(0.050401 -0.00129271 0)
(0.0422943 -0.013972 0)
(0.0449865 -0.0424022 0)
(0.00202782 -0.10097 0)
(0.0413395 -0.188143 0)
(-0.00411633 0.0263287 0)
(-0.00561625 0.0153116 0)
(0.0080348 0.0161893 0)
(0.0181956 0.0167325 0)
(0.0290773 0.0167836 0)
(0.0393432 0.0161988 0)
(0.0487086 0.015317 0)
(0.0573935 0.0143031 0)
(0.0650596 0.0133212 0)
(0.0721024 0.0122706 0)
(0.0779737 0.0112945 0)
(0.0833927 0.010192 0)
(0.0873348 0.00913436 0)
(0.0910708 0.00754316 0)
(0.0924358 0.00541292 0)
(0.0934102 0.000314757 0)
(0.0875568 -0.00823453 0)
(0.0875567 -0.0312476 0)
(0.0425879 -0.0757579 0)
(0.0754468 -0.142478 0)
(0.0491234 0.076885 0)
(0.0534593 0.0537531 0)
(0.0817563 0.0342126 0)
(0.102721 0.0238975 0)
(0.118828 0.0186313 0)
(0.132931 0.0152595 0)
(0.145378 0.0130074 0)
(0.157486 0.0111047 0)
(0.16795 0.00995178 0)
(0.178359 0.00855315 0)
(0.186893 0.00807334 0)
(0.195603 0.00673981 0)
(0.202332 0.00681766 0)
(0.208969 0.00510968 0)
(0.21368 0.00560121 0)
(0.216886 0.00235757 0)
(0.214562 0.000397697 0)
(0.205341 -0.00572868 0)
(0.162021 -0.0166052 0)
(0.152338 -0.095795 0)
)
;

boundaryField
{
    movingWall
    {
        type            fixedValue;
        value           uniform (1 0 0);
    }
    fixedWalls
    {
        type            fixedValue;
        value           uniform (0 0 0);
    }
    frontAndBack
    {
        type            empty;
    }
}


// ************************************************************************* //
