/*--------------------------------*- C++ -*----------------------------------*\
| =========                 |                                                 |
| \\      /  F ield         | OpenFOAM: The Open Source CFD Toolbox           |
|  \\    /   O peration     | Version:  3.0.0                                 |
|   \\  /    A nd           | Web:      www.OpenFOAM.org                      |
|    \\/     M anipulation  |                                                 |
\*---------------------------------------------------------------------------*/
FoamFile
{
    version     2.0;
    format      ascii;
    class       surfaceScalarField;
    location    "0.01";
    object      phi;
}
// * * * * * * * * * * * * * * * * * * * * * * * * * * * * * * * * * * * * * //

dimensions      [1 0 -1 0 0 0 0];

internalField   nonuniform List<scalar> 
999
(
5.68434e-13
7.95808e-13
7.38964e-13
1.02318e-12
1.19371e-12
1.36424e-12
1.64846e-12
1.13687e-12
6.25278e-13
1.02318e-12
1.08002e-12
1.25056e-12
1.76215e-12
2.21689e-12
2.50111e-12
2.95586e-12
2.16005e-12
2.27374e-12
3.06954e-12
5.00222e-12
7.90124e-12
1.14824e-11
1.69393e-11
2.5409e-11
3.93356e-11
6.05382e-11
9.46443e-11
1.48873e-10
2.34365e-10
3.66981e-10
5.74914e-10
8.9824e-10
1.39852e-09
2.17136e-09
3.35888e-09
5.18168e-09
7.96717e-09
1.22096e-08
1.86473e-08
2.8381e-08
4.30496e-08
6.50741e-08
9.80271e-08
1.47152e-07
2.20117e-07
3.281e-07
4.87317e-07
7.21209e-07
1.06352e-06
1.56261e-06
2.28755e-06
3.33651e-06
4.84848e-06
7.01939e-06
1.01243e-05
1.45474e-05
2.08235e-05
2.96933e-05
4.21782e-05
5.968e-05
8.41142e-05
0.000118086
0.000165121
0.000229968
0.000318996
0.000440695
0.00060634
0.000830816
0.00113368
0.0015405
0.00208449
0.00280863
0.00376817
0.00503377
0.00669527
0.00886627
0.0116895
0.0153433
0.0200491
0.02608
0.0337708
0.0435293
0.0558487
0.0713216
0.0906545
0.114684
0.144395
0.180932
0.225625
0.279994
0.345774
0.424919
0.519616
0.632284
0.765579
0.922387
1.10581
1.31914
1.56584
1.84952
2.17387
2.54264
2.95956
3.42833
3.95249
4.53546
5.18038
5.89014
6.66729
7.51403
8.43215
9.42301
10.4876
11.6263
12.8393
14.1262
15.4863
16.9184
18.4212
19.9928
21.6313
23.3345
25.0998
26.9247
28.8066
30.7427
32.7301
34.7662
36.848
38.9728
41.138
43.3407
45.5785
47.8489
50.1494
52.4778
54.8318
57.2094
59.6085
62.0273
64.4641
66.917
69.3845
71.8652
74.3575
76.8603
79.3722
81.8921
84.4188
86.9514
89.489
92.0305
94.5752
97.1223
99.671
102.221
104.771
107.32
109.869
112.416
114.962
117.505
120.045
122.582
125.115
127.644
130.169
132.689
135.204
137.713
140.217
142.716
145.207
147.693
150.172
152.644
155.109
157.567
160.017
162.46
164.895
167.322
169.741
172.152
174.555
176.949
179.335
181.711
184.079
186.439
188.789
191.13
193.462
195.784
198.098
200.402
202.696
204.981
207.256
209.522
211.778
214.024
216.261
218.487
220.704
222.911
225.108
227.295
229.472
231.639
233.796
235.943
238.08
240.207
242.324
244.43
246.527
248.613
250.689
252.755
254.811
256.856
258.892
260.917
262.932
264.937
266.932
268.916
270.89
272.855
274.809
276.753
278.686
280.61
282.523
284.427
286.32
288.203
290.076
291.939
293.792
295.635
297.467
299.29
301.103
302.906
304.698
306.481
308.254
310.017
311.77
313.513
315.246
316.969
318.683
320.386
322.08
323.764
325.438
327.103
328.758
330.403
332.038
333.664
335.28
336.886
338.483
340.07
341.648
343.216
344.774
346.323
347.863
349.393
350.914
352.425
353.927
355.419
356.903
358.376
359.841
361.296
362.742
364.179
365.607
367.025
368.435
369.835
371.226
372.608
373.981
375.345
376.7
378.046
379.383
380.711
382.03
383.34
384.642
385.934
387.218
388.493
389.759
391.017
392.266
393.506
394.737
395.96
397.174
398.38
399.577
400.765
401.945
403.117
404.28
405.435
406.581
407.719
408.848
409.969
411.083
412.186
413.284
414.369
415.453
416.52
417.59
418.637
419.693
420.724
421.763
422.781
423.797
424.807
425.799
426.802
427.771
428.761
429.716
430.684
431.633
432.576
433.516
434.44
435.365
436.277
437.181
438.081
438.97
439.853
440.729
441.596
442.457
443.309
444.154
444.992
445.822
446.645
447.461
448.269
449.07
449.864
450.65
451.429
452.201
452.966
453.723
454.474
455.217
455.953
456.682
457.404
458.119
458.827
459.528
460.222
460.909
461.589
462.262
462.929
463.588
464.241
464.887
465.526
466.158
466.784
467.403
468.015
468.621
469.219
469.812
470.397
470.976
471.549
472.115
472.674
473.227
473.774
474.314
474.848
475.375
475.896
476.41
476.918
477.42
477.916
478.405
478.888
479.365
479.835
480.3
480.758
481.21
481.656
482.095
482.529
482.957
483.378
483.793
484.203
484.606
485.004
485.395
485.781
486.161
486.534
486.902
487.264
487.62
487.97
488.315
488.653
488.986
489.313
489.635
489.95
490.26
490.564
490.863
491.156
491.443
491.724
492
492.27
492.535
492.794
493.047
493.295
493.538
493.775
494.006
494.232
494.452
494.667
494.877
495.081
495.279
495.472
495.66
495.842
496.019
496.191
496.357
496.518
496.674
496.825
496.97
497.11
497.245
497.374
497.499
497.618
497.732
497.842
497.946
498.046
498.14
498.23
498.315
498.395
498.471
498.542
498.609
498.672
498.73
498.784
498.835
498.881
498.924
498.963
498.999
499.031
499.061
499.087
499.111
499.132
499.15
499.167
499.181
499.194
499.204
499.213
499.221
499.228
499.233
499.237
499.241
499.243
499.246
499.247
499.248
499.249
499.249
499.249
499.249
499.249
499.248
499.247
499.247
499.246
499.245
499.244
499.243
499.242
499.241
499.24
499.239
499.238
499.237
499.236
499.235
499.233
499.232
499.231
499.23
499.229
499.228
499.226
499.225
499.224
499.223
499.221
499.22
499.219
499.218
499.216
499.215
499.214
499.213
499.211
499.21
499.209
499.207
499.206
499.204
499.203
499.202
499.2
499.199
499.197
499.196
499.194
499.193
499.192
499.19
499.189
499.187
499.185
499.184
499.182
499.181
499.179
499.178
499.176
499.174
499.173
499.171
499.169
499.168
499.166
499.164
499.162
499.161
499.159
499.157
499.155
499.154
499.152
499.15
499.148
499.146
499.144
499.142
499.14
499.138
499.136
499.134
499.132
499.13
499.128
499.126
499.124
499.122
499.12
499.117
499.115
499.113
499.111
499.109
499.106
499.104
499.102
499.099
499.097
499.094
499.092
499.089
499.087
499.084
499.082
499.079
499.076
499.074
499.071
499.068
499.066
499.063
499.06
499.057
499.054
499.051
499.048
499.045
499.042
499.039
499.036
499.033
499.03
499.027
499.023
499.02
499.017
499.013
499.01
499.006
499.003
498.999
498.996
498.992
498.988
498.985
498.981
498.977
498.973
498.969
498.965
498.961
498.957
498.952
498.948
498.944
498.939
498.935
498.93
498.926
498.921
498.916
498.911
498.907
498.902
498.896
498.891
498.886
498.881
498.875
498.87
498.864
498.859
498.853
498.847
498.841
498.835
498.829
498.822
498.816
498.809
498.803
498.796
498.789
498.782
498.775
498.767
498.76
498.752
498.744
498.736
498.728
498.72
498.711
498.703
498.694
498.685
498.676
498.666
498.657
498.647
498.637
498.626
498.616
498.605
498.594
498.583
498.571
498.559
498.547
498.534
498.522
498.508
498.495
498.481
498.467
498.452
498.437
498.421
498.405
498.388
498.371
498.354
498.336
498.317
498.298
498.278
498.257
498.236
498.213
498.191
498.167
498.142
498.116
498.09
498.062
498.033
498.003
497.972
497.939
497.905
497.869
497.832
497.792
497.751
497.708
497.662
497.614
497.562
497.507
497.448
497.385
497.318
497.246
497.172
497.097
497.021
496.946
496.872
496.796
496.713
496.613
496.482
496.297
496.032
495.65
495.109
494.359
493.346
492.013
490.301
488.154
485.522
482.36
478.635
474.329
469.436
463.969
457.955
451.44
444.481
437.152
429.536
421.721
413.8
405.867
398.012
390.32
382.867
375.719
368.933
362.55
356.603
351.111
346.083
341.519
337.41
333.739
330.485
327.623
325.124
322.957
321.092
319.498
318.144
317.003
316.047
315.251
314.592
314.051
313.608
313.249
312.959
312.726
312.54
312.392
312.275
312.182
312.11
312.054
312.01
311.975
311.949
311.928
311.912
311.9
311.89
311.883
311.877
311.872
311.868
311.865
311.863
311.861
311.859
311.858
311.856
311.855
311.854
311.854
311.853
311.852
311.852
311.851
311.851
311.85
311.85
311.85
311.849
311.849
311.849
311.849
311.848
311.848
311.848
311.848
311.847
311.847
311.847
311.847
311.847
311.846
311.846
311.846
311.846
311.846
311.845
311.845
311.845
311.845
311.845
311.844
311.844
311.844
311.844
311.844
311.843
311.843
311.843
311.843
311.843
311.842
311.842
311.842
311.842
311.842
311.841
311.841
311.841
311.841
311.841
311.841
311.84
311.84
311.84
311.84
311.84
311.839
311.839
311.839
311.839
311.839
311.839
311.838
311.838
311.838
311.838
311.838
311.838
311.838
311.837
311.837
311.837
311.837
311.837
311.836
311.836
311.836
311.836
311.836
311.836
311.835
311.835
311.835
311.835
311.835
311.835
311.835
311.834
311.834
311.834
311.834
311.833
311.833
311.833
311.833
311.833
311.833
311.832
311.832
311.832
311.832
311.832
311.832
311.832
311.832
311.831
311.831
311.831
311.831
311.831
311.83
311.83
311.83
311.83
311.83
311.829
311.829
311.829
311.829
311.829
311.829
311.829
311.828
311.828
311.828
311.828
311.828
311.828
311.829
311.83
311.831
311.832
311.831
311.828
311.824
311.819
311.807
311.786
311.75
311.704
311.645
311.571
311.498
311.423
311.346
311.284
311.236
311.196
311.168
311.154
311.146
311.141
311.139
)
;

boundaryField
{
    sides
    {
        type            calculated;
        value           nonuniform List<scalar> 2(311.139 -4.65661e-13);
    }
    empty
    {
        type            empty;
        value           nonuniform 0();
    }
}


// ************************************************************************* //
