/*--------------------------------*- C++ -*----------------------------------*\
| =========                 |                                                 |
| \\      /  F ield         | OpenFOAM: The Open Source CFD Toolbox           |
|  \\    /   O peration     | Version:  3.0.0                                 |
|   \\  /    A nd           | Web:      www.OpenFOAM.org                      |
|    \\/     M anipulation  |                                                 |
\*---------------------------------------------------------------------------*/
FoamFile
{
    version     2.0;
    format      ascii;
    class       volVectorField;
    location    "0.01";
    object      U;
}
// * * * * * * * * * * * * * * * * * * * * * * * * * * * * * * * * * * * * * //

dimensions      [0 1 -1 0 0 0 0];

internalField   nonuniform List<vector> 
1000
(
(1.02111e-13 0 0)
(2.04222e-13 0 0)
(1.6046e-13 0 0)
(2.1881e-13 0 0)
(3.20921e-13 0 0)
(2.77159e-13 0 0)
(4.95968e-13 0 0)
(2.77159e-13 0 0)
(2.47984e-13 0 0)
(1.6046e-13 0 0)
(2.91746e-13 0 0)
(2.04222e-13 0 0)
(4.81381e-13 0 0)
(4.66794e-13 0 0)
(5.68905e-13 0 0)
(6.85603e-13 0 0)
(5.98079e-13 0 0)
(6.27254e-13 0 0)
(4.81381e-13 0 0)
(1.23992e-12 0 0)
(1.31286e-12 0 0)
(2.6403e-12 0 0)
(3.35508e-12 0 0)
(5.38271e-12 0 0)
(8.00843e-12 0 0)
(1.25013e-11 0 0)
(1.91385e-11 0 0)
(3.03562e-11 0 0)
(4.74962e-11 0 0)
(7.47453e-11 0 0)
(1.17063e-10 0 0)
(1.83041e-10 0 0)
(2.85211e-10 0 0)
(4.43746e-10 0 0)
(6.87193e-10 0 0)
(1.06187e-09 0 0)
(1.63449e-09 0 0)
(2.50888e-09 0 0)
(3.83722e-09 0 0)
(5.84939e-09 0 0)
(8.88594e-09 0 0)
(1.34523e-08 0 0)
(2.02959e-08 0 0)
(3.05137e-08 0 0)
(4.5716e-08 0 0)
(6.82487e-08 0 0)
(1.01529e-07 0 0)
(1.50497e-07 0 0)
(2.22284e-07 0 0)
(3.27125e-07 0 0)
(4.79667e-07 0 0)
(7.00764e-07 0 0)
(1.02e-06 0 0)
(1.47917e-06 0 0)
(2.13701e-06 0 0)
(3.07583e-06 0 0)
(4.41031e-06 0 0)
(6.29968e-06 0 0)
(8.96389e-06 0 0)
(1.27055e-05 0 0)
(1.79389e-05 0 0)
(2.52285e-05 0 0)
(3.53402e-05 0 0)
(4.93078e-05 0 0)
(6.85202e-05 0 0)
(9.48344e-05 0 0)
(0.00013072 0 0)
(0.000179448 0 0)
(0.000245322 0 0)
(0.000333985 0 0)
(0.000452786 0 0)
(0.000611255 0 0)
(0.000821675 0 0)
(0.0010998 0 0)
(0.0014657 0 0)
(0.00194483 0 0)
(0.00256927 0 0)
(0.00337919 0 0)
(0.00442462 0 0)
(0.00576746 0 0)
(0.00748383 0 0)
(0.00966669 0 0)
(0.0124289 0 0)
(0.0159063 0 0)
(0.0202619 0 0)
(0.0256888 0 0)
(0.0324152 0 0)
(0.0407081 0 0)
(0.0508777 0 0)
(0.0632814 0 0)
(0.0783277 0 0)
(0.0964795 0 0)
(0.118257 0 0)
(0.144238 0 0)
(0.175062 0 0)
(0.211426 0 0)
(0.254083 0 0)
(0.303842 0 0)
(0.361555 0 0)
(0.428119 0 0)
(0.504459 0 0)
(0.591521 0 0)
(0.690263 0 0)
(0.801635 0 0)
(0.926571 0 0)
(1.06598 0 0)
(1.22071 0 0)
(1.39156 0 0)
(1.57927 0 0)
(1.78449 0 0)
(2.00777 0 0)
(2.24959 0 0)
(2.51029 0 0)
(2.79015 0 0)
(3.08933 0 0)
(3.40787 0 0)
(3.74574 0 0)
(4.10281 0 0)
(4.47886 0 0)
(4.87359 0 0)
(5.28663 0 0)
(5.71756 0 0)
(6.1659 0 0)
(6.63112 0 0)
(7.11268 0 0)
(7.60999 0 0)
(8.12245 0 0)
(8.64945 0 0)
(9.19038 0 0)
(9.74462 0 0)
(10.3116 0 0)
(10.8906 0 0)
(11.4812 0 0)
(12.0828 0 0)
(12.6948 0 0)
(13.3166 0 0)
(13.9479 0 0)
(14.588 0 0)
(15.2365 0 0)
(15.8931 0 0)
(16.5572 0 0)
(17.2284 0 0)
(17.9065 0 0)
(18.5909 0 0)
(19.2815 0 0)
(19.9779 0 0)
(20.6797 0 0)
(21.3867 0 0)
(22.0987 0 0)
(22.8154 0 0)
(23.5365 0 0)
(24.2619 0 0)
(24.9913 0 0)
(25.7245 0 0)
(26.4614 0 0)
(27.2018 0 0)
(27.9456 0 0)
(28.6925 0 0)
(29.4424 0 0)
(30.1952 0 0)
(30.9508 0 0)
(31.7091 0 0)
(32.4698 0 0)
(33.2331 0 0)
(33.9986 0 0)
(34.7664 0 0)
(35.5363 0 0)
(36.3083 0 0)
(37.0822 0 0)
(37.8581 0 0)
(38.6357 0 0)
(39.4152 0 0)
(40.1962 0 0)
(40.9789 0 0)
(41.7632 0 0)
(42.5489 0 0)
(43.3361 0 0)
(44.1247 0 0)
(44.9146 0 0)
(45.7058 0 0)
(46.4982 0 0)
(47.2918 0 0)
(48.0865 0 0)
(48.8823 0 0)
(49.6793 0 0)
(50.4772 0 0)
(51.2761 0 0)
(52.076 0 0)
(52.8768 0 0)
(53.6784 0 0)
(54.481 0 0)
(55.2843 0 0)
(56.0885 0 0)
(56.8934 0 0)
(57.699 0 0)
(58.5054 0 0)
(59.3125 0 0)
(60.1202 0 0)
(60.9286 0 0)
(61.7376 0 0)
(62.5472 0 0)
(63.3573 0 0)
(64.1681 0 0)
(64.9794 0 0)
(65.7912 0 0)
(66.6036 0 0)
(67.4164 0 0)
(68.2297 0 0)
(69.0435 0 0)
(69.8577 0 0)
(70.6723 0 0)
(71.4874 0 0)
(72.3029 0 0)
(73.1188 0 0)
(73.9351 0 0)
(74.7517 0 0)
(75.5687 0 0)
(76.3861 0 0)
(77.2038 0 0)
(78.0218 0 0)
(78.8401 0 0)
(79.6588 0 0)
(80.4777 0 0)
(81.297 0 0)
(82.1165 0 0)
(82.9363 0 0)
(83.7564 0 0)
(84.5767 0 0)
(85.3973 0 0)
(86.2181 0 0)
(87.0392 0 0)
(87.8605 0 0)
(88.682 0 0)
(89.5038 0 0)
(90.3258 0 0)
(91.1479 0 0)
(91.9703 0 0)
(92.7928 0 0)
(93.6156 0 0)
(94.4385 0 0)
(95.2616 0 0)
(96.0849 0 0)
(96.9084 0 0)
(97.732 0 0)
(98.5558 0 0)
(99.3797 0 0)
(100.204 0 0)
(101.028 0 0)
(101.852 0 0)
(102.677 0 0)
(103.501 0 0)
(104.326 0 0)
(105.151 0 0)
(105.976 0 0)
(106.801 0 0)
(107.627 0 0)
(108.452 0 0)
(109.277 0 0)
(110.103 0 0)
(110.929 0 0)
(111.754 0 0)
(112.58 0 0)
(113.406 0 0)
(114.232 0 0)
(115.058 0 0)
(115.885 0 0)
(116.711 0 0)
(117.537 0 0)
(118.364 0 0)
(119.19 0 0)
(120.017 0 0)
(120.843 0 0)
(121.67 0 0)
(122.497 0 0)
(123.324 0 0)
(124.151 0 0)
(124.978 0 0)
(125.805 0 0)
(126.632 0 0)
(127.459 0 0)
(128.286 0 0)
(129.113 0 0)
(129.94 0 0)
(130.767 0 0)
(131.595 0 0)
(132.422 0 0)
(133.249 0 0)
(134.077 0 0)
(134.904 0 0)
(135.732 0 0)
(136.559 0 0)
(137.387 0 0)
(138.214 0 0)
(139.042 0 0)
(139.869 0 0)
(140.697 0 0)
(141.524 0 0)
(142.352 0 0)
(143.18 0 0)
(144.007 0 0)
(144.835 0 0)
(145.662 0 0)
(146.49 0 0)
(147.318 0 0)
(148.145 0 0)
(148.973 0 0)
(149.8 0 0)
(150.628 0 0)
(151.456 0 0)
(152.283 0 0)
(153.111 0 0)
(153.938 0 0)
(154.766 0 0)
(155.593 0 0)
(156.421 0 0)
(157.248 0 0)
(158.076 0 0)
(158.903 0 0)
(159.73 0 0)
(160.558 0 0)
(161.385 0 0)
(162.212 0 0)
(163.04 0 0)
(163.867 0 0)
(164.694 0 0)
(165.521 0 0)
(166.348 0 0)
(167.175 0 0)
(168.002 0 0)
(168.829 0 0)
(169.656 0 0)
(170.483 0 0)
(171.31 0 0)
(172.137 0 0)
(172.963 0 0)
(173.79 0 0)
(174.617 0 0)
(175.443 0 0)
(176.269 0 0)
(177.096 0 0)
(177.922 0 0)
(178.748 0 0)
(179.574 0 0)
(180.4 0 0)
(181.226 0 0)
(182.052 0 0)
(182.878 0 0)
(183.704 0 0)
(184.529 0 0)
(185.355 0 0)
(186.18 0 0)
(187.006 0 0)
(187.831 0 0)
(188.656 0 0)
(189.481 0 0)
(190.306 0 0)
(191.131 0 0)
(191.955 0 0)
(192.78 0 0)
(193.604 0 0)
(194.428 0 0)
(195.252 0 0)
(196.076 0 0)
(196.9 0 0)
(197.724 0 0)
(198.547 0 0)
(199.371 0 0)
(200.194 0 0)
(201.017 0 0)
(201.84 0 0)
(202.662 0 0)
(203.485 0 0)
(204.307 0 0)
(205.129 0 0)
(205.951 0 0)
(206.773 0 0)
(207.594 0 0)
(208.416 0 0)
(209.237 0 0)
(210.057 0 0)
(210.878 0 0)
(211.698 0 0)
(212.518 0 0)
(213.338 0 0)
(214.158 0 0)
(214.977 0 0)
(215.796 0 0)
(216.615 0 0)
(217.433 0 0)
(218.251 0 0)
(219.069 0 0)
(219.887 0 0)
(220.704 0 0)
(221.52 0 0)
(222.337 0 0)
(223.153 0 0)
(223.968 0 0)
(224.784 0 0)
(225.598 0 0)
(226.413 0 0)
(227.227 0 0)
(228.04 0 0)
(228.853 0 0)
(229.666 0 0)
(230.478 0 0)
(231.289 0 0)
(232.1 0 0)
(232.91 0 0)
(233.72 0 0)
(234.529 0 0)
(235.337 0 0)
(236.145 0 0)
(236.952 0 0)
(237.759 0 0)
(238.565 0 0)
(239.369 0 0)
(240.174 0 0)
(240.977 0 0)
(241.779 0 0)
(242.581 0 0)
(243.382 0 0)
(244.181 0 0)
(244.98 0 0)
(245.777 0 0)
(246.574 0 0)
(247.369 0 0)
(248.163 0 0)
(248.956 0 0)
(249.748 0 0)
(250.538 0 0)
(251.327 0 0)
(252.114 0 0)
(252.9 0 0)
(253.685 0 0)
(254.467 0 0)
(255.248 0 0)
(256.027 0 0)
(256.804 0 0)
(257.579 0 0)
(258.352 0 0)
(259.122 0 0)
(259.891 0 0)
(260.656 0 0)
(261.42 0 0)
(262.18 0 0)
(262.938 0 0)
(263.693 0 0)
(264.445 0 0)
(265.193 0 0)
(265.938 0 0)
(266.679 0 0)
(267.417 0 0)
(268.15 0 0)
(268.88 0 0)
(269.605 0 0)
(270.325 0 0)
(271.04 0 0)
(271.751 0 0)
(272.456 0 0)
(273.155 0 0)
(273.848 0 0)
(274.535 0 0)
(275.215 0 0)
(275.888 0 0)
(276.554 0 0)
(277.213 0 0)
(277.863 0 0)
(278.505 0 0)
(279.137 0 0)
(279.761 0 0)
(280.374 0 0)
(280.978 0 0)
(281.57 0 0)
(282.152 0 0)
(282.721 0 0)
(283.279 0 0)
(283.824 0 0)
(284.355 0 0)
(284.873 0 0)
(285.376 0 0)
(285.865 0 0)
(286.339 0 0)
(286.797 0 0)
(287.238 0 0)
(287.664 0 0)
(288.072 0 0)
(288.463 0 0)
(288.837 0 0)
(289.193 0 0)
(289.53 0 0)
(289.85 0 0)
(290.152 0 0)
(290.436 0 0)
(290.702 0 0)
(290.951 0 0)
(291.182 0 0)
(291.396 0 0)
(291.593 0 0)
(291.775 0 0)
(291.94 0 0)
(292.091 0 0)
(292.228 0 0)
(292.352 0 0)
(292.462 0 0)
(292.561 0 0)
(292.649 0 0)
(292.727 0 0)
(292.795 0 0)
(292.855 0 0)
(292.907 0 0)
(292.952 0 0)
(292.991 0 0)
(293.024 0 0)
(293.053 0 0)
(293.077 0 0)
(293.097 0 0)
(293.115 0 0)
(293.129 0 0)
(293.141 0 0)
(293.151 0 0)
(293.16 0 0)
(293.166 0 0)
(293.172 0 0)
(293.177 0 0)
(293.181 0 0)
(293.184 0 0)
(293.186 0 0)
(293.188 0 0)
(293.19 0 0)
(293.192 0 0)
(293.193 0 0)
(293.194 0 0)
(293.195 0 0)
(293.195 0 0)
(293.196 0 0)
(293.196 0 0)
(293.197 0 0)
(293.197 0 0)
(293.197 0 0)
(293.197 0 0)
(293.198 0 0)
(293.198 0 0)
(293.198 0 0)
(293.198 0 0)
(293.198 0 0)
(293.198 0 0)
(293.198 0 0)
(293.198 0 0)
(293.199 0 0)
(293.199 0 0)
(293.199 0 0)
(293.199 0 0)
(293.199 0 0)
(293.199 0 0)
(293.199 0 0)
(293.199 0 0)
(293.199 0 0)
(293.199 0 0)
(293.199 0 0)
(293.199 0 0)
(293.199 0 0)
(293.199 0 0)
(293.199 0 0)
(293.199 0 0)
(293.199 0 0)
(293.199 0 0)
(293.199 0 0)
(293.199 0 0)
(293.2 0 0)
(293.2 0 0)
(293.2 0 0)
(293.2 0 0)
(293.2 0 0)
(293.2 0 0)
(293.2 0 0)
(293.2 0 0)
(293.2 0 0)
(293.2 0 0)
(293.2 0 0)
(293.2 0 0)
(293.2 0 0)
(293.2 0 0)
(293.2 0 0)
(293.2 0 0)
(293.2 0 0)
(293.2 0 0)
(293.2 0 0)
(293.2 0 0)
(293.2 0 0)
(293.2 0 0)
(293.201 0 0)
(293.201 0 0)
(293.201 0 0)
(293.201 0 0)
(293.201 0 0)
(293.201 0 0)
(293.201 0 0)
(293.201 0 0)
(293.201 0 0)
(293.201 0 0)
(293.201 0 0)
(293.201 0 0)
(293.201 0 0)
(293.201 0 0)
(293.201 0 0)
(293.201 0 0)
(293.201 0 0)
(293.201 0 0)
(293.202 0 0)
(293.202 0 0)
(293.202 0 0)
(293.202 0 0)
(293.202 0 0)
(293.202 0 0)
(293.202 0 0)
(293.202 0 0)
(293.202 0 0)
(293.202 0 0)
(293.202 0 0)
(293.202 0 0)
(293.202 0 0)
(293.202 0 0)
(293.202 0 0)
(293.202 0 0)
(293.201 0 0)
(293.201 0 0)
(293.201 0 0)
(293.201 0 0)
(293.201 0 0)
(293.201 0 0)
(293.201 0 0)
(293.201 0 0)
(293.201 0 0)
(293.201 0 0)
(293.201 0 0)
(293.201 0 0)
(293.201 0 0)
(293.201 0 0)
(293.201 0 0)
(293.201 0 0)
(293.201 0 0)
(293.201 0 0)
(293.201 0 0)
(293.201 0 0)
(293.201 0 0)
(293.201 0 0)
(293.201 0 0)
(293.201 0 0)
(293.201 0 0)
(293.201 0 0)
(293.201 0 0)
(293.201 0 0)
(293.201 0 0)
(293.201 0 0)
(293.201 0 0)
(293.202 0 0)
(293.202 0 0)
(293.202 0 0)
(293.202 0 0)
(293.202 0 0)
(293.202 0 0)
(293.202 0 0)
(293.202 0 0)
(293.202 0 0)
(293.202 0 0)
(293.202 0 0)
(293.202 0 0)
(293.202 0 0)
(293.202 0 0)
(293.202 0 0)
(293.202 0 0)
(293.202 0 0)
(293.202 0 0)
(293.202 0 0)
(293.202 0 0)
(293.202 0 0)
(293.202 0 0)
(293.202 0 0)
(293.202 0 0)
(293.202 0 0)
(293.202 0 0)
(293.202 0 0)
(293.202 0 0)
(293.202 0 0)
(293.202 0 0)
(293.202 0 0)
(293.202 0 0)
(293.202 0 0)
(293.202 0 0)
(293.202 0 0)
(293.202 0 0)
(293.202 0 0)
(293.202 0 0)
(293.202 0 0)
(293.202 0 0)
(293.202 0 0)
(293.202 0 0)
(293.202 0 0)
(293.202 0 0)
(293.202 0 0)
(293.202 0 0)
(293.202 0 0)
(293.202 0 0)
(293.202 0 0)
(293.202 0 0)
(293.202 0 0)
(293.202 0 0)
(293.202 0 0)
(293.202 0 0)
(293.202 0 0)
(293.202 0 0)
(293.202 0 0)
(293.202 0 0)
(293.202 0 0)
(293.202 0 0)
(293.202 0 0)
(293.202 0 0)
(293.202 0 0)
(293.202 0 0)
(293.202 0 0)
(293.202 0 0)
(293.202 0 0)
(293.202 0 0)
(293.202 0 0)
(293.202 0 0)
(293.202 0 0)
(293.202 0 0)
(293.202 0 0)
(293.202 0 0)
(293.202 0 0)
(293.202 0 0)
(293.202 0 0)
(293.202 0 0)
(293.202 0 0)
(293.202 0 0)
(293.202 0 0)
(293.202 0 0)
(293.202 0 0)
(293.202 0 0)
(293.202 0 0)
(293.202 0 0)
(293.202 0 0)
(293.202 0 0)
(293.202 0 0)
(293.202 0 0)
(293.202 0 0)
(293.202 0 0)
(293.202 0 0)
(293.202 0 0)
(293.202 0 0)
(293.202 0 0)
(293.202 0 0)
(293.202 0 0)
(293.202 0 0)
(293.202 0 0)
(293.202 0 0)
(293.202 0 0)
(293.202 0 0)
(293.202 0 0)
(293.202 0 0)
(293.202 0 0)
(293.202 0 0)
(293.202 0 0)
(293.202 0 0)
(293.202 0 0)
(293.202 0 0)
(293.202 0 0)
(293.202 0 0)
(293.202 0 0)
(293.202 0 0)
(293.202 0 0)
(293.202 0 0)
(293.202 0 0)
(293.202 0 0)
(293.201 0 0)
(293.201 0 0)
(293.201 0 0)
(293.2 0 0)
(293.2 0 0)
(293.199 0 0)
(293.198 0 0)
(293.196 0 0)
(293.195 0 0)
(293.193 0 0)
(293.191 0 0)
(293.189 0 0)
(293.187 0 0)
(293.185 0 0)
(293.184 0 0)
(293.183 0 0)
(293.182 0 0)
(293.181 0 0)
(293.181 0 0)
(293.182 0 0)
(293.182 0 0)
(293.183 0 0)
(293.185 0 0)
(293.186 0 0)
(293.188 0 0)
(293.19 0 0)
(293.192 0 0)
(293.193 0 0)
(293.195 0 0)
(293.196 0 0)
(293.197 0 0)
(293.198 0 0)
(293.199 0 0)
(293.199 0 0)
(293.2 0 0)
(293.2 0 0)
(293.2 0 0)
(293.2 0 0)
(293.201 0 0)
(293.201 0 0)
(293.201 0 0)
(293.201 0 0)
(293.201 0 0)
(293.201 0 0)
(293.201 0 0)
(293.201 0 0)
(293.201 0 0)
(293.201 0 0)
(293.201 0 0)
(293.201 0 0)
(293.201 0 0)
(293.201 0 0)
(293.201 0 0)
(293.201 0 0)
(293.201 0 0)
(293.201 0 0)
(293.2 0 0)
(293.2 0 0)
(293.2 0 0)
(293.2 0 0)
(293.2 0 0)
(293.2 0 0)
(293.2 0 0)
(293.2 0 0)
(293.2 0 0)
(293.2 0 0)
(293.2 0 0)
(293.2 0 0)
(293.2 0 0)
(293.2 0 0)
(293.2 0 0)
(293.2 0 0)
(293.2 0 0)
(293.2 0 0)
(293.2 0 0)
(293.2 0 0)
(293.2 0 0)
(293.2 0 0)
(293.2 0 0)
(293.2 0 0)
(293.2 0 0)
(293.2 0 0)
(293.2 0 0)
(293.2 0 0)
(293.2 0 0)
(293.2 0 0)
(293.2 0 0)
(293.2 0 0)
(293.2 0 0)
(293.2 0 0)
(293.2 0 0)
(293.199 0 0)
(293.199 0 0)
(293.199 0 0)
(293.199 0 0)
(293.199 0 0)
(293.199 0 0)
(293.199 0 0)
(293.199 0 0)
(293.199 0 0)
(293.199 0 0)
(293.199 0 0)
(293.199 0 0)
(293.199 0 0)
(293.199 0 0)
(293.199 0 0)
(293.199 0 0)
(293.199 0 0)
(293.199 0 0)
(293.199 0 0)
(293.199 0 0)
(293.199 0 0)
(293.199 0 0)
(293.199 0 0)
(293.198 0 0)
(293.198 0 0)
(293.198 0 0)
(293.198 0 0)
(293.198 0 0)
(293.198 0 0)
(293.199 0 0)
(293.198 0 0)
(293.198 0 0)
(293.198 0 0)
(293.198 0 0)
(293.198 0 0)
(293.198 0 0)
(293.198 0 0)
(293.198 0 0)
(293.198 0 0)
(293.198 0 0)
(293.198 0 0)
(293.198 0 0)
(293.198 0 0)
(293.198 0 0)
(293.198 0 0)
(293.198 0 0)
(293.198 0 0)
(293.198 0 0)
(293.198 0 0)
(293.198 0 0)
(293.198 0 0)
(293.198 0 0)
(293.197 0 0)
(293.197 0 0)
(293.197 0 0)
(293.197 0 0)
(293.197 0 0)
(293.197 0 0)
(293.197 0 0)
(293.197 0 0)
(293.197 0 0)
(293.197 0 0)
(293.197 0 0)
(293.197 0 0)
(293.197 0 0)
(293.197 0 0)
(293.197 0 0)
(293.197 0 0)
(293.197 0 0)
(293.197 0 0)
(293.197 0 0)
(293.197 0 0)
(293.196 0 0)
(293.196 0 0)
(293.196 0 0)
(293.196 0 0)
(293.196 0 0)
(293.196 0 0)
(293.196 0 0)
(293.196 0 0)
(293.196 0 0)
(293.196 0 0)
(293.196 0 0)
(293.196 0 0)
(293.196 0 0)
(293.196 0 0)
(293.196 0 0)
(293.196 0 0)
(293.196 0 0)
(293.195 0 0)
(293.195 0 0)
(293.195 0 0)
(293.195 0 0)
(293.194 0 0)
(293.194 0 0)
(293.194 0 0)
(293.194 0 0)
(293.194 0 0)
(293.194 0 0)
(293.195 0 0)
(293.195 0 0)
(293.195 0 0)
(293.195 0 0)
(293.195 0 0)
(293.195 0 0)
(293.195 0 0)
(293.195 0 0)
(293.196 0 0)
(293.197 0 0)
(293.199 0 0)
(293.201 0 0)
(293.205 0 0)
(293.208 0 0)
(293.21 0 0)
(293.21 0 0)
(293.208 0 0)
(293.198 0 0)
(293.177 0 0)
(293.135 0 0)
(293.059 0 0)
(292.944 0 0)
(292.787 0 0)
(292.587 0 0)
(292.353 0 0)
(292.097 0 0)
(291.836 0 0)
(291.586 0 0)
(291.364 0 0)
(291.181 0 0)
(291.04 0 0)
(290.941 0 0)
(290.879 0 0)
(290.844 0 0)
(290.828 0 0)
(290.823 0 0)
)
;

boundaryField
{
    sides
    {
        type            zeroGradient;
    }
    empty
    {
        type            empty;
    }
}


// ************************************************************************* //
