/*--------------------------------*- C++ -*----------------------------------*\
| =========                 |                                                 |
| \\      /  F ield         | OpenFOAM: The Open Source CFD Toolbox           |
|  \\    /   O peration     | Version:  3.0.0                                 |
|   \\  /    A nd           | Web:      www.OpenFOAM.org                      |
|    \\/     M anipulation  |                                                 |
\*---------------------------------------------------------------------------*/
FoamFile
{
    version     2.0;
    format      ascii;
    class       volScalarField;
    location    "1.75";
    object      p;
}
// * * * * * * * * * * * * * * * * * * * * * * * * * * * * * * * * * * * * * //

dimensions      [0 2 -2 0 0 0 0];

internalField   nonuniform List<scalar> 
4096
(
0.00394899
0.00893524
0.0138497
0.0136139
0.00828629
0.000455604
-0.00648905
-0.0105348
-0.011762
-0.0115881
-0.0115286
-0.0122411
-0.0133
-0.0136318
-0.0118426
-0.00448494
0.00648561
0.0085017
0.0122057
0.0122666
0.00896485
0.00467964
0.00176066
0.00122265
0.00253811
0.00431064
0.0050449
0.00384262
0.00107212
-0.0020858
-0.0037309
0.000676427
0.00926955
0.00818271
0.0108403
0.011494
0.0105853
0.0100751
0.0113741
0.0145605
0.0185975
0.0219807
0.0231483
0.0211633
0.0162092
0.00992652
0.00462408
0.0060521
0.0111917
0.00733134
0.00922098
0.0106323
0.0119401
0.0146083
0.0192619
0.025431
0.0318981
0.0370408
0.0390202
0.0365077
0.0297884
0.0206567
0.0119036
0.0105331
0.0119896
0.00608707
0.00743655
0.00952972
0.0125279
0.0174322
0.0244156
0.032792
0.0412908
0.0480965
0.0509313
0.048173
0.0400691
0.02867
0.0171801
0.013535
0.0117497
0.00474047
0.00575916
0.00818297
0.011994
0.0179227
0.0260114
0.0356231
0.0454918
0.0535538
0.0571791
0.0544135
0.0455566
0.0328596
0.0198256
0.0147798
0.0108005
0.00364457
0.00440594
0.00665371
0.0102498
0.0158393
0.0236052
0.0331926
0.0434195
0.0520629
0.0562585
0.0539112
0.0452234
0.0325748
0.0195358
0.0142537
0.00933167
0.00303239
0.00365403
0.00526114
0.00768848
0.0116333
0.0175939
0.0256644
0.0349643
0.0433749
0.0479167
0.0463637
0.0388782
0.0277485
0.0163452
0.0121143
0.0078271
0.00304066
0.00372193
0.00444822
0.00504279
0.00631773
0.00918617
0.0143017
0.0213807
0.0286386
0.0331694
0.0326932
0.0272802
0.0189557
0.0106133
0.00867486
0.00617086
0.00353689
0.00464449
0.00455294
0.00305388
0.00104147
-0.000104294
0.00100887
0.00484013
0.010124
0.0142583
0.0148984
0.0120495
0.00734125
0.00296985
0.0040833
0.00425099
0.00425882
0.00628442
0.0057046
0.0021625
-0.003341
-0.00886801
-0.0122288
-0.0121433
-0.00926774
-0.00599282
-0.00431713
-0.0045262
-0.00546472
-0.00563617
-0.00110428
0.00215622
0.00501238
0.00833928
0.00761991
0.00229173
-0.00642908
-0.0160555
-0.0235628
-0.0269256
-0.0263903
-0.0239968
-0.0216994
-0.0197637
-0.017486
-0.0139591
-0.00623795
0.000324753
0.00578742
0.0104875
0.00983994
0.00314373
-0.00813692
-0.0208709
-0.0313381
-0.0371139
-0.038264
-0.0367127
-0.0342102
-0.0310305
-0.0266478
-0.0205142
-0.010349
-0.000656231
0.00662019
0.0123584
0.0118052
0.00424434
-0.00849354
-0.0226986
-0.0343221
-0.0409574
-0.0428547
-0.0419653
-0.0397318
-0.0363209
-0.0312365
-0.0239776
-0.0125141
-0.00026487
0.00760338
0.013694
0.0131081
0.00533688
-0.00735106
-0.020997
-0.03165
-0.0374923
-0.0393542
-0.0389773
-0.0374979
-0.034885
-0.0304988
-0.0236527
-0.0121622
0.00211753
0.00925847
0.0149428
0.0142379
0.00717332
-0.00341773
-0.0137185
-0.0205247
-0.0240402
-0.0255849
-0.0265455
-0.0271924
-0.026846
-0.0245598
-0.0194785
-0.00902492
0.00652553
0.00976812
0.0140625
0.0142071
0.00993299
0.00323155
-0.00327355
-0.00770847
-0.00970426
-0.0100462
-0.00974357
-0.00949734
-0.00940451
-0.00901591
-0.00743546
-0.00109157
0.00793892
0.00913944
0.0127257
0.0134665
0.0110431
0.00699459
0.00324235
0.00111826
0.0011431
0.00263738
0.0044256
0.00505931
0.00393089
0.00162348
-0.000227442
0.00289615
0.00879445
0.0079537
0.010749
0.0120524
0.0116499
0.0108771
0.0110198
0.0126814
0.0157222
0.0192515
0.021671
0.0213415
0.017751
0.0120029
0.00642049
0.00633448
0.00834258
0.00574797
0.00786856
0.00968034
0.0110855
0.013154
0.0166502
0.0216703
0.0276676
0.0333269
0.0365329
0.0353245
0.0293792
0.0204107
0.0114388
0.00845221
0.00679468
0.00299454
0.0045487
0.00671109
0.00943683
0.0135844
0.0195896
0.0272499
0.035709
0.0431871
0.0470552
0.0450777
0.0372147
0.0257475
0.0142705
0.00911528
0.00471852
0.000370258
0.00149589
0.00370915
0.00701275
0.0121465
0.0194443
0.0286337
0.0386678
0.0473852
0.0517019
0.0492642
0.040281
0.0274844
0.0147983
0.0085275
0.00284529
-0.0014653
-0.000657381
0.0012107
0.0041614
0.00891064
0.0159126
0.0250932
0.0354605
0.0446805
0.0493401
0.047027
0.0380972
0.025461
0.0131131
0.00700176
0.00153559
-0.00213148
-0.00150446
-0.000376256
0.00127084
0.00422015
0.00923758
0.0167564
0.0261937
0.0350787
0.0400395
0.0385082
0.0308499
0.0199132
0.00943868
0.00477175
0.000884889
-0.00162721
-0.000995612
-0.000878526
-0.00128694
-0.00128559
0.000371729
0.00482915
0.0120392
0.0200302
0.0252073
0.0249108
0.0194745
0.0114725
0.00410013
0.00194003
0.00064217
-0.000305311
0.000589927
-0.000354544
-0.00319237
-0.00676191
-0.00921132
-0.00861152
-0.00423524
0.00213624
0.00714654
0.00824911
0.0055148
0.00112666
-0.0024127
-0.00124408
0.000469528
0.00137034
0.002831
0.00101946
-0.00418004
-0.011277
-0.0178597
-0.0211872
-0.0199698
-0.0154997
-0.0110282
-0.00889093
-0.00904644
-0.0098017
-0.00939559
-0.00469232
0.000277796
0.00306775
0.00534303
0.00304017
-0.00397752
-0.0139954
-0.0240126
-0.0306881
-0.0323366
-0.030034
-0.0265605
-0.0239131
-0.0220092
-0.0196584
-0.0157886
-0.00787037
0.000285675
0.0046812
0.00787601
0.00552875
-0.00254905
-0.0144128
-0.0266384
-0.0356066
-0.039508
-0.0392211
-0.0370096
-0.0343751
-0.0312017
-0.0267057
-0.0203616
-0.0100519
0.000833094
0.00623372
0.0102312
0.00821774
-5.54152e-05
-0.0125041
-0.0255419
-0.0355627
-0.0408345
-0.0420412
-0.0409456
-0.0386087
-0.0349378
-0.0294832
-0.0220326
-0.0105699
0.00220725
0.007787
0.0122554
0.0107964
0.00312502
-0.00864189
-0.0210767
-0.0308955
-0.0365763
-0.038585
-0.0381931
-0.0362227
-0.0327298
-0.0275004
-0.0203764
-0.00911148
0.00484573
0.00975228
0.0141432
0.0132043
0.006973
-0.00220591
-0.0113005
-0.018119
-0.0223841
-0.0248333
-0.0260558
-0.0260293
-0.0244161
-0.0209776
-0.0155471
-0.00561574
0.00801781
0.0113904
0.0152843
0.0156221
0.0121103
0.00635488
0.000545485
-0.00375799
-0.00614487
-0.00710452
-0.00729256
-0.00716229
-0.00681419
-0.00593799
-0.00403524
0.00132182
0.00657536
0.00843876
0.0121275
0.0136964
0.0124446
0.00923429
0.00549762
0.00246721
0.00122746
0.0017493
0.00324843
0.00432625
0.00397338
0.00229147
0.000833291
0.00276833
0.0046109
0.005069
0.00828202
0.010628
0.011488
0.0114819
0.0114581
0.0120552
0.0136507
0.016011
0.0180457
0.0181038
0.0152825
0.0101594
0.00491408
0.00352237
0.00120618
0.000506595
0.00329321
0.00624345
0.00882066
0.0114388
0.0145449
0.0183678
0.0228881
0.0274532
0.0304039
0.029644
0.0243544
0.0158782
0.00719842
0.00283869
-0.00278636
-0.0042634
-0.00188748
0.00131439
0.00491396
0.00923815
0.0145665
0.0209458
0.0280761
0.0347859
0.038685
0.0372681
0.0299515
0.0187895
0.00755969
0.00109389
-0.0063073
-0.0081074
-0.00615868
-0.00319567
0.000507361
0.005338
0.0116713
0.0196083
0.0286735
0.0371332
0.0418738
0.0400773
0.0314849
0.0187921
0.00633096
-0.00105381
-0.00845339
-0.0101981
-0.00872211
-0.00653755
-0.00375321
0.000206802
0.00605011
0.0141365
0.0240594
0.033612
0.0390694
0.0374072
0.0286755
0.0159851
0.0038922
-0.00305697
-0.00892298
-0.0102526
-0.00925688
-0.0083128
-0.00737128
-0.00558372
-0.00180186
0.00501453
0.014549
0.024363
0.0303595
0.0293973
0.0217589
0.0106822
0.000545532
-0.00467931
-0.00796247
-0.00854653
-0.00793089
-0.00846951
-0.00997918
-0.0112766
-0.0106283
-0.00639171
0.00156105
0.0107697
0.0169745
0.0171287
0.0115774
0.00344668
-0.00351116
-0.00595971
-0.00615143
-0.00568694
-0.00520423
-0.00715975
-0.0112732
-0.0160165
-0.0190713
-0.0181206
-0.0125981
-0.00481708
0.00114455
0.00246383
-0.000475334
-0.00494583
-0.00803728
-0.00705755
-0.0040392
-0.00228634
-0.00158025
-0.00459262
-0.0109928
-0.0189346
-0.0255671
-0.0280642
-0.0254438
-0.0197074
-0.0145197
-0.0123013
-0.0126565
-0.0134251
-0.0125758
-0.00803364
-0.00188506
0.001231
0.00251165
-0.00100887
-0.00900567
-0.0194082
-0.0289661
-0.0345104
-0.0348056
-0.0314692
-0.0275149
-0.0248683
-0.0230792
-0.0206538
-0.0163852
-0.00866651
0.000302988
0.00460066
0.00667949
0.00324212
-0.00546367
-0.0172432
-0.0286759
-0.0364572
-0.0392504
-0.0382753
-0.0357895
-0.033147
-0.0299579
-0.0252761
-0.0185845
-0.00857123
0.00249883
0.00752752
0.0104334
0.00760001
-0.000891767
-0.0129027
-0.0250521
-0.0341158
-0.0387076
-0.0395948
-0.0383934
-0.0359587
-0.0320747
-0.0262853
-0.0185118
-0.00747665
0.00460357
0.00974599
0.0132884
0.0114012
0.00397172
-0.007144
-0.018895
-0.0283385
-0.0339978
-0.0361137
-0.0356917
-0.033414
-0.0293865
-0.0235779
-0.0160956
-0.00538663
0.00752031
0.012176
0.0157375
0.0145784
0.00887412
0.000659508
-0.00759283
-0.0141757
-0.0187761
-0.0218183
-0.0234888
-0.0234865
-0.02144
-0.0173367
-0.0115121
-0.00193869
0.00938551
0.0139881
0.0180487
0.0187247
0.0156955
0.010336
0.00466257
8.95217e-05
-0.00293167
-0.00465272
-0.00544976
-0.00555783
-0.00505471
-0.00383081
-0.00150069
0.00355909
0.00420313
0.00734981
0.0115988
0.0139961
0.0135488
0.0107452
0.00675803
0.00301827
0.000721892
0.000334694
0.00137637
0.00257094
0.00269465
0.00153838
0.000311452
0.00154613
-0.00109649
0.000764942
0.00464703
0.00785465
0.00951052
0.00985672
0.0095936
0.00944802
0.0100832
0.0115956
0.013208
0.0133679
0.0109047
0.00607699
0.00100756
-0.00101333
-0.00766186
-0.00691509
-0.0034426
0.000291237
0.00352332
0.00636428
0.00918719
0.0123467
0.0160441
0.0199201
0.0225968
0.0219655
0.0169577
0.00861175
2.33034e-05
-0.00484124
-0.0139912
-0.014076
-0.0110954
-0.00730736
-0.00330648
0.00102437
0.00597044
0.0117458
0.018248
0.0245377
0.0284001
0.0272399
0.020165
0.00901024
-0.00215742
-0.00897872
-0.0186187
-0.0190962
-0.0167144
-0.0134599
-0.00969318
-0.00513322
0.000686154
0.0080833
0.0167621
0.0251455
0.0301528
0.0287435
0.0203577
0.00765292
-0.00474179
-0.012337
-0.0204858
-0.0210181
-0.0193323
-0.0171937
-0.0147038
-0.0112868
-0.00606979
0.0015964
0.0114119
0.0212409
0.027235
0.0260489
0.0174928
0.00483871
-0.00715662
-0.0142017
-0.0194908
-0.0197263
-0.0187591
-0.0181815
-0.0178347
-0.0167592
-0.0135524
-0.00703579
0.00269253
0.0130808
0.0197638
0.0192887
0.0117813
0.0007606
-0.00913707
-0.0144443
-0.0162552
-0.0158417
-0.0154726
-0.016623
-0.0189055
-0.0209414
-0.0207314
-0.0164906
-0.00806736
0.00188467
0.00879425
0.00932533
0.0038388
-0.00425427
-0.0108706
-0.0134003
-0.0117078
-0.0103584
-0.0102689
-0.0129631
-0.0178732
-0.0232221
-0.026442
-0.0251792
-0.0189785
-0.0104084
-0.00386672
-0.00234324
-0.0053336
-0.00979161
-0.0125137
-0.0116266
-0.00673212
-0.00416123
-0.003928
-0.00768944
-0.0147712
-0.023078
-0.0295831
-0.0314925
-0.0280866
-0.0216616
-0.0161105
-0.0138856
-0.0144074
-0.0151804
-0.013953
-0.00952154
-0.00184507
0.00205661
0.00284141
-0.00134476
-0.00981966
-0.0203015
-0.0294751
-0.0343078
-0.0338737
-0.0300533
-0.0259817
-0.0234745
-0.02191
-0.0194703
-0.0147987
-0.00721516
0.0026341
0.00770375
0.00931024
0.00536521
-0.00357124
-0.0151848
-0.0260934
-0.0332093
-0.0354663
-0.0342878
-0.0319123
-0.029501
-0.0264852
-0.0216971
-0.0145482
-0.00471235
0.00625937
0.0120611
0.0145832
0.0114915
0.00303484
-0.00863726
-0.0202924
-0.0289167
-0.0333505
-0.0343668
-0.0334284
-0.0312096
-0.0273416
-0.0212701
-0.0129612
-0.002186
0.00858454
0.0145255
0.0178575
0.0160374
0.00896617
-0.00171393
-0.0131815
-0.0226593
-0.0286667
-0.0312497
-0.0311697
-0.028947
-0.0246577
-0.0183366
-0.0102386
6.25835e-05
0.0111877
0.0167766
0.0201848
0.0191569
0.0139274
0.00625291
-0.00173636
-0.00852562
-0.0136957
-0.0173995
-0.0195739
-0.0197585
-0.0175255
-0.0129037
-0.00625353
0.00287983
0.0126663
0.0180227
0.0226016
0.0235726
0.0205882
0.0150363
0.00892816
0.00371373
-6.07284e-05
-0.00247118
-0.00372599
-0.00393466
-0.00316227
-0.00148156
0.0013294
0.00704176
0.00379557
0.00731993
0.012181
0.0150868
0.0148584
0.0119769
0.0076745
0.00350362
0.000689083
-0.000235745
0.000387215
0.00146902
0.0018058
0.000884106
-0.000293176
0.00138255
-0.00509074
-0.00312699
0.00134365
0.00500686
0.00685389
0.00713751
0.00663534
0.00622445
0.00657052
0.00779603
0.00919751
0.00934394
0.00698512
0.00213491
-0.00322051
-0.00477507
-0.0148341
-0.0142178
-0.0102724
-0.00621572
-0.00287649
-0.000100802
0.00258596
0.00564764
0.0092937
0.0130986
0.0157147
0.015167
0.0101901
0.00161408
-0.00745942
-0.0118414
-0.0233975
-0.0237283
-0.0204607
-0.0165317
-0.0125449
-0.00831476
-0.00345664
0.00233052
0.00894151
0.015317
0.0193033
0.018319
0.0112789
-0.000167681
-0.0118623
-0.0182533
-0.0287448
-0.0295978
-0.0271607
-0.0239645
-0.0203508
-0.0159596
-0.0102334
-0.00279015
0.00605246
0.0146392
0.0199328
0.0188275
0.0105357
-0.0024299
-0.0152174
-0.0225044
-0.0300006
-0.0308279
-0.0292873
-0.0273765
-0.025154
-0.0219623
-0.0168514
-0.00913342
0.000861039
0.0109501
0.0173257
0.0165214
0.00811579
-0.00470681
-0.0168666
-0.023804
-0.0272246
-0.0275431
-0.0268484
-0.0266001
-0.0265783
-0.0257322
-0.0225794
-0.0159553
-0.0060604
0.00458261
0.0116338
0.011508
0.00415221
-0.00691667
-0.0168562
-0.0221687
-0.0214702
-0.0207404
-0.0207111
-0.0222127
-0.0247997
-0.0269989
-0.0267352
-0.0223042
-0.013684
-0.00353
0.00362224
0.00434718
-0.00108723
-0.00919286
-0.0157682
-0.0183496
-0.0138145
-0.0120404
-0.012146
-0.0151155
-0.0202419
-0.0256258
-0.0286467
-0.0270887
-0.0206751
-0.0120011
-0.00542785
-0.00395256
-0.00706024
-0.0115729
-0.0142179
-0.0133782
-0.00574639
-0.0025119
-0.00233223
-0.00624864
-0.0134262
-0.0216279
-0.0278067
-0.0293556
-0.0257642
-0.0193752
-0.0140288
-0.0121047
-0.0129307
-0.0138303
-0.0124312
-0.00799889
0.0019589
0.00675703
0.00761075
0.00338258
-0.00505885
-0.0153351
-0.0241382
-0.0286325
-0.0281161
-0.0245014
-0.0208431
-0.0188148
-0.0176493
-0.015335
-0.0103961
-0.00270227
0.00866913
0.0147538
0.0165267
0.0126345
0.00382893
-0.00753796
-0.0181305
-0.025048
-0.0274277
-0.0266268
-0.0247934
-0.0229179
-0.0202627
-0.015497
-0.00795195
0.00211333
0.0135292
0.0203475
0.0231
0.0201531
0.0119178
0.000480885
-0.0109905
-0.019685
-0.0244725
-0.026056
-0.0257281
-0.0239877
-0.0203174
-0.0140831
-0.00525044
0.00586099
0.0157978
0.0226294
0.026273
0.024745
0.0179655
0.00746561
-0.00401571
-0.0137685
-0.0203177
-0.0235716
-0.0240943
-0.0222351
-0.0179865
-0.011322
-0.00266242
0.00797381
0.0173011
0.0236532
0.0273861
0.0266555
0.0216842
0.0140568
0.00577391
-0.00157688
-0.00739007
-0.0115831
-0.0140211
-0.0142724
-0.0119287
-0.00702416
8.43455e-05
0.00964919
0.0186644
0.0230435
0.0281956
0.0291749
0.0256565
0.0193642
0.0125061
0.00667216
0.00249574
-9.03302e-05
-0.00133872
-0.0013978
-0.000333675
0.00161356
0.00446346
0.0120585
0.00678322
0.00872826
0.0139923
0.0168425
0.0161652
0.0128394
0.00836761
0.00435876
0.00182791
0.00103517
0.00152139
0.00233714
0.00252638
0.00150225
-0.000139158
0.0032598
-0.00543596
-0.00549243
-0.000713722
0.00285976
0.00430743
0.00426033
0.00370679
0.00358969
0.0044116
0.00602379
0.00756318
0.00767003
0.00523955
0.000113876
-0.00606794
-0.00617401
-0.0179693
-0.0195469
-0.0155284
-0.011637
-0.00864197
-0.00606201
-0.00326436
0.00025046
0.00453859
0.00887284
0.01177
0.0113255
0.00635063
-0.00261764
-0.0127682
-0.0160449
-0.0283273
-0.0308454
-0.0277422
-0.0240567
-0.0203499
-0.0161951
-0.0111085
-0.00481648
0.00254772
0.00944364
0.0137853
0.0130329
0.00606615
-0.00577578
-0.0185957
-0.0242909
-0.0343225
-0.0370634
-0.0349789
-0.0320704
-0.0286679
-0.0242576
-0.018245
-0.010303
-0.000902445
0.00812721
0.0137838
0.0130266
0.00492806
-0.00833017
-0.022088
-0.029117
-0.0349543
-0.0372214
-0.036117
-0.034472
-0.0323654
-0.0290634
-0.0236408
-0.0155105
-0.00517717
0.00514468
0.01179
0.0113601
0.0032241
-0.00975144
-0.0226194
-0.0296653
-0.0304634
-0.0317304
-0.0314028
-0.031313
-0.0312745
-0.030218
-0.0267174
-0.0197729
-0.00975955
0.000855994
0.00797985
0.00811873
0.000996316
-0.0101343
-0.0205348
-0.026173
-0.0221702
-0.02204
-0.0221291
-0.0236054
-0.0260106
-0.0279054
-0.0272454
-0.0225632
-0.014014
-0.00414896
0.00281123
0.00356708
-0.00179121
-0.00996051
-0.0168014
-0.0197608
-0.0118113
-0.00996537
-0.0100167
-0.0127768
-0.0175821
-0.0225534
-0.0251638
-0.0234208
-0.0172438
-0.00906631
-0.00296422
-0.00174368
-0.00499721
-0.00965157
-0.0123991
-0.0118205
-0.000905215
0.0027831
0.00327136
-0.000278954
-0.00704311
-0.0148077
-0.0206093
-0.0220711
-0.0188454
-0.0131344
-0.00845531
-0.00700669
-0.00817693
-0.00926025
-0.00790075
-0.00346078
0.00933184
0.0148829
0.0162046
0.0124146
0.00436804
-0.00555124
-0.0141042
-0.0186555
-0.018612
-0.0157449
-0.0128339
-0.0113952
-0.0106315
-0.00850566
-0.00352376
0.00449513
0.018073
0.0248112
0.0272011
0.0237178
0.0151882
0.0039917
-0.00653429
-0.0137115
-0.0166451
-0.0165672
-0.0154242
-0.014089
-0.0117723
-0.00712258
0.00055795
0.0112707
0.0239922
0.0312253
0.034561
0.0319412
0.0238053
0.012322
0.000695973
-0.00836258
-0.0136969
-0.0159054
-0.0161434
-0.0148304
-0.0113839
-0.00517979
0.0038009
0.0159876
0.0260879
0.0329142
0.0370612
0.0357483
0.0288971
0.0181819
0.00652373
-0.00349747
-0.0103611
-0.0140041
-0.0149586
-0.0135004
-0.00941941
-0.00287122
0.00587537
0.017703
0.0259189
0.0317301
0.0359736
0.0354118
0.0301974
0.0220175
0.0130512
0.0050312
-0.00111801
-0.00525927
-0.0074105
-0.00737383
-0.00485726
3.33151e-05
0.00695757
0.017771
0.0261187
0.0275967
0.0331138
0.0337817
0.0293013
0.0220904
0.0146213
0.00867226
0.0048406
0.00285375
0.00217699
0.00245778
0.003625
0.00536204
0.00743239
0.0175505
0.0120992
0.0106515
0.0159873
0.018288
0.0166899
0.0127919
0.00843178
0.0051498
0.00361326
0.00360136
0.004348
0.0049103
0.00466907
0.00312403
0.000455814
0.00636659
-0.0026904
-0.00632209
-0.00174432
0.00127715
0.00193078
0.00146386
0.00109803
0.00174626
0.00360272
0.00609477
0.00806162
0.00814014
0.00548502
-5.03018e-05
-0.00741792
-0.00552011
-0.0172708
-0.0224748
-0.018793
-0.0154427
-0.0130614
-0.0106936
-0.00756235
-0.00322885
0.00206634
0.00726084
0.0106383
0.0103205
0.00534121
-0.00389859
-0.0153021
-0.0172827
-0.0289016
-0.0346834
-0.0321278
-0.0289532
-0.025652
-0.0214977
-0.0159474
-0.00881696
-0.000647148
0.00698943
0.0117846
0.0112896
0.00453079
-0.0074275
-0.0214462
-0.0266199
-0.0353523
-0.0406895
-0.0392579
-0.0367583
-0.0335404
-0.0289411
-0.0224109
-0.0137785
-0.00376189
0.00571643
0.0116708
0.0112565
0.00354957
-0.00967413
-0.0244519
-0.0316297
-0.0355221
-0.0396155
-0.0391074
-0.0376878
-0.0355172
-0.0318513
-0.0258915
-0.0172504
-0.00663513
0.00374783
0.0104594
0.0103354
0.0026558
-0.0101908
-0.023829
-0.0314413
-0.0297227
-0.0321
-0.0321441
-0.0320144
-0.0316628
-0.0300836
-0.0260506
-0.0187921
-0.00886673
0.00141503
0.00827569
0.00855662
0.00180963
-0.00918068
-0.0201041
-0.0264322
-0.0194727
-0.0199076
-0.0200355
-0.0211793
-0.0230456
-0.0242992
-0.0231449
-0.0183398
-0.0101932
-0.00105475
0.00533762
0.00598901
0.00082265
-0.00725785
-0.0144257
-0.0179816
-0.00682984
-0.00515975
-0.00489906
-0.00708755
-0.0112117
-0.0155315
-0.017732
-0.0160418
-0.0105008
-0.00332094
0.00199117
0.00288333
-0.000369362
-0.00500523
-0.00794488
-0.00776774
0.00634221
0.0101336
0.0111639
0.00831645
0.00223502
-0.00498247
-0.0105262
-0.0122129
-0.00975897
-0.00510284
-0.00129014
-0.00028639
-0.00156142
-0.00268189
-0.00143168
0.00279965
0.0186346
0.0242363
0.0262794
0.0231661
0.0156356
0.00602941
-0.00247421
-0.0074008
-0.00813255
-0.0062017
-0.0040307
-0.00297897
-0.00234819
-0.000291905
0.0046214
0.0126694
0.0288211
0.0354755
0.0385105
0.0355523
0.0272341
0.0160007
0.00527589
-0.00233652
-0.00591453
-0.00649522
-0.00581066
-0.00468601
-0.00245861
0.0021028
0.00967229
0.0208092
0.0354399
0.0420791
0.0459932
0.0436089
0.0353093
0.0235118
0.0115093
0.0020897
-0.0035984
-0.00608383
-0.00646638
-0.00521353
-0.00186651
0.00417561
0.012953
0.0260048
0.0372597
0.0427767
0.0473521
0.0459487
0.0386177
0.0274233
0.0154257
0.00540827
-0.00129116
-0.00475101
-0.00562149
-0.00424203
-0.000503273
0.00569278
0.0139382
0.0272714
0.0352396
0.0389249
0.0436055
0.0429143
0.0369598
0.0278677
0.0180503
0.0096842
0.00377408
0.000340571
-0.000976447
-0.00033503
0.00236081
0.0069818
0.0131689
0.0255957
0.0317108
0.0294835
0.0352521
0.0355802
0.0300195
0.0222102
0.0146409
0.00926362
0.00649256
0.00567094
0.0058159
0.00632121
0.00715031
0.00806533
0.00858446
0.0210738
0.0162497
0.0110678
0.0164162
0.0180393
0.0154272
0.0110383
0.00698382
0.00468938
0.00438916
0.00535461
0.00650649
0.00680958
0.00591835
0.00358243
-0.000358364
0.00814485
-0.000193681
-0.00745391
-0.00299914
-0.000636228
-0.000813422
-0.00162274
-0.00163308
-5.38412e-05
0.00293322
0.00630167
0.00859009
0.00844047
0.00530342
-0.000784006
-0.00923145
-0.00524633
-0.0158184
-0.0241925
-0.0209098
-0.0181702
-0.01641
-0.0141836
-0.0106248
-0.00544298
0.000777431
0.00662374
0.0102024
0.00973493
0.00453135
-0.00492849
-0.0171454
-0.0177963
-0.0279301
-0.0362513
-0.034275
-0.0316136
-0.0286855
-0.0244685
-0.0184318
-0.0105823
-0.00177245
0.00622236
0.0110524
0.0105015
0.00380872
-0.0080379
-0.0225964
-0.0272628
-0.0343492
-0.041487
-0.0406707
-0.038523
-0.0353897
-0.0305208
-0.0234771
-0.0143123
-0.00398463
0.00545297
0.0112746
0.0108455
0.00343884
-0.00942902
-0.0245157
-0.0318539
-0.0339793
-0.0391785
-0.0391459
-0.0378148
-0.0354207
-0.0312884
-0.0248145
-0.0158597
-0.00532126
0.00458022
0.0109913
0.0107824
0.00350556
-0.00887637
-0.0226536
-0.0307868
-0.027127
-0.0300944
-0.0303384
-0.0299741
-0.0290932
-0.0268876
-0.0223728
-0.0150343
-0.0055487
0.0038884
0.0100885
0.0102179
0.00385722
-0.00667403
-0.0176293
-0.0245351
-0.0154412
-0.0161388
-0.0162202
-0.0167605
-0.0178713
-0.0184164
-0.0168474
-0.0121897
-0.00480357
0.00321967
0.00871206
0.00910463
0.00424329
-0.00344152
-0.010596
-0.0146424
-0.00122014
0.00034784
0.00103971
-0.000443206
-0.0037254
-0.00735072
-0.00929205
-0.00795366
-0.00336643
0.00257442
0.00693286
0.00753199
0.00452236
0.000213372
-0.00272461
-0.00296146
0.0134188
0.0171276
0.0186638
0.0166112
0.0112903
0.00458511
-0.000868696
-0.00304349
-0.00156223
0.00195814
0.0049716
0.00577993
0.00476144
0.00388861
0.00506164
0.00892556
0.026885
0.0321965
0.0347571
0.0323247
0.0252904
0.0159068
0.00725965
0.00182636
0.000286485
0.0014047
0.00311775
0.00419272
0.00508896
0.00730525
0.0119858
0.0198111
0.0378022
0.0437007
0.0472065
0.0446621
0.0364514
0.0251304
0.0140236
0.00597474
0.001924
0.00101134
0.00167725
0.00305087
0.00555423
0.010109
0.0172041
0.028499
0.0445838
0.0497703
0.0540739
0.0517703
0.0431339
0.0308579
0.0184706
0.00885505
0.00316461
0.000867762
0.000850163
0.00246884
0.0059845
0.0117781
0.0197865
0.0335907
0.0458539
0.0491561
0.0540246
0.0523918
0.0442482
0.0323809
0.020137
0.0103198
0.00413053
0.00131078
0.00100077
0.00267182
0.00632649
0.0119901
0.0191883
0.0340021
0.0420108
0.0427559
0.0477674
0.0467889
0.0398533
0.029803
0.0194999
0.0113205
0.00623976
0.00400561
0.0037905
0.00497153
0.00759767
0.011456
0.016129
0.0304125
0.031613
0.0269622
0.0330521
0.0330831
0.027144
0.0190136
0.01179
0.00735853
0.00582079
0.0060831
0.00680135
0.00712858
0.00712802
0.00679258
0.0057754
0.0199289
0.0152251
0.00824655
0.0138373
0.0149858
0.0116654
0.00693896
0.00319238
0.00174673
0.00244213
0.00412317
0.0053848
0.00519701
0.0034472
0.000168664
-0.00465608
0.0058911
-0.00192809
-0.0103232
-0.00573711
-0.00378694
-0.00455181
-0.00556059
-0.00521013
-0.00286213
0.000925375
0.00472318
0.00686007
0.00604111
0.0020337
-0.00480921
-0.0137251
-0.00802261
-0.0175057
-0.0263572
-0.0230969
-0.0207297
-0.0193577
-0.0171907
-0.0132689
-0.00748533
-0.000777092
0.00514243
0.00830311
0.00713212
0.00122601
-0.00860319
-0.0207735
-0.0202162
-0.0289899
-0.0372254
-0.0354159
-0.033058
-0.0303196
-0.0260072
-0.0196134
-0.0113694
-0.00242767
0.00527186
0.00945089
0.00821644
0.00113678
-0.0106447
-0.0247213
-0.0287055
-0.0344216
-0.041181
-0.0405696
-0.0385665
-0.035371
-0.0302289
-0.0228342
-0.0134875
-0.0033531
0.00542697
0.0103949
0.00936959
0.0018708
-0.010588
-0.0249578
-0.0320245
-0.0328984
-0.0376954
-0.0377646
-0.0363358
-0.0335966
-0.0290093
-0.0221964
-0.0132728
-0.00326798
0.00573288
0.0110629
0.0103779
0.00324054
-0.0085296
-0.0215465
-0.0296162
-0.0248638
-0.0275679
-0.0277489
-0.0269979
-0.0255004
-0.0226941
-0.0178796
-0.0107766
-0.00210884
0.00615529
0.0112885
0.0109888
0.00491827
-0.00493067
-0.0152458
-0.0221725
-0.0120919
-0.012737
-0.0125324
-0.0124921
-0.0128042
-0.0126881
-0.0108973
-0.00665537
-0.000280475
0.00645568
0.0109273
0.0110184
0.00657571
-0.000444643
-0.00715372
-0.0113202
0.00295492
0.00437915
0.00532305
0.00465101
0.00223786
-0.000771514
-0.00261582
-0.0018261
0.00168768
0.00641205
0.00994023
0.0104496
0.00796329
0.00427798
0.00156145
0.000986618
0.0180417
0.0214069
0.0232483
0.0219282
0.0173329
0.011056
0.00553649
0.00279402
0.00332922
0.00591179
0.00844565
0.00944189
0.00904416
0.00869957
0.00983998
0.0131229
0.0315482
0.0362341
0.0390461
0.0371635
0.0305657
0.0213285
0.0124868
0.00655593
0.00437642
0.00500642
0.00668308
0.00821686
0.00977019
0.0123339
0.0166862
0.0238743
0.0421278
0.0469671
0.0506723
0.0484195
0.0402556
0.0287567
0.0173984
0.00904791
0.00478326
0.00390796
0.00496486
0.00698048
0.0100475
0.0146778
0.0211073
0.032052
0.0482321
0.0517991
0.0563212
0.0540191
0.0450288
0.0323453
0.0196886
0.0100476
0.0046017
0.0028231
0.00349659
0.00577316
0.00963641
0.0151815
0.0221973
0.0362631
0.0484482
0.0496754
0.0548207
0.052912
0.0440757
0.031617
0.0191769
0.00963659
0.00410544
0.00212161
0.00260206
0.00474716
0.00845017
0.0135463
0.0195257
0.0353765
0.0427453
0.041154
0.0466653
0.045522
0.0377427
0.0271058
0.0167406
0.00918573
0.00522659
0.0041979
0.00487324
0.00632279
0.00843495
0.0111355
0.014129
0.0298056
0.0241703
0.0199737
0.0265763
0.0266368
0.0205681
0.0124443
0.00566899
0.00204756
0.00138174
0.00222372
0.00297148
0.00269713
0.00161565
5.499e-05
-0.00166402
0.013198
0.00757882
0.00210216
0.00823104
0.00924577
0.0055886
0.00067531
-0.00284261
-0.0037576
-0.00251036
-0.000590974
0.000402802
-0.000531417
-0.00329057
-0.00747712
-0.012258
-0.00089626
-0.00908226
-0.015088
-0.0100116
-0.00817847
-0.00918773
-0.0102918
-0.00968251
-0.0068515
-0.00270258
0.00103138
0.0025611
0.000717197
-0.00441081
-0.0120291
-0.0204959
-0.0140685
-0.0232706
-0.0291915
-0.0255726
-0.0233104
-0.0220834
-0.019905
-0.0157583
-0.00967147
-0.002912
0.00259049
0.00485251
0.0025061
-0.00433513
-0.0145688
-0.025763
-0.0246302
-0.0327631
-0.0381027
-0.0360302
-0.0337393
-0.0310156
-0.0266006
-0.0200016
-0.0116646
-0.0029986
0.00395982
0.00705368
0.00473302
-0.00304553
-0.0148003
-0.0275109
-0.0309855
-0.0360362
-0.0404727
-0.039644
-0.0375999
-0.034239
-0.0288498
-0.0212549
-0.0120019
-0.00247369
0.00536804
0.00916574
0.00720393
-0.000658044
-0.0127147
-0.0256093
-0.0321296
-0.0326234
-0.0359835
-0.0358598
-0.0342099
-0.0310782
-0.0260783
-0.0190632
-0.0103834
-0.00115275
0.00671905
0.0108882
0.00949549
0.00233608
-0.00878126
-0.0205105
-0.0279903
-0.0233015
-0.0254789
-0.0254416
-0.0242723
-0.0221612
-0.0188064
-0.0138175
-0.00709256
0.000661595
0.00774971
0.0118819
0.0111502
0.00536354
-0.00371914
-0.0130883
-0.0195053
-0.0099821
-0.0107642
-0.0103462
-0.00973868
-0.00929167
-0.0085726
-0.00667703
-0.00292655
0.00247566
0.00812072
0.0118385
0.0118407
0.00793019
0.00171869
-0.00443091
-0.00839152
0.00487401
0.00579854
0.0068683
0.00681954
0.0051747
0.00267899
0.000854793
0.00110317
0.00371723
0.00757671
0.0106972
0.0114792
0.00975911
0.00681039
0.00430002
0.00344308
0.0191256
0.021823
0.0236935
0.02293
0.0189742
0.0130551
0.00743678
0.00417506
0.0040068
0.00607037
0.0085954
0.0101804
0.0106615
0.0109314
0.0119781
0.014507
0.0312833
0.0352344
0.0380086
0.0365291
0.0303274
0.0212285
0.0122091
0.00588714
0.00332555
0.0038515
0.00589336
0.00820773
0.0105992
0.0135641
0.0175496
0.0237727
0.0402567
0.0442304
0.0479627
0.0459414
0.0378852
0.0263012
0.0147508
0.0062293
0.00196782
0.00138907
0.00307527
0.00589091
0.00958878
0.0143109
0.0201101
0.0302727
0.0447043
0.0473443
0.0520419
0.0498182
0.0406496
0.0277014
0.0148803
0.00530984
0.000214205
-0.000969867
0.000439855
0.00337637
0.00755671
0.0128513
0.0190235
0.032815
0.0433325
0.0437765
0.0493181
0.0473544
0.0381127
0.0252334
0.0126701
0.00340349
-0.00153723
-0.00277199
-0.00160202
0.000947684
0.00460745
0.0091212
0.0141507
0.0303586
0.0359116
0.0340044
0.0401605
0.0389719
0.0309266
0.0199716
0.00984363
0.00307836
0.000170696
8.34709e-05
0.00123811
0.00249586
0.00374467
0.00510953
0.00679865
0.0230994
0.0114947
0.0105744
0.0177112
0.0180211
0.0118661
0.00374998
-0.00279557
-0.00604772
-0.00640812
-0.00553719
-0.00514127
-0.00611458
-0.0080957
-0.0103663
-0.0116312
0.00283439
-0.00398715
-0.0052205
0.00143605
0.00237038
-0.00124922
-0.00624431
-0.00965494
-0.0102794
-0.00883015
-0.00700327
-0.00648184
-0.00819142
-0.0118477
-0.0166406
-0.0208027
-0.00991627
-0.0184602
-0.0197511
-0.0142167
-0.0124166
-0.0135006
-0.0146566
-0.0138885
-0.0108056
-0.0065766
-0.00313853
-0.00231669
-0.00512078
-0.0112019
-0.0192589
-0.0265392
-0.0207303
-0.0296956
-0.031053
-0.027064
-0.0248713
-0.0237284
-0.0216069
-0.0172886
-0.0110663
-0.00442181
0.000567211
0.00196081
-0.00136041
-0.00904245
-0.0194206
-0.0290763
-0.0283367
-0.0359423
-0.0375768
-0.0352029
-0.0329745
-0.030274
-0.0258073
-0.019075
-0.0107258
-0.00237408
0.00388201
0.00602271
0.00279015
-0.00555198
-0.0171148
-0.0281839
-0.0315928
-0.0362863
-0.0383866
-0.0373333
-0.0352744
-0.0317921
-0.0262019
-0.0184407
-0.00927303
-0.000202763
0.00679518
0.00965605
0.00697055
-0.0011352
-0.0127293
-0.0241459
-0.0300935
-0.030883
-0.0334041
-0.0331029
-0.0313104
-0.0278584
-0.0224795
-0.0152509
-0.00673765
0.00190371
0.00893029
0.0123014
0.0104756
0.00341356
-0.00709847
-0.0177155
-0.0243063
-0.0208429
-0.0233776
-0.0232335
-0.0217749
-0.0191451
-0.0152824
-0.0100699
-0.0035871
0.0035304
0.00986189
0.0134301
0.0126458
0.00728294
-0.00114608
-0.0098714