/*--------------------------------*- C++ -*----------------------------------*\
| =========                 |                                                 |
| \\      /  F ield         | OpenFOAM: The Open Source CFD Toolbox           |
|  \\    /   O peration     | Version:  3.0.0                                 |
|   \\  /    A nd           | Web:      www.OpenFOAM.org                      |
|    \\/     M anipulation  |                                                 |
\*---------------------------------------------------------------------------*/
FoamFile
{
    version     2.0;
    format      ascii;
    class       surfaceScalarField;
    location    "1.75";
    object      phi;
}
// * * * * * * * * * * * * * * * * * * * * * * * * * * * * * * * * * * * * * //

dimensions      [0 3 -1 0 0 0 0];

internalField   nonuniform List<scalar> 
11520
(
-0.000229317
5.14288e-05
0.000140961
-0.000125943
6.55833e-05
0.000140924
-1.08034e-05
7.97715e-05
0.000115464
9.60896e-05
9.6233e-05
6.55675e-05
0.000170082
0.000118188
-1.35681e-06
0.000189937
0.000147339
-7.43689e-05
0.000148635
0.000180587
-0.000142328
5.79555e-05
0.00020725
-0.00019569
-5.68256e-05
0.000212948
-0.000226902
-0.000169323
0.000189486
-0.000230868
-0.000261894
0.000142811
-0.00020674
-0.000327459
9.03022e-05
-0.000158586
-0.000365002
4.922e-05
-9.44122e-05
-0.000374786
2.77352e-05
-2.4178e-05
-0.000356257
2.39841e-05
4.16836e-05
2.9706e-05
9.09542e-05
-0.000262421
9.32689e-06
0.000143553
-0.000160055
4.0318e-05
0.000113942
-4.42024e-05
7.01622e-05
5.93792e-05
6.38003e-05
0.000101737
-1.55889e-05
0.000139119
0.00013783
-9.90829e-05
0.000161924
0.000177532
-0.00017621
0.000126697
0.000212069
-0.000233847
4.59546e-05
0.000225134
-0.000263737
-5.62888e-05
0.000202082
-0.000262733
-0.000157167
0.000142762
-0.000231912
-0.000243406
6.55324e-05
-0.000177057
-0.000310716
-3.24501e-06
-0.000107342
-0.000357229
-4.57794e-05
-3.3067e-05
-0.000379805
-5.77808e-05
3.57888e-05
-0.000373862
-4.67726e-05
9.04394e-05
-2.46563e-05
0.000121298
-0.000295063
-3.80736e-05
0.0001287
-0.000191061
1.83636e-06
6.91008e-05
-6.95589e-05
4.0699e-05
-1.06659e-05
4.71e-05
8.24416e-05
-0.000102393
0.000134455
0.0001294
-0.000191315
0.000173391
0.000177751
-0.000260612
0.000158003
0.00021342
-0.000297373
9.79407e-05
0.00021529
-0.000295943
1.20237e-05
0.000169562
-0.000258292
-8.23754e-05
8.44168e-05
-0.000192701
-0.000174988
-1.1217e-05
-0.000111707
-0.00025957
-8.61438e-05
-2.8605e-05
-0.0003295
-0.000124091
4.54955e-05
-0.000375485
-0.000126754
0.000102539
-0.000388618
-0.000105657
0.000136393
-7.3847e-05
0.00014184
-0.000320181
-8.63005e-05
9.82006e-05
-0.000212396
-4.67793e-05
1.20188e-05
-8.14602e-05
-6.8415e-06
-8.58141e-05
5.00299e-05
3.84561e-05
-0.000184485
0.000158052
9.10758e-05
-0.000267669
0.000223129
0.000145133
-0.000319174
0.000236199
0.000182847
-0.000328146
0.000200775
0.000179833
-0.000292393
0.000128661
0.000123186
-0.000219255
3.25318e-05
2.73625e-05
-0.000123887
-7.70373e-05
-7.20967e-05
-2.47334e-05
-0.000189084
-0.000142886
6.26435e-05
-0.000289528
-0.000173115
0.000128052
-0.000363017
-0.000169356
0.000165875
-0.000397015
-0.000145274
0.000173162
-0.000112373
0.000149998
-0.000332865
-0.00012979
5.54726e-05
-0.000220551
-9.88233e-05
-5.02748e-05
-7.92754e-05
-6.55142e-05
-0.000157367
6.88401e-05
-2.35505e-05
-0.000252601
0.000200294
2.88607e-05
-0.00032048
0.000294505
8.50796e-05
-0.00034736
0.000337829
0.000126055
-0.000325662
0.000326149
0.000125916
-0.000256913
0.000263871
7.18862e-05
-0.000153536
0.000160436
-1.87603e-05
-3.68239e-05
2.8846e-05
-0.000108508
7.08626e-05
-0.000113122
-0.000167476
0.000153454
-0.000244209
-0.000188926
0.000203241
-0.000343755
-0.00018282
0.00021725
-0.00039658
-0.000162857
0.000195688
-0.000137007
0.00014418
-0.000331765
-0.000161568
5.01979e-06
-0.000216034
-0.000145432
-0.000110434
-6.63149e-05
-0.000124369
-0.000216294
9.56352e-05
-9.15044e-05
-0.000298389
0.000247012
-4.47545e-05
-0.000343637
0.000366334
9.85335e-06
-0.000342284
0.00043583
5.42599e-05
-0.00029073
0.00044428
6.29532e-05
-0.000194241
0.000389212
2.27891e-05
-6.972e-05
0.00027746
-4.95672e-05
5.71256e-05
0.000125344
-0.000119007
0.000162326
-4.28102e-05
-0.00016106
0.000231845
-0.000199472
-0.000173805
0.000261162
-0.00031989
-0.000168938
0.000249593
-0.000387063
-0.000158356
0.000200315
-0.000145531
0.000124089
-0.000319319
-0.000175404
-4.52863e-05
-0.000201615
-0.00017723
-0.000159871
-4.71639e-05
-0.000171919
-0.00025377
0.000123078
-0.000152084
-0.000314413
0.000287132
-0.000115075
-0.00033238
0.000423297
-6.55064e-05
-0.000302457
0.000511288
-1.90569e-05
-0.000225265
0.000534761
7.39909e-07
-0.000109751
0.000485518
-1.87049e-05
2.31884e-05
0.000367875
-6.43704e-05
0.000147229
0.000200594
-0.000106986
0.000238617
1.35379e-05
-0.000128967
0.000288208
-0.000160774
-0.000133274
0.000294233
-0.000294899
-0.000131679
0.00025824
-0.000370736
-0.000133093
0.000185653
-0.000136414
9.14906e-05
-0.000299409
-0.000167482
-8.90419e-05
-0.000181182
-0.000187865
-0.000190168
-2.58138e-05
-0.000199474
-0.000262348
0.000146774
-0.000194468
-0.000295702
0.000315636
-0.000169479
-0.000285128
0.000459572
-0.000127568
-0.000229929
0.000557489
-8.15584e-05
-0.000134743
0.000590087
-5.14201e-05
-1.21352e-05
0.000544962
-4.91535e-05
0.000115885
0.00042413
-6.47249e-05
0.00022244
0.000248134
-7.72432e-05
0.000290423
5.04328e-05
-7.79115e-05
0.000315307
-0.000133114
-7.38188e-05
0.000298047
-0.000273168
-7.59132e-05
0.000241532
-0.000351587
-8.94362e-05
0.000153147
-0.000109334
5.07978e-05
-0.000275964
-0.000137474
-0.000117895
-0.000158195
-0.000175228
-0.000194838
-4.87254e-06
-0.000202881
-0.000238304
0.000165281
-0.000212426
-0.000242289
0.000332573
-0.000199972
-0.000205989
0.000476717
-0.000167254
-0.000132606
0.00057685
-0.000124342
-3.01373e-05
0.000612254
-8.71937e-05
8.65414e-05
0.000568022
-6.51363e-05
0.000194745
0.000445016
-5.1322e-05
0.000272511
0.000264956
-3.42858e-05
0.000310355
6.38081e-05
-1.42453e-05
0.000308992
-0.00012071
-2.07262e-06
0.000271294
-0.000258963
-7.25093e-06
0.000201069
-0.000333916
-3.13138e-05
0.000107147
-6.60369e-05
8.30288e-06
-0.000252276
-8.98085e-05
-0.000126124
-0.000135185
-0.000141838
-0.000171521
1.43527e-05
-0.000182827
-0.000183714
0.000179045
-0.000204892
-0.000160887
0.000340637
-0.00020389
-0.000105796
0.00047966
-0.000180746
-2.459e-05
0.000575475
-0.000143087
7.26725e-05
0.000606877
-0.000102294
0.000169851
0.000558387
-6.41332e-05
0.000246545
0.000431512
-2.4667e-05
0.000288431
0.000250097
1.81457e-05
0.000294107
5.15407e-05
5.61983e-05
0.000268651
-0.000126287
7.50454e-05
0.000216417
-0.000255311
6.73744e-05
0.000141884
-0.000320859
3.49576e-05
5.44318e-05
-1.18343e-05
-2.80523e-05
-0.000230459
-3.26882e-05
-0.000111526
-0.000113898
-9.41539e-05
-0.000123287
3.12099e-05
-0.000144035
-0.00010693
0.000189151
-0.00017501
-6.43517e-05
0.000342718
-0.000183176
-1.01247e-06
0.00047268
-0.000169007
7.60858e-05
0.000558208
-0.000137555
0.000155525
0.000578126
-9.55398e-05
0.000222088
0.000518674
-4.52241e-05
0.000260395
0.000385031
1.42996e-05
0.000264771
0.000203866
7.6942e-05
0.000241184
1.3427e-05
0.000126926
0.000197945
-0.000150402
0.000149321
0.000140024
-0.000263229
0.000138979
7.23293e-05
-0.000314099
0.000100426
3.41484e-06
4.52467e-05
-5.25532e-05
-0.000211956
2.33966e-05
-7.62771e-05
-9.57239e-05
-4.11446e-05
-5.82607e-05
4.50155e-05
-9.41627e-05
-2.11074e-05
0.000195823
-0.000129392
3.05541e-05
0.000339668
-0.000143511
9.04712e-05
0.00045688
-0.000136359
0.000150948
0.000525818
-0.00011047
0.000202026
0.000526457
-6.81569e-05
0.000231432
0.000449712
-9.35607e-06
0.000230659
0.000306958
6.3199e-05
0.000202364
0.000128802
0.000136048
0.000157611
-4.75997e-05
0.000189832
0.000106094
-0.000190627
0.000210866
5.32766e-05
-0.000281414
0.000196661
3.48479e-06
-0.000313569
0.000154103
-3.71186e-05
9.5022e-05
-6.04892e-05
-0.000198366
6.80147e-05
-2.63356e-05
-8.25322e-05
7.84998e-06
1.22773e-05
5.3993e-05
-4.1749e-05
5.89067e-05
0.000197251
-7.58791e-05
0.000107374
0.0003295
-9.17579e-05
0.000151609
0.000429636
-8.84568e-05
0.000185476
0.00047556
-6.58705e-05
0.00020185
0.000450454
-2.30134e-05
0.000193735
0.000352736
4.03094e-05
0.000160012
0.00020173
0.000116502
0.000109484
3.10507e-05
0.000187853
5.54304e-05
-0.000125032
0.000235164
7.59563e-06
-0.000241704
0.000248386
-2.92072e-05
-0.000306707
0.000228852
-5.22949e-05
-0.00031833
0.000185006
-5.95848e-05
0.000127551
-5.0122e-05
-0.000192069
9.35211e-05
2.98729e-05
-7.71812e-05
4.53585e-05
7.66195e-05
5.49599e-05
5.82823e-06
0.000119768
0.000189857
-2.15904e-05
0.000152936
0.000308084
-3.44117e-05
0.000171575
0.000386912
-3.06512e-05
0.000172606
0.000405109
-8.01287e-06
0.000153745
0.00035152
3.56827e-05
0.000114475
0.000233952
9.76469e-05
5.98766e-05
7.93536e-05
0.000165931
1.63497e-06
-7.77426e-05
0.000222031
-4.76476e-05
-0.000208407
0.000251609
-7.97617e-05
-0.000295898
0.000251159
-9.17343e-05
-0.000334875
0.000226047
-8.40527e-05
-0.000327381
0.000185
-5.93114e-05
0.000135746
-2.31014e-05
-0.000196373
9.74188e-05
8.30168e-05
-8.30703e-05
6.77604e-05
0.000124526
4.44705e-05
4.38912e-05
0.00015223
0.000170147
2.82257e-05
0.000160497
0.000272378
2.33947e-05
0.000147493
0.000327646
3.24644e-05
0.00011457
0.000317577
5.86114e-05
6.54615e-05
0.000238698
0.000101656
6.12216e-06
0.000108048
0.0001544
-5.41456e-05
-4.24584e-05
0.000201442
-0.000104299
-0.000180304
0.000228466
-0.000134511
-0.000283736
0.000230776
-0.000140476
-0.00034418
0.000213407
-0.000122966
-0.000361836
0.000184935
-8.62837e-05
-0.000340552
0.000152253
-3.68184e-05
0.000118057
1.54386e-05
-0.000213642
0.000123914
-0.000102265
0.000148759
2.107e-05
0.000152334
0.000137866
0.000130684
0.000224477
8.53294e-05
0.000258071
2.22128e-05
0.000225019
-4.94702e-05
0.000130926
-0.000118083
-1.18241e-06
-0.00017171
-0.00013878
-0.000200111
-0.000254745
-0.000199083
-0.000335109
-0.000171144
-0.000377271
-0.000123005
-0.000383743
-6.28036e-05
-0.000357542
1.19065e-06
5.72936e-05
-0.000244468
-6.88281e-05
9.58442e-05
-0.000141163
-5.66157e-05
5.41277e-05
-3.24847e-05
-3.01003e-05
1.55275e-06
6.0804e-05
1.40729e-05
-5.26786e-05
0.000116298
7.58363e-05
-9.7549e-05
0.000118839
0.000149222
-0.000125892
6.75936e-05
0.000221884
-0.000136992
-2.30584e-05
0.000276567
-0.000134125
-0.000130124
0.000296493
-0.000120272
-0.000231576
0.000273884
-9.59761e-05
-0.000313002
0.000215205
-6.11499e-05
-0.00036859
0.000138686
-1.81587e-05
-0.000397697
6.44195e-05
2.71335e-05
-0.000400501
5.47807e-06
6.6668e-05
-0.000376537
-3.39894e-05
9.27824e-05
-5.43504e-05
9.9824e-05
-0.000251435
-0.000122401
0.000116241
-0.000148898
-9.14887e-05
4.62775e-05
-3.9336e-05
-4.72285e-05
-3.30547e-05
5.56679e-05
1.34635e-05
-0.000109983
0.000113847
8.89733e-05
-0.000170399
0.000120224
0.000170656
-0.00020402
7.41479e-05
0.000241947
-0.000207834
-9.89733e-06
0.000281914
-0.000185039
-0.000109242
0.000274541
-0.000141437
-0.000202952
0.00021853
-8.2847e-05
-0.000279562
0.000130728
-1.59709e-05
-0.000336081
3.73264e-05
5.05365e-05
-0.000372254
-3.96635e-05
0.000107189
-0.000385764
-9.08272e-05
0.000145604
-0.000372465
-0.000116464
0.000159615
-0.000120039
0.00014684
-0.000256675
-0.000182059
0.00011017
-0.000151753
-0.000139799
1.24894e-05
-3.61965e-05
-8.44892e-05
-8.89617e-05
6.76822e-05
-1.28451e-05
-0.000179963
0.000137756
7.24239e-05
-0.000244839
0.000159476
0.000160505
-0.000272182
0.000131328
0.000231329
-0.000258606
6.50844e-05
0.000260671
-0.000208456
-2.0464e-05
0.000232811
-0.000131014
-0.000109112
0.000152661
-3.81843e-05
-0.000191969
4.58431e-05
5.60352e-05
-0.000265181
-5.56408e-05
0.000137574
-0.000323891
-0.000130528
0.00019507
-0.000360043
-0.000173632
0.000221495
-0.000364556
-0.000189567
0.000214008
-0.00018263
0.000174738
-0.000256652
-0.000239076
7.96815e-05
-0.000148134
-0.000194587
-4.17113e-05
-2.37246e-05
-0.000136546
-0.000158166
9.41193e-05
-6.14463e-05
-0.000253727
0.000183939
2.7667e-05
-0.000312732
0.000230713
0.00011912
-0.000324564
0.000229772
0.000190999
-0.000286875
0.000187214
0.000216662
-0.000205827
0.0001154
0.000179934
-9.45641e-05
2.59601e-05
8.95824e-05
2.86319e-05
-7.31105e-05
-2.2796e-05
0.000142976
-0.000173603
-0.000122826
0.000230321
-0.000263368
-0.000191995
0.000279284
-0.000327179
-0.000229477
0.000285531
-0.000351652
-0.000242124
0.000250192
-0.000233049
0.000180952
-0.000250508
-0.000284979
2.86982e-05
-0.000138775
-0.000246969
-0.000109625
-5.65209e-06
-0.000194651
-0.000232386
0.000127287
-0.000124031
-0.000322955
0.000239575
-3.77242e-05
-0.000367377
0.000315279
5.33752e-05
-0.000357319
0.000345248
0.000127685
-0.000292317
0.000328092
0.000157404
-0.000180499
0.000268461
0.000124812
-3.87818e-05
0.000173492
3.93715e-05
0.000108355
5.26695e-05
-6.52977e-05
0.000234187
-7.91448e-05
-0.000155721
0.000318163
-0.000201232
-0.000217294
0.000350628
-0.000291811
-0.000252535
0.000330886
-0.000334411
-0.000268279
0.000264443
-0.000264971
0.000164876
-0.000239788
-0.000312982
-3.65787e-05
-0.000126358
-0.000288161
-0.000182672
1.31518e-05
-0.000248487
-0.000301968
0.000158568
-0.000189188
-0.000378648
0.000290633
-0.000111625
-0.000401802
0.000392686
-2.46388e-05
-0.000366323
0.000451423
5.23199e-05
-0.000274103
0.000457955
9.18221e-05
-0.000135191
0.000408744
7.42363e-05
3.00661e-05
0.00030673
6.7077e-06
0.000191804
0.000163951
-7.90869e-05
0.000318894
3.03227e-06
-0.000153664
0.000390707
-0.000146637
-0.000206996
0.000400532
-0.000258732
-0.000242715
0.000351868
-0.000315068
-0.000266201
0.000254573
-0.000274503
0.000127943
-0.000227297
-0.000318179
-0.00010735
-0.000113864
-0.000311261
-0.000250204
2.88885e-05
-0.00028902
-0.000355989
0.000182248
-0.000245692
-0.000411268
0.000328115
-0.000180898
-0.000408974
0.00044952
-0.000100946
-0.000347555
0.000530282
-2.23012e-05
-0.000231406
0.000555514
2.93098e-05
-7.24708e-05
0.000514135
3.28804e-05
0.000105923
0.000405665
-7.69728e-06
0.000270104
0.000244943
-6.68944e-05
0.000387147
6.22455e-05
-0.000121523
0.000438765
-0.000107016
-0.000165769
0.000422268
-0.000232907
-0.000203483
0.000344899
-0.000297251
-0.000237035
0.000220831
-0.000260123
7.44164e-05
-0.000216216
-0.000300019
-0.000173405
-0.000103587
-0.000313017
-0.000301042
3.96694e-05
-0.000310364
-0.00038426
0.000196261
-0.000284925
-0.00041306
0.000349074
-0.000234488
-0.000384353
0.000481159
-0.000163087
-0.000299874
0.000574733
-8.43226e-05
-0.000166296
0.000610841
-2.12951e-05
2.36171e-06
0.000573573
5.00238e-06
0.000181032
0.000459257
-4.76659e-06
0.000333824
0.000286367
-3.35056e-05
0.000429924
9.0803e-05
-6.60561e-05
0.000455405
-8.78673e-05
-0.000100756
0.000411704
-0.000218755
-0.000140584
0.000309521
-0.000284869
-0.000184516
0.000166741
-0.000223266
1.14931e-05
-0.000208425
-0.00026135
-0.000223935
-9.65977e-05
-0.000293886
-0.000325796
4.52304e-05
-0.000310237
-0.000380259
0.000201043
-0.000301846
-0.000381181
0.000354558
-0.000265037
-0.000328955
0.000488996
-0.000202274
-0.000227858
0.000585825
-0.000124909
-8.63798e-05
0.000624065
-5.29602e-05
7.99665e-05
0.000584753
-5.4257e-06
0.000244485
0.00046473
1.45219e-05
0.000373246
0.000285321
1.61665e-05
0.000440092
8.61123e-05
5.49368e-06
0.000436651
-9.19596e-05
-1.9894e-05
0.000368504
-0.000219145
-6.149e-05
0.000249161
-0.000280779
-0.000115045
9.93094e-05
-0.000168928
-5.10185e-05
-0.000204512
-0.00020818
-0.000250039
-9.30126e-05
-0.000257465
-0.000319442
4.6149e-05
-0.000289598
-0.000343515
0.000198104
-0.000295048
-0.00031964
0.000347266
-0.000269332
-0.000250663
0.000476957
-0.000214199
-0.000142355
0.000568289
-0.000139189
-4.37986e-06
0.000599465
-6.11982e-05
0.000146913
0.000552063
3.60346e-06
0.000284918
0.000425113
4.99275e-05
0.000379975
0.000243801
7.82135e-05
0.000413372
4.92659e-05
8.59197e-05
0.00038276
-0.000119077
6.79985e-05
0.000296867
-0.000234637
2.44845e-05
0.00017147
-0.00028609
-3.75376e-05
2.83765e-05
-0.000104583
-0.00010323
-0.00020416
-0.00014865
-0.000246853
-9.25332e-05
-0.000209543
-0.000282836
4.31605e-05
-0.000252038
-0.000280183
0.000189079
-0.000266435
-0.000238883
0.000329956
-0.000248265
-0.000162956
0.00044915
-0.000198818
-5.84892e-05
0.000527268
-0.00012637
6.45884e-05
0.00054317
-4.46015e-05
0.000189589
0.000481441
3.33826e-05
0.000292344
0.000346704
9.96589e-05
0.000349777
0.000167686
0.000147324
0.000351091
-1.50239e-05
0.000167192
0.000299383
-0.000165892
0.000152826
0.000206064
-0.000263194
0.0001063
8.78153e-05
-0.000299583
3.70092e-05
-3.47427e-05
-4.01478e-05
-0.000136613
-0.000206686
-9.16961e-05
-0.000214652
-9.48256e-05
-0.00015724
-0.000222424
3.6833e-05
-0.000203294
-0.00020151
0.000175085
-0.000220835
-0.000153298
0.000304757
-0.000205824
-8.164e-05
0.000408495
-0.000159554
7.94594e-06
0.00046675
-8.89298e-05
0.000106331
0.000460497
-4.76194e-06
0.000197846
0.000380356
8.17353e-05
0.000262447
0.000238058
0.000159804
0.000284518
6.56474e-05
0.000216656
0.000260689
-9.90155e-05
0.000239621
0.000198328
-0.000226326
0.000223184
0.000110229
-0.000300564
0.000171907
1.21158e-05
-0.000318637
9.7159e-05
-7.91955e-05
1.42975e-05
-0.000145464
-0.00021149
-4.59713e-05
-0.000158591
-9.97318e-05
-0.000108228
-0.000148493
2.7413e-05
-0.000150508
-0.000121025
0.000156857
-0.000165102
-7.78035e-05
0.000272733
-0.000148676
-2.14153e-05
0.000356736
-0.00010244
4.4359e-05
0.000389808
-3.20529e-05
0.000111901
0.000357058
5.34861e-05
0.000168237
0.000257379
0.000143025
0.000198402
0.000110213
0.00022266
0.000193794
-5.0727e-05
0.000276375
0.000156652
-0.000192274
0.000291951
9.68124e-05
-0.000292187
0.000267191
2.66988e-05
-0.000341147
0.000209801
-4.1229e-05
-0.000339924
0.000132508
-9.61568e-05
4.99938e-05
-0.000127722
-0.00021823
-1.86366e-05
-8.76268e-05
-0.000107229
-6.96417e-05
-7.29676e-05
1.49663e-05
-0.000101187
-5.17479e-05
0.000134659
-0.000107045
-2.48139e-05
0.000234655
-8.45712e-05
7.47399e-06
0.000295821
-3.4906e-05
4.39059e-05
0.000300788
3.70035e-05
7.97213e-05
0.000240876
0.000122258
0.000105614
0.000124293
0.000207782
0.000111703
-2.28877e-05
0.00027704
9.44347e-05
-0.000167541
0.000314384
5.89964e-05
-0.000282822
0.000312238
1.52335e-05
-0.00035437
0.000274057
-2.70532e-05
-0.000378915
0.000210846
-6.05528e-05
-0.000360228
0.000135526
-8.10163e-05
6.0437e-05
-8.5378e-05
-0.00022664
-1.37208e-05
-1.37387e-05
-0.000117169
-4.66768e-05
-7.91062e-06
-1.9556e-07
-6.16711e-05
-4.25858e-06
0.000109175
-5.3846e-05
-2.07173e-06
0.000192123
-2.1116e-05
1.08935e-06
0.000229443
3.51255e-05
7.2189e-06
0.000207172
0.000109457
1.52787e-05
0.000124131
0.000191037
2.03838e-05
-2.90892e-06
0.000263627
1.70496e-05
-0.000143976
0.000309615
4.19343e-06
-0.00026868
0.000318203
-1.36264e-05
-0.000357465
0.000290397
-2.98503e-05
-0.000403435
0.00023675
-3.96885e-05
-0.000408097
0.000170719
-4.1494e-05
-0.000376686
0.000103498
-3.62013e-05
4.33209e-05
-2.56513e-05
-0.000235256
4.863e-05
-0.000128207
3.51398e-05
-1.65269e-05
1.4317e-05
8.26912e-05
-1.14954e-05
0.000149086
-3.73197e-05
0.000164516
-5.83318e-05
0.000120327
-7.17983e-05
2.35888e-05
-7.7787e-05
-0.000103163
-7.73882e-05
-0.000230319
-7.06641e-05
-0.000333419
-5.7149e-05
-0.000400088
-3.76048e-05
-0.000428594
-1.4607e-05
-0.000422379
8.18034e-06
-0.000385928
2.7164e-05
3.88617e-05
-0.000194893
-0.000175045
5.87751e-05
-0.000106925
-0.000163723
-1.29812e-05
-2.55176e-05
-0.000124907
-8.24819e-05
3.15434e-05
-5.58051e-05
-0.000133766
4.93825e-05
3.93271e-05
-0.000155207
2.27461e-05
0.000148365
-0.000145492
-4.14734e-05
0.00025263
-0.000112812
-0.000127573
0.000330903
-6.90746e-05
-0.000217042
0.000364623
-2.36782e-05
-0.000294327
0.000345124
1.93143e-05
-0.000349795
0.000277858
5.95638e-05
-0.0003801
0.000180832
9.63161e-05
-0.000386138
7.65321e-05
0.000125616
-0.000369646
-1.72664e-05
0.00014083
-0.000331725
-8.90263e-05
0.000135374
-0.000133614
0.000106883
-0.000181692
-0.000231063
9.4664e-05
-9.47206e-05
-0.000199838
-4.57975e-06
-1.16902e-05
-0.000141999
-9.89935e-05
4.96121e-05
-5.61767e-05
-0.000170914
7.38422e-05
5.14361e-05
-0.000206738
5.42749e-05
0.000166346
-0.000202434
-4.30033e-06
0.000267124
-0.000163753
-8.66008e-05
0.00033018
-0.000102015
-0.000173354
0.000338087
-2.81475e-05
-0.000247866
0.000287298
4.94915e-05
-0.000301379
0.000191585
0.000123815
-0.00033296
7.63768e-05
0.000186572
-0.000344788
-3.29303e-05
0.00022848
-0.000337651
-0.000120333
0.000241533
-0.000309273
-0.000179264
0.000221475
-0.000206585
0.000169825
-0.000168158
-0.000290938
9.57838e-05
-7.89334e-05
-0.000246628
-2.99453e-05
1.09243e-05
-0.000176391
-0.000144427
8.29787e-05
-7.97693e-05
-0.000228425
0.000121557
3.57967e-05
-0.000267778
0.000119045
0.000154421
-0.000257746
7.83546e-05
0.000252597
-0.000203388
1.16723e-05
0.000304604
-0.000116198
-6.43713e-05
0.000292953
-9.83587e-06
-0.000135978
0.000218511
0.000102209
-0.00019638
0.000102555
0.000205467
-0.000244347
-2.31815e-05
0.000285099
-0.000278329
-0.000132461
0.000328583
-0.000293543
-0.000212418
0.000328795
-0.000282963
-0.000260836
0.000284999
-0.00027626
0.000203871
-0.00015377
-0.000344302
6.33525e-05
-6.19487e-05
-0.000295866
-8.42945e-05
3.67815e-05
-0.000221813
-0.000211474
0.00012399
-0.0001223
-0.000298405
0.000183974
-5.08398e-06
-0.000331835
0.000207612
0.000113962
-0.000307743
0.000194021
0.000210754
-0.000231441
0.000150096
0.000257994
-0.000115291
8.70811e-05
0.00023729
2.41138e-05
1.49077e-05
0.00015191
0.000167407
-6.07143e-05
2.8351e-05
0.000292803
-0.000135178
-9.82855e-05
0.000379889
-0.000200235
-0.000202876
0.000414758
-0.000243699
-0.000276552
0.000393129
-0.000253767
-0.000319699
0.000319125
-0.000330968
0.000205356
-0.000140319
-0.000382035
2.36846e-06
-4.7048e-05
-0.000338468
-0.000160294
5.9844e-05
-0.000269643
-0.000291448
0.000162781
-0.000175852
-0.00037234
0.000246441
-6.40551e-05
-0.000392066
0.000299935
5.14943e-05
-0.000348345
0.000317599
0.000147978
-0.000247206
0.000299386
0.000197556
-0.000101847
0.000249602
0.000180033
6.82593e-05
0.000173818
9.83405e-05
0.000237708
7.81598e-05
-1.93258e-05
0.000377522
-2.69997e-05
-0.000137679
0.000462716
-0.000124792
-0.000234542
0.000480086
-0.000196025
-0.000304233
0.000429799
-0.000225361
-0.000347715
0.000321795
-0.000362278
0.000175206
-0.000130464
-0.000398242
-7.8472e-05
-3.73327e-05
-0.000367009
-0.000247263
7.53134e-05
-0.000311335
-0.000372922
0.000191201
-0.000230837
-0.00043955
0.000295599
-0.00013061
-0.000439644
0.000376191
-2.21541e-05
-0.000373267
0.000423113
7.43362e-05
-0.000247382
0.000429512
0.000131788
-7.58219e-05
0.000392173
0.000128014
0.000119424
0.000311896
6.32481e-05
0.000307173
0.000196075
-3.65086e-05
0.000451898
6.23192e-05
-0.000139102
0.000525886
-6.3916e-05
-0.000226325
0.00051855
-0.000157705
-0.00029412
0.000435545
-0.000202079
-0.000342231
0.000293463
-0.000365701
0.000117852
-0.000126356
-0.000390689
-0.00016821
-3.44735e-05
-0.000377291
-0.000331804
8.11605e-05
-0.000340571
-0.000442387
0.000205528
-0.00027854
-0.000487933
0.000324438
-0.000193731
-0.000464764
0.000424716
-9.45825e-05
-0.000375404
0.00049378
1.65994e-06
-0.000227794
0.000519499
6.99313e-05
-3.63326e-05
0.000491945
8.66005e-05
0.00017489
0.000407413
4.81524e-05
0.000369731
0.000275027
-2.49603e-05
0.000507985
0.000119522
-0.000106594
0.000561761
-2.65215e-05
-0.000182835
0.000524823
-0.000134661
-0.000249922
0.00040884
-0.000188137
-0.000305125
0.0002372
-0.00034089
4.1132e-05
-0.000128868
-0.000361462
-0.000253668
-3.82744e-05
-0.000368974
-0.000399953
7.80519e-05
-0.000354152
-0.000487005
0.000206089
-0.000312584
-0.000507054
0.000332099
-0.000244107
-0.000459987
0.000442643
-0.000154579
-0.000350421
0.000523661
-5.84968e-05
-0.000187158
0.000560228
2.09869e-05
1.4739e-05
0.000537495
6.05843e-05
0.000229781
0.000448648
5.28697e-05
0.000417954
0.000305145
1.07467e-05
0.00053772
0.000137352
-4.72925e-05
0.000563896
-1.77065e-05
-0.00011196
0.000495888
-0.000130727
-0.00017878
0.000351399
-0.000186435
-0.000242024
0.000159348
-0.000291923
-4.40047e-05
-0.00013706
-0.000316058
-0.000321444
-4.70048e-05
-0.000344888
-0.000439938
6.82122e-05
-0.000351613
-0.000498016
0.00019537
-0.000329156
-0.000491767
0.000321229
-0.000275154
-0.000423766
0.000432517
-0.000193763
-0.000299962
0.000514986
-9.76243e-05
-0.000129722
0.000552308
-7.75859e-06
7.13899e-05
0.000527643
5.38676e-05
0.000275867
0.000433709
7.67337e-05
0.000443316
0.000284573
6.58144e-05
0.00053416
0.000114593
3.04756e-05
0.000528862
-3.83575e-05
-2.32699e-05
0.000432764
-0.000146698
-9.02319e-05
0.000268954
-0.000197676
-0.000161945
7.02089e-05
-0.000226598
-0.000124855
-0.000148737
-0.000262093
-0.000360377
-5.84034e-05
-0.000309687
-0.000444977
5.41035e-05
-0.000334299
-0.000473335
0.000176345
-0.00032672
-0.000444317
0.000295723
-0.000283284
-0.000361911
0.000399459
-0.000207356
-0.000232498
0.000473608
-0.00011046
-6.5694e-05
0.000501991
-1.14947e-05
0.000122267
0.00046845
6.91674e-05
0.000303159
0.000368129
0.000118659
0.000438371
0.000218704
0.000134466
0.000494147
5.55743e-05
0.00011812
0.000458245
-8.52673e-05
7.24488e-05
0.00034199
-0.000180159
4.03457e-06
0.000172096
-0.000219842
-7.64733e-05
-1.74126e-05
-0.000155325
-0.000189235
-0.00016155
-0.000207633
-0.000364032
-7.06221e-05
-0.000268536
-0.000414915
3.76724e-05
-0.000304688
-0.000418089
0.000151715
-0.000305824
-0.000373822
0.000259587
-0.000267924
-0.00028619
0.000349068
-0.000194166
-0.00016116
0.000406906
-9.54061e-05
-8.30289e-06
0.000418157
1.11678e-05
0.000155675
0.000370026
0.000106579
0.000303064
0.000262797
0.000175935
0.000399729
0.000117774
0.000210387
0.000420194
-3.06996e-05
0.000205764
0.000360212
-0.000151371
0.000163292
0.000235893
-0.000225869
9.1148e-05
7.51991e-05
-0.000248891
1.87275e-06
-9.00662e-05
-8.90173e-05
-0.000227544
-0.000173776
-0.000159866
-0.000332093
-8.2528e-05
-0.00022645
-0.000355757
2.03237e-05
-0.000266259
-0.000342791
0.00012387
-0.000269139
-0.00029353
0.000216686
-0.000231411
-0.000210969
0.000286939
-0.000156465
-0.000100008
0.000322378
-5.46889e-05
3.01753e-05
0.00031077
5.78359e-05
0.000162785
0.000244906
0.000162693
0.000272198
0.000131778
0.000242837
0.000330744
-4.41149e-06
0.000285085
0.000322181
-0.000132297
0.00028249
0.000249488
-0.000227238
0.00023693
0.000131532
-0.000276915
0.000158535
-5.59515e-06
-0.000280131
6.16169e-05
-0.000135723
-3.71232e-05
-0.000234039
-0.000184406
-0.000124642
-0.000269856
-9.33944e-05
-0.000188311
-0.000277643
3.33163e-06
-0.000223623
-0.000260386
9.51839e-05
-0.000221441
-0.000217353
0.000170764
-0.000178854
-0.000149552
0.000218577
-9.95934e-05
-6.03253e-05
0.000227875
6.0243e-06
4.18901e-05
0.000190745
0.000122193
0.00014101
0.000107217
0.000229894
0.000214729
-8.89127e-06
0.000310073
0.000242666
-0.000132094
0.000347872
0.000217068
-0.000235866
0.000336986
0.000146087
-0.000302638
0.000282018
4.83836e-05
-0.000326234
0.000195765
-5.48634e-05
-0.000309262
9.39192e-05
-0.000145431
-6.59183e-06
-0.000207068
-0.000192588
-0.000106513
-0.000186808
-0.000102349
-0.000158944
-0.000192574
-1.18078e-05
-0.000182405
-0.000183507
6.8198e-05
-0.000169265
-0.000156996
0.000125864
-0.000117578
-0.000111468
0.000150047
-3.16317e-05
-4.82389e-05
0.000132397
7.79061e-05
2.54895e-05
7.05269e-05
0.000194408
9.52698e-05
-2.78229e-05
0.000297196
0.00014275
-0.00014324
0.000365983
0.000153942
-0.000250527
0.000387076
0.000127079
-0.000328975
0.000358366
7.23016e-05
-0.000368181
0.000289203
4.96735e-06
-0.000367543
0.000195379
-6.08034e-05
-0.000332721
9.31743e-05
-0.000115094
-1.70482e-06
-0.000149347
-0.000196996
-0.000108524
-9.59682e-05
-0.000107897
-0.000142814
-0.000113139
-2.30348e-05
-0.000148597
-0.000122929
4.58132e-05
-0.000119851
-0.000120334
8.61516e-05
-5.58179e-05
-0.000101009
8.76007e-05
3.81651e-05
-6.4027e-05
4.51993e-05
0.00015022
-1.46333e-05
-3.74081e-05
0.00026198
3.54195e-05
-0.000145572
0.000350728
7.16815e-05
-0.000256077
0.000396371
8.4311e-05
-0.000345734
0.000389852
7.32547e-05
-0.000399948
0.000336465
4.62651e-05
-0.000415016
0.000251676
1.29077e-05
-0.000394922
0.000153624
-1.98335e-05
-0.000347131
5.76033e-05
-4.84216e-05
-2.39264e-05
-6.93235e-05
-0.000194673
-1.4051e-05
-0.00010723
-5.22533e-05
-2.72482e-05
-8.6727e-05
3.1693e-05
-0.000110456
5.59886e-05
-0.000116941
3.68017e-05
-0.000103108
-2.5866e-05
-7.15022e-05
-0.000121253
-3.02743e-05
-0.000229568
9.90681e-06
-0.000327908
4.09171e-05
-0.000398247
5.99384e-05
-0.000432416
6.80266e-05
-0.000431336
6.70124e-05
-0.000400703
5.77836e-05
-0.000347918
4.0496e-05
1.76855e-05
-9.16961e-05
-0.000239332
3.5479e-05
-3.32043e-05
-0.0002307
-4.93812e-05
4.45278e-06
-0.000182819
-0.000122892
1.02922e-05
-9.5736e-05
-0.000164566
-1.97336e-05
2.12259e-05
-0.000165
-7.9976e-05
0.000151022
-0.000129185
-0.00015674
0.000271568
-7.14322e-05
-0.000233998
0.000361121
-7.48015e-06
-0.000298293
0.000402146
5.12813e-05
-0.000341099
0.000386124
9.99698e-05
-0.000358777
0.000317002
0.000138533
-0.000351885
0.00021054
0.000167697
-0.000324121
8.86738e-05
0.000185249
-0.00028044
-2.80172e-05
0.000185505
-0.000225247
-0.000124402
0.000161591
-0.000189887
0.000109563
-6.69661e-05
-0.000291193
8.14885e-05
-9.16783e-06
-0.000261543
-3.15356e-05
3.18121e-05
-0.000193648
-0.000129144
4.52413e-05
-9.02224e-05
-0.000189857
2.53742e-05
3.73553e-05
-0.000203
-2.4921e-05
0.000170266
-0.000171384
-9.5289e-05
0.00028538
-0.000107197
-0.000170889
0.000360121
-2.54159e-05
-0.000236544
0.000378017
6.16375e-05
-0.000281039
0.000334319
0.000145792
-0.00029982
0.000238816
0.000220781
-0.000295005
0.000113238
0.00027906
-0.000272296
-1.67891e-05
0.000311234
-0.000236806
-0.00013072
0.000308746
-0.00019055
-0.000215945
0.000266762
-0.00026485
0.00018624
-4.41771e-05
-0.000343354
8.75948e-05
1.56795e-05
-0.000298851
-5.24939e-05
6.45576e-05
-0.000217412
-0.000169541
9.09403e-05
-0.000103728
-0.000241302
8.8004e-05
2.96446e-05
-0.000257131
5.63746e-05
0.000163417
-0.000219267
3.56689e-06
0.000273811
-0.000139012
-5.81708e-05
0.000337168
-3.15074e-05
-0.000115782
0.000337078
8.87136e-05
-0.000159288
0.000271447
0.000208586
-0.000185154
0.00015541
0.000314739
-0.00019562
1.66369e-05
0.000392166
-0.000193959
-0.000116589
0.000426721
-0.000180663
-0.000224943
0.000409722
-0.000152711
-0.000299361
0.000340464
-0.000334935