/*--------------------------------*- C++ -*----------------------------------*\
| =========                 |                                                 |
| \\      /  F ield         | OpenFOAM: The Open Source CFD Toolbox           |
|  \\    /   O peration     | Version:  3.0.0                                 |
|   \\  /    A nd           | Web:      www.OpenFOAM.org                      |
|    \\/     M anipulation  |                                                 |
\*---------------------------------------------------------------------------*/
FoamFile
{
    version     2.0;
    format      ascii;
    class       volVectorField;
    location    "1.75";
    object      U;
}
// * * * * * * * * * * * * * * * * * * * * * * * * * * * * * * * * * * * * * //

dimensions      [0 1 -1 0 0 0 0];

internalField   nonuniform List<vector> 
4096
(
(-0.0721818 0.0180066 0.0418592)
(-0.0459064 0.018934 0.0471985)
(-0.0175693 0.0200901 0.0446088)
(0.0120261 0.0220086 0.033083)
(0.0366396 0.0255885 0.0137224)
(0.0497395 0.0315779 -0.0106356)
(0.0470669 0.0397757 -0.0360067)
(0.0290293 0.0482442 -0.0581199)
(0.000941362 0.0534656 -0.0731698)
(-0.02971 0.052502 -0.0786206)
(-0.0568213 0.0452581 -0.0738802)
(-0.0773345 0.034763 -0.0603179)
(-0.0905326 0.0250031 -0.0406182)
(-0.0966275 0.0185023 -0.0180012)
(-0.095956 0.0155334 0.00433385)
(-0.0855647 0.0146145 0.0224515)
(-0.0808472 0.00843435 0.0402542)
(-0.0546008 0.0146062 0.0380886)
(-0.0263021 0.0205794 0.0278842)
(0.00360475 0.0269784 0.00959951)
(0.0285704 0.0346097 -0.0144105)
(0.0421544 0.0436381 -0.0400961)
(0.0405089 0.052563 -0.0628315)
(0.0244523 0.0578431 -0.0786245)
(-0.000628208 0.0555632 -0.0849169)
(-0.0278653 0.0445087 -0.0809662)
(-0.0523901 0.0278617 -0.0680683)
(-0.0722746 0.0114752 -0.0489528)
(-0.0870455 0.000233987 -0.0268395)
(-0.0962283 -0.00424127 -0.00475984)
(-0.0991368 -0.00317481 0.0145785)
(-0.0913718 0.000704834 0.0279599)
(-0.0897117 -0.00341681 0.0351571)
(-0.0629529 0.00620338 0.0251789)
(-0.0337525 0.0154931 0.00811459)
(-0.00196611 0.0252927 -0.0150423)
(0.0256708 0.0362566 -0.040908)
(0.0428545 0.0477364 -0.0647135)
(0.0458758 0.0567218 -0.081761)
(0.0352247 0.0583335 -0.088825)
(0.0152454 0.0489096 -0.084944)
(-0.00874688 0.0295561 -0.0715284)
(-0.0332104 0.00651066 -0.0517842)
(-0.0564029 -0.0125957 -0.0294295)
(-0.0768048 -0.0231644 -0.00763755)
(-0.0923559 -0.0249496 0.011181)
(-0.101034 -0.0204721 0.0250931)
(-0.0969747 -0.013075 0.0319502)
(-0.096768 -0.0160087 0.0270332)
(-0.0691918 -0.00527778 0.00997166)
(-0.0383536 0.00533962 -0.0123094)
(-0.00344825 0.0169649 -0.0377862)
(0.0287513 0.0301213 -0.0624919)
(0.0520178 0.0434712 -0.0815667)
(0.0622992 0.052785 -0.0908662)
(0.0588824 0.0521389 -0.0883008)
(0.0442657 0.0381693 -0.0746534)
(0.0220083 0.0139722 -0.0533729)
(-0.00506104 -0.0119301 -0.029153)
(-0.0344246 -0.0311397 -0.0060756)
(-0.0627317 -0.0400046 0.0131894)
(-0.086056 -0.0396456 0.0269762)
(-0.101193 -0.0334206 0.0341424)
(-0.101033 -0.0246011 0.0337846)
(-0.100529 -0.0281937 0.0167846)
(-0.0721827 -0.0187086 -0.00566172)
(-0.0394903 -0.00888026 -0.0307991)
(-0.00115203 0.00273813 -0.0558242)
(0.0361775 0.0165912 -0.076634)
(0.0663191 0.0309736 -0.0889661)
(0.084597 0.0410091 -0.0896882)
(0.0886378 0.0401501 -0.0780164)
(0.0787407 0.0251648 -0.0563858)
(0.0568425 0.000348073 -0.0299048)
(0.0256422 -0.0246471 -0.00407242)
(-0.0109101 -0.0416746 0.0173513)
(-0.047409 -0.0483352 0.0324673)
(-0.0782575 -0.0468479 0.0402978)
(-0.0993139 -0.040838 0.0403668)
(-0.102606 -0.0328786 0.0330337)
(-0.100511 -0.038312 0.00567231)
(-0.0717542 -0.0319838 -0.0196751)
(-0.0375588 -0.0247172 -0.0448893)
(0.0035868 -0.0148114 -0.0667125)
(0.0452138 -0.00179543 -0.0814936)
(0.0812381 0.0126393 -0.0860333)
(0.106455 0.023624 -0.0785119)
(0.116961 0.0244674 -0.0594883)
(0.110949 0.0118512 -0.032776)
(0.0888752 -0.00969716 -0.00449389)
(0.0535735 -0.0306229 0.0199459)
(0.0105538 -0.0438216 0.0376782)
(-0.0329188 -0.0482029 0.0476426)
(-0.0698991 -0.0466383 0.0493357)
(-0.0955362 -0.042498 0.0428092)
(-0.101458 -0.0372759 0.0295488)
(-0.0972788 -0.0445102 -0.00480212)
(-0.0685152 -0.0425443 -0.030027)
(-0.0334497 -0.039028 -0.0523586)
(0.00930895 -0.0321109 -0.0685885)
(0.0535646 -0.0212009 -0.0759765)
(0.0934097 -0.00768075 -0.0726706)
(0.123402 0.00408153 -0.0582779)
(0.138634 0.00774044 -0.0346326)
(0.13564 -0.000142514 -0.00650579)
(0.113537 -0.0156095 0.0198487)
(0.0752101 -0.0302567 0.0400813)
(0.027458 -0.0385894 0.0525584)
(-0.0209499 -0.0407651 0.056924)
(-0.062067 -0.0398651 0.0529602)
(-0.090542 -0.0386096 0.0410543)
(-0.0980798 -0.0372927 0.023602)
(-0.0919576 -0.0453869 -0.0128808)
(-0.0634341 -0.0482389 -0.034851)
(-0.0281542 -0.0490532 -0.0515925)
(0.0149573 -0.0458548 -0.0605497)
(0.0600455 -0.0378681 -0.0601914)
(0.101469 -0.0260579 -0.0500723)
(0.133836 -0.0140683 -0.0311343)
(0.151795 -0.00750408 -0.00628416)
(0.150784 -0.00968901 0.0193168)
(0.128833 -0.0175955 0.0403246)
(0.0887516 -0.0247245 0.054072)
(0.0382424 -0.0276344 0.0603503)
(-0.0128726 -0.0276358 0.0592797)
(-0.0559494 -0.0276895 0.0507212)
(-0.0854015 -0.029629 0.0352942)
(-0.0934509 -0.0326312 0.0160103)
(-0.0857454 -0.0403708 -0.0170341)
(-0.0574502 -0.0479425 -0.0329163)
(-0.0224602 -0.0531004 -0.0421342)
(0.0199954 -0.0537893 -0.0432359)
(0.064468 -0.0490552 -0.0359766)
(0.105642 -0.0394805 -0.021144)
(0.138334 -0.0279771 -0.000727918)
(0.1571 -0.0191759 0.0216894)
(0.156753 -0.015885 0.0412357)
(0.134653 -0.0159724 0.0542205)
(0.0936222 -0.0152631 0.060161)
(0.0419921 -0.0126582 0.060093)
(-0.00974236 -0.0104945 0.0543674)
(-0.0526434 -0.0114253 0.0428398)
(-0.0812357 -0.0163123 0.0263123)
(-0.0886537 -0.0234141 0.00801974)
(-0.0795603 -0.0300151 -0.0162709)
(-0.0513228 -0.041741 -0.0241155)
(-0.0168909 -0.0507595 -0.0251265)
(0.0242834 -0.055004 -0.019108)
(0.0672191 -0.0534149 -0.00694114)
(0.106931 -0.0463124 0.00970104)
(0.138406 -0.0359493 0.0282071)
(0.156176 -0.0258409 0.0448413)
(0.154816 -0.0179404 0.0557045)
(0.131594 -0.0108603 0.0593302)
(0.0897654 -0.0028495 0.0573002)
(0.0382532 0.00483409 0.0515613)
(-0.0122115 0.00898458 0.0425768)
(-0.0529017 0.0073782 0.030235)
(-0.0788641 7.15188e-05 0.0154151)
(-0.084485 -0.0105204 0.00104698)
(-0.0739189 -0.0160051 -0.0105381)
(-0.0455783 -0.030856 -0.00976834)
(-0.0117912 -0.0427941 -0.00331568)
(0.0278529 -0.0498409 0.00786738)
(0.0688086 -0.0509499 0.0221278)
(0.106297 -0.0462922 0.0373365)
(0.135304 -0.0374989 0.0507535)
(0.150268 -0.0268779 0.0590805)
(0.145879 -0.0153939 0.059987)
(0.120145 -0.00236528 0.054306)
(0.0773659 0.0116424 0.0452864)
(0.0270248 0.0233272 0.0353574)
(-0.0203824 0.0289126 0.0251551)
(-0.0569332 0.0267124 0.0145563)
(-0.0786547 0.0175616 0.00429235)
(-0.0813541 0.00430757 -0.00359814)
(-0.0691336 -0.000835803 -0.000808993)
(-0.0406207 -0.0173608 0.00762509)
(-0.00745982 -0.0308921 0.0195188)
(0.0306379 -0.0396698 0.0330724)
(0.069399 -0.0427691 0.0462748)
(0.104034 -0.0402455 0.0569868)
(0.129303 -0.0330778 0.0628354)
(0.139528 -0.0223621 0.061549)
(0.130072 -0.00822996 0.0527216)
(0.100583 0.00914089 0.0391837)
(0.0569413 0.0271285 0.0251678)
(0.00901258 0.0410282 0.0133896)
(-0.0335531 0.0470019 0.0044312)
(-0.0642501 0.044011 -0.00184328)
(-0.080453 0.0335401 -0.00520273)
(-0.0793568 0.0186478 -0.00504857)
(-0.0655526 0.0126842 0.011189)
(-0.0369301 -0.0037214 0.0250166)
(-0.00438362 -0.0172504 0.0394725)
(0.0321891 -0.0264709 0.0522723)
(0.0685287 -0.0306183 0.0614309)
(0.0995633 -0.0295733 0.0652089)
(0.119673 -0.0236219 0.0620919)
(0.12333 -0.0128031 0.0513371)
(0.107319 0.00310122 0.0344794)
(0.0736629 0.0227801 0.0157035)
(0.0299489 0.0420576 -0.000412851)
(-0.0140242 0.0557145 -0.011247)
(-0.0501262 0.0605296 -0.0163317)
(-0.0737546 0.0563104 -0.0161479)
(-0.0837648 0.0450733 -0.011338)
(-0.0784883 0.0297996 -0.00301081)
(-0.0637698 0.0220296 0.0234154)
(-0.0352037 0.00771672 0.0395498)
(-0.00334234 -0.00408226 0.0533787)
(0.0316449 -0.0123123 0.0624684)
(0.0652093 -0.0163343 0.0651744)
(0.0917919 -0.0157846 0.0605454)
(0.105484 -0.0102703 0.048404)
(0.101443 0.000789992 0.0298068)
(0.0785878 0.0172795 0.00787556)
(0.0415822 0.0366329 -0.0126425)
(-0.000665621 0.0539081 -0.0274217)
(-0.0391218 0.0644871 -0.0343321)
(-0.0677028 0.066459 -0.0333535)
(-0.0839124 0.0606881 -0.0256548)
(-0.0879754 0.0494971 -0.0129383)
(-0.078863 0.0353838 0.00213049)
(-0.0646929 0.0257282 0.0340009)
(-0.0363194 0.0153923 0.0491708)
(-0.00521966 0.00695311 0.0594104)
(0.0281041 0.00112445 0.062399)
(0.0585606 -0.00148577 0.0571163)
(0.080091 -0.000229508 0.0437522)
(0.086861 0.00571056 0.0237646)
(0.0753584 0.0168201 -1.73687e-05)
(0.0470008 0.0320351 -0.0234107)
(0.00869443 0.0477603 -0.0417322)
(-0.0302003 0.0594253 -0.0515972)
(-0.0621242 0.064199 -0.0519169)
(-0.0832863 0.0621174 -0.0436039)
(-0.0930817 0.0550563 -0.028724)
(-0.0926353 0.0452082 -0.00984966)
(-0.0808703 0.0340684 0.00935265)
(-0.0690372 0.0246943 0.0414938)
(-0.0408686 0.0198621 0.0528188)
(-0.0104994 0.0159929 0.0571613)
(0.0212867 0.0136542 0.0525622)
(0.0487254 0.0137541 0.0388678)
(0.0654115 0.017405 0.0175487)
(0.0660836 0.0254158 -0.00837957)
(0.0491061 0.0370995 -0.0347241)
(0.0182145 0.0492579 -0.056422)
(-0.0185178 0.057427 -0.069128)
(-0.052459 0.0589834 -0.0709158)
(-0.0780991 0.0547063 -0.0625692)
(-0.0936706 0.0474151 -0.0465312)
(-0.0996717 0.0397086 -0.0257562)
(-0.0973291 0.0328571 -0.00320575)
(-0.0848005 0.0266859 0.0171737)
(-0.0768081 -0.0115002 0.03006)
(-0.0494304 -0.0112082 0.0241795)
(-0.0218088 -0.00713057 0.0135932)
(0.00523185 0.00171582 -0.000252133)
(0.0254823 0.0154309 -0.0147512)
(0.0335049 0.0327764 -0.027428)
(0.0269368 0.0510361 -0.0368105)
(0.00759362 0.0663702 -0.0423784)
(-0.0192279 0.0747231 -0.0438377)
(-0.047161 0.0735298 -0.0407557)
(-0.0712444 0.0631435 -0.0330345)
(-0.088984 0.0468611 -0.0214465)
(-0.0998235 0.0291593 -0.00767672)
(-0.103977 0.0135822 0.00605456)
(-0.101803 0.00180448 0.0175242)
(-0.0902861 -0.00574445 0.0244281)
(-0.0785139 -0.0236465 0.0329141)
(-0.0514498 -0.0177739 0.0196378)
(-0.0237555 -0.00839941 0.00192299)
(0.00366801 0.00528934 -0.0179481)
(0.0245085 0.0230899 -0.0364476)
(0.0333614 0.0432008 -0.050245)
(0.0278916 0.0619141 -0.0573969)
(0.00997128 0.0742381 -0.0575305)
(-0.0149694 0.0758037 -0.0512329)
(-0.0406851 0.0653325 -0.0394955)
(-0.0629085 0.0458635 -0.0238856)
(-0.0800816 0.0233121 -0.00658285)
(-0.0921045 0.00333235 0.00998485)
(-0.0988018 -0.0109966 0.0235306)
(-0.0996168 -0.0192547 0.0321569)
(-0.090489 -0.022047 0.0342889)
(-0.0800265 -0.038846 0.0302261)
(-0.0527624 -0.0289498 0.00962583)
(-0.0239337 -0.0157028 -0.0140494)
(0.00542744 0.00168406 -0.0377472)
(0.0289339 0.0226277 -0.0573933)
(0.0413048 0.0445626 -0.0693552)
(0.0401992 0.0627123 -0.0716977)
(0.0270711 0.071254 -0.0644999)
(0.00645152 0.0661602 -0.0493892)
(-0.0166029 0.0479797 -0.0289888)
(-0.0389103 0.022276 -0.00661942)
(-0.0592571 -0.00331706 0.0143269)
(-0.0767149 -0.0231003 0.0310583)
(-0.0895801 -0.0351147 0.0416695)
(-0.0958211 -0.0401236 0.0449841)
(-0.0902614 -0.0392289 0.0405592)
(-0.0801771 -0.0544019 0.0225234)
(-0.0526582 -0.042718 -0.00442128)
(-0.0222094 -0.0276455 -0.0322329)
(0.0100625 -0.0083277 -0.0572578)
(0.037886 0.0144456 -0.0753397)
(0.0561072 0.0376786 -0.0830748)
(0.0619805 0.0558556 -0.0789286)
(0.0557808 0.0624005 -0.0635934)
(0.0403653 0.0533158 -0.0397875)
(0.0191745 0.0305378 -0.0117692)
(-0.00547699 0.00160326 0.0155197)
(-0.0318741 -0.0247742 0.0378201)
(-0.0573397 -0.0434023 0.0524426)
(-0.0780997 -0.0535509 0.0580895)
(-0.0906056 -0.056811 0.0544894)
(-0.088838 -0.0542412 0.0426154)
(-0.0785724 -0.0681234 0.0107014)
(-0.0510472 -0.0570509 -0.0208473)
(-0.0190843 -0.042412 -0.0505362)
(0.0161795 -0.0232487 -0.0743939)
(0.0487952 -0.000340618 -0.0886335)
(0.0737575 0.0233178 -0.0905077)
(0.0876974 0.0420183 -0.0791113)
(0.0892563 0.0486915 -0.0557782)
(0.0791136 0.0390468 -0.0242747)
(0.058892 0.0156162 0.00958274)
(0.0303973 -0.0129877 0.0395038)
(-0.00341006 -0.0378567 0.0608642)
(-0.0375588 -0.0547094 0.0714513)
(-0.0661788 -0.0638461 0.0707611)
(-0.0844883 -0.0671452 0.0594907)
(-0.086045 -0.0651311 0.040124)
(-0.075564 -0.0779703 -0.00389906)
(-0.0483986 -0.0695533 -0.0376931)
(-0.0154421 -0.0573908 -0.0667248)
(0.0221564 -0.0403714 -0.0871019)
(0.0588627 -0.019047 -0.0957709)
(0.0898614 0.00399725 -0.0908935)
(0.11125 0.0234202 -0.0723178)
(0.12011 0.0320485 -0.0420155)
(0.114825 0.0250774 -0.00471663)
(0.0950892 0.00478129 0.0324287)
(0.0624289 -0.0202294 0.062305)
(0.0214916 -0.0417051 0.0805123)
(-0.0203581 -0.0564807 0.0856176)
(-0.0554774 -0.0654453 0.0779454)
(-0.078254 -0.0702578 0.0591469)
(-0.0822677 -0.0706222 0.0331381)
(-0.0720268 -0.0823626 -0.019428)
(-0.0454104 -0.0780817 -0.0526031)
(-0.0120865 -0.0699316 -0.078384)
(0.0268587 -0.0565836 -0.0933259)
(0.0662961 -0.0381849 -0.0953342)
(0.101605 -0.0166778 -0.0835713)
(0.128576 0.00332489 -0.0586775)
(0.143159 0.0149446 -0.0232767)
(0.141743 0.0129004 0.0170434)
(0.122207 -0.00134692 0.0542401)
(0.085962 -0.0202859 0.0811627)
(0.0393712 -0.0370271 0.0942609)
(-0.00808041 -0.049551 0.0930073)
(-0.047497 -0.0588981 0.0784945)
(-0.0729449 -0.0661117 0.0532267)
(-0.0783797 -0.0699988 0.0223418)
(-0.0689055 -0.0805895 -0.0335811)
(-0.0427557 -0.0813024 -0.0631216)
(-0.00952183 -0.078069 -0.083305)
(0.0298213 -0.0692505 -0.0914594)
(0.0705026 -0.054507 -0.0865184)
(0.108076 -0.0351245 -0.0685893)
(0.138212 -0.0149155 -0.0390595)
(0.1562 -0.000157992 -0.00123745)
(0.157067 0.0037286 0.0386399)
(0.137284 -0.00287388 0.0723659)
(0.0983474 -0.0142446 0.0936429)
(0.0481786 -0.0254415 0.100211)
(-0.00226332 -0.0355313 0.092454)
(-0.043466 -0.0454359 0.0720794)
(-0.0696167 -0.0553418 0.0423123)
(-0.0753354 -0.0632304 0.00918218)
(-0.066844 -0.0729884 -0.0439703)
(-0.0408055 -0.0789055 -0.0672065)
(-0.00791074 -0.0807892 -0.080139)
(0.031071 -0.0766195 -0.0810602)
(0.0716797 -0.0656066 -0.0698506)
(0.109618 -0.04853 -0.0473909)
(0.140545 -0.0285312 -0.0156962)
(0.159438 -0.0111284 0.0213291)
(0.160501 -0.0014498 0.0571255)
(0.139614 -4.40955e-05 0.0841649)
(0.0988159 -0.00336949 0.0978079)
(0.0471774 -0.00878513 0.0972674)
(-0.00361713 -0.016376 0.0837117)
(-0.0441082 -0.026758 0.0593168)
(-0.0690297 -0.0392483 0.0278412)
(-0.0738673 -0.0511445 -0.00430034)
(-0.0660097 -0.0607685 -0.0486756)
(-0.0396581 -0.0714803 -0.0638333)
(-0.00720915 -0.0779712 -0.0689712)
(0.0308561 -0.0778863 -0.0633372)
(0.070352 -0.0701334 -0.0475413)
(0.107096 -0.0552028 -0.022995)
(0.136745 -0.0357319 0.00784967)
(0.154109 -0.0164346 0.0407063)
(0.153187 -0.00180198 0.0692149)
(0.130132 0.0069838 0.0873301)
(0.0880064 0.0111838 0.0925117)
(0.0367574 0.011114 0.0853631)
(-0.0119854 0.00579595 0.0676271)
(-0.0494938 -0.00499882 0.0418353)
(-0.0714333 -0.0198102 0.0119588)
(-0.0742115 -0.0353892 -0.0158714)
(-0.0662528 -0.0458106 -0.0466976)
(-0.039267 -0.0602812 -0.0533734)
(-0.00731737 -0.070227 -0.0514924)
(0.0294538 -0.0731327 -0.041094)
(0.0670718 -0.0678095 -0.0232301)
(0.101403 -0.0546197 0.000445424)
(0.128036 -0.0358252 0.0273063)
(0.141693 -0.0153156 0.0530503)
(0.136693 0.00321757 0.0721405)
(0.110439 0.0180422 0.0805612)
(0.0675067 0.0283203 0.0778442)
(0.0182921 0.0323653 0.0656937)
(-0.0263436 0.0285846 0.0462493)
(-0.0589611 0.0172124 0.0221881)
(-0.0764475 0.000368999 -0.00278008)
(-0.0761342 -0.0182739 -0.0235257)
(-0.0672691 -0.0303503 -0.0382339)
(-0.039548 -0.0469901 -0.0375533)
(-0.00815857 -0.0587695 -0.0306806)
(0.0270639 -0.063246 -0.0181899)
(0.0622546 -0.0593057 -0.00125756)
(0.0931962 -0.0472738 0.0185406)
(0.115301 -0.0290821 0.0387182)
(0.123356 -0.00781765 0.0554374)
(0.112651 0.0135001 0.0645536)
(0.08264 0.0325281 0.0641931)
(0.0396101 0.0466154 0.0555429)
(-0.00606055 0.0527407 0.0409913)
(-0.0449069 0.0492198 0.0228552)
(-0.0712046 0.0368559 0.00362095)
(-0.0832211 0.0183272 -0.0137982)
(-0.0791151 -0.00243262 -0.0258968)
(-0.0688019 -0.0166762 -0.0246274)
(-0.0404534 -0.0335284 -0.0190484)
(-0.00970835 -0.045283 -0.0101205)
(0.0238021 -0.0497741 0.00133504)
(0.0561351 -0.0460531 0.0143365)
(0.0828278 -0.0344363 0.0276972)
(0.0991015 -0.0165077 0.0394786)
(0.100128 0.00528497 0.0468006)
(0.082875 0.0281946 0.0471851)
(0.0493553 0.0490627 0.0405462)
(0.00734761 0.0640035 0.0290575)
(-0.0333808 0.0695908 0.0153442)
(-0.0652516 0.0646948 0.00156432)
(-0.0844714 0.0508521 -0.0104183)
(-0.0906481 0.0311881 -0.0189452)
(-0.0825729 0.00963854 -0.0224431)
(-0.0706956 -0.00692081 -0.00812642)
(-0.0419748 -0.0218998 -0.000945704)
(-0.011975 -0.0317526 0.00672881)
(0.0197044 -0.0347065 0.0141043)
(0.0488332 -0.0300124 0.0206858)
(0.0705915 -0.0179668 0.0260164)
(0.0801376 0.000127559 0.0291207)
(0.0735197 0.0221219 0.028432)
(0.0499589 0.0450388 0.0230025)
(0.0140368 0.0649135 0.013801)
(-0.0255606 0.0774301 0.00323056)
(-0.060266 0.0797817 -0.00635944)
(-0.084653 0.0719886 -0.0133935)
(-0.0968422 0.0564543 -0.0170347)
(-0.0975916 0.036563 -0.0170377)
(-0.0860008 0.0158962 -0.0136202)
(-0.0728836 -0.00270387 0.00838692)
(-0.0440881 -0.0138385 0.0137461)
(-0.0149145 -0.0201016 0.0171547)
(0.0148798 -0.0201126 0.0180976)
(0.0405963 -0.0133249 0.0167982)
(0.057071 -8.48486e-05 0.0137868)
(0.059728 0.0183438 0.00932069)
(0.0460282 0.039655 0.00327484)
(0.0176358 0.0603276 -0.00414066)
(-0.0188646 0.0759668 -0.0116668)
(-0.0546823 0.0828523 -0.0174669)
(-0.0828809 0.0797435 -0.0201441)
(-0.100198 0.0682378 -0.0192179)
(-0.106403 0.0515204 -0.0150399)
(-0.103012 0.0328573 -0.00850875)
(-0.0890115 0.0150415 -0.00106155)
(-0.0749941 -0.00389169 0.0216879)
(-0.046462 -0.0095617 0.0224015)
(-0.0182029 -0.011083 0.0195252)
(0.00973601 -0.00720117 0.0130151)
(0.0321207 0.00279806 0.00383371)
(0.0435734 0.0187494 -0.00658977)
(0.0401994 0.0390906 -0.0168402)
(0.0213427 0.0602618 -0.0256545)
(-0.00909361 0.0769994 -0.0318172)
(-0.0435813 0.0845172 -0.0340822)
(-0.0743343 0.0812268 -0.0318573)
(-0.0964498 0.0693219 -0.0255737)
(-0.108455 0.0529074 -0.0164377)
(-0.111027 0.0357266 -0.0059739)
(-0.105746 0.0201225 0.00429233)
(-0.0910384 0.0073602 0.012503)
(-0.0624347 -0.0387244 0.018844)
(-0.0381057 -0.0387933 0.00351735)
(-0.0158202 -0.0316441 -0.0128834)
(0.00280933 -0.0162948 -0.0268769)
(0.013001 0.00627341 -0.0353528)
(0.0118154 0.03298 -0.0371206)
(-0.000502406 0.0592803 -0.0332693)
(-0.0208089 0.0802173 -0.0260582)
(-0.0443848 0.0914539 -0.0173855)
(-0.0665781 0.0905488 -0.00801858)
(-0.0840103 0.0779122 0.00197352)
(-0.0950625 0.0568243 0.0122141)
(-0.0996072 0.0321027 0.0214778)
(-0.0982119 0.00825627 0.0279462)
(-0.0915561 -0.0116801 0.0299186)
(-0.0778236 -0.0254257 0.0265365)
(-0.0586983 -0.0511482 0.0262506)
(-0.0350775 -0.045373 0.00387127)
(-0.0126412 -0.0327251 -0.0190733)
(0.00678596 -0.0126712 -0.0385584)
(0.0184224 0.0135134 -0.0508604)
(0.0190703 0.0424867 -0.0540706)
(0.0084349 0.0691177 -0.0486631)
(-0.0107473 0.0875395 -0.0367629)
(-0.0335844 0.0929487 -0.0207755)
(-0.0549878 0.0836471 -0.00267869)
(-0.0716154 0.0621266 0.0157194)
(-0.0824693 0.0341469 0.0322641)
(-0.0880163 0.00610408 0.0446009)
(-0.0887931 -0.0173832 0.0507142)
(-0.0847461 -0.0341959 0.0493909)
(-0.0732974 -0.0431717 0.0406484)
(-0.0550747 -0.0669551 0.0257393)
(-0.0316974 -0.0567658 -0.00347836)
(-0.00801136 -0.0398637 -0.0317406)
(0.013712 -0.0160374 -0.0545114)
(0.0286231 0.0129182 -0.0678278)
(0.0334112 0.0430348 -0.0695721)
(0.0273871 0.0684829 -0.0600696)
(0.012659 0.0829274 -0.0415697)
(-0.0066136 0.0819453 -0.01722)
(-0.0260988 0.0652705 0.00956799)
(-0.0431684 0.0374755 0.0351152)
(-0.0571771 0.00600006 0.0557177)
(-0.068033 -0.0223723 0.0683779)
(-0.0748926 -0.0438472 0.0713864)
(-0.0761982 -0.0573685 0.0643917)
(-0.0684216 -0.0624344 0.0486205)
(-0.0511125 -0.0821794 0.0177436)
(-0.0281335 -0.069714 -0.0172397)
(-0.0029412 -0.0506476 -0.0489665)
(0.0218644 -0.0249649 -0.0726349)
(0.0415091 0.0053156 -0.0844294)
(0.052567 0.0360068 -0.0824479)
(0.0536675 0.060893 -0.0671658)
(0.0456839 0.0731363 -0.0411281)
(0.0313239 0.0682312 -0.00831027)
(0.0136221 0.0468777 0.0263331)
(-0.0055672 0.015372 0.0572828)
(-0.0253431 -0.0175577 0.079582)
(-0.0441213 -0.0451887 0.0900726)
(-0.0589859 -0.0647663 0.0877589)
(-0.0666902 -0.0761519 0.0734077)
(-0.0629393 -0.0790873 0.0497087)
(-0.0471906 -0.0943412 0.00342248)
(-0.0249484 -0.0820182 -0.03562)
(0.00144372 -0.0631596 -0.0686073)
(0.0292665 -0.0378592 -0.090818)
(0.0539895 -0.00807343 -0.0989813)
(0.0721104 0.0222453 -0.0917266)
(0.0814379 0.0469798 -0.0698415)
(0.081247 0.058988 -0.036182)
(0.0723023 0.0533613 0.00446036)
(0.055998 0.0310619 0.0455611)
(0.0335096 -0.000671842 0.0798604)
(0.00663389 -0.0326021 0.101496)
(-0.0208487 -0.0585877 0.107645)
(-0.0437876 -0.0768312 0.0983575)
(-0.0575413 -0.0876258 0.0756948)
(-0.0574207 -0.0905249 0.0439363)
(-0.0440509 -0.101476 -0.015377)
(-0.0228094 -0.0914727 -0.0561778)
(0.00422492 -0.0750801 -0.0879903)
(0.034378 -0.0523425 -0.106571)
(0.063423 -0.0248614 -0.109492)
(0.0878355 0.00402254 -0.0961038)
(0.104754 0.0287464 -0.0675909)
(0.111996 0.0422021 -0.0270906)
(0.10829 0.038934 0.0198676)
(0.0931448 0.0194531 0.0652878)
(0.0671118 -0.00906922 0.100435)
(0.0333306 -0.0377817 0.119082)
(-0.00195612 -0.0614759 0.11916)
(-0.0316098 -0.0789932 0.10197)
(-0.0501047 -0.0905189 0.0709653)
(-0.0527722 -0.0951075 0.0319888)
(-0.0424463 -0.102516 -0.036106)
(-0.0221622 -0.096519 -0.0758372)
(0.00500528 -0.0844066 -0.103986)
(0.0365631 -0.0659374 -0.11712)
(0.0685427 -0.0421149 -0.113803)
(0.0974259 -0.0154789 -0.0941545)
(0.119959 0.0092099 -0.0597765)
(0.132971 0.0251783 -0.0140782)
(0.133478 0.0265448 0.0367589)
(0.119155 0.0128948 0.0835497)
(0.0900342 -0.00965943 0.116645)
(0.0507555 -0.0334942 0.130115)
(0.00981456 -0.0544809 0.123006)
(-0.0242478 -0.0716948 0.0978756)
(-0.0456147 -0.0848034 0.0595789)
(-0.049982 -0.0922135 0.0153576)
(-0.0427952 -0.0974913 -0.0557601)
(-0.023066 -0.0966161 -0.0913604)
(0.0039454 -0.0899422 -0.113622)
(0.0360058 -0.0766885 -0.120108)
(0.06934 -0.0571443 -0.110351)
(0.100468 -0.033086 -0.0851483)
(0.125979 -0.00850143 -0.0464743)
(0.142228 0.0103793 0.00198227)
(0.145117 0.0175271 0.0534981)
(0.130901 0.0114912 0.0981423)
(0.0994157 -0.00335963 0.12625)
(0.0567307 -0.021313 0.132833)
(0.0129357 -0.0393232 0.118221)
(-0.0228091 -0.0564051 0.086179)
(-0.0449272 -0.0714867 0.0427546)
(-0.0497247 -0.0823442 -0.00365833)
(-0.0449707 -0.0874709 -0.0712188)
(-0.0251584 -0.0921835 -0.100002)
(0.00157284 -0.0912929 -0.114897)
(0.0333203 -0.0833187 -0.114463)
(0.0664782 -0.0678872 -0.0990153)
(0.0976554 -0.0462128 -0.069829)
(0.123489 -0.0217074 -0.0291562)
(0.140192 2.45497e-06 0.019031)
(0.143106 0.013057 0.0676298)
(0.127894 0.0151299 0.106692)
(0.0947292 0.00852704 0.127406)
(0.0508771 -0.00326696 0.126245)
(0.00714812 -0.0182842 0.104844)
(-0.0275227 -0.0352972 0.068017)
(-0.0482673 -0.0524895 0.0226839)
(-0.0521022 -0.067096 -0.0222039)
(-0.0483795 -0.0742423 -0.0798768)
(-0.0278701 -0.0842757 -0.100196)
(-0.00152228 -0.0886275 -0.107427)
(0.0291787 -0.0851574 -0.100923)
(0.0608161 -0.0730282 -0.0814833)
(0.0901461 -0.0531462 -0.0506069)
(0.11394 -0.02856 -0.0106963)
(0.128468 -0.00433966 0.0340418)
(0.129036 0.0140573 0.0764109)
(0.111614 0.0236484 0.107142)
(0.07739 0.0246826 0.11912)
(0.034461 0.0184699 0.11054)
(-0.00656314 0.00603075 0.0842064)
(-0.0376838 -0.0111141 0.0456985)
(-0.0551158 -0.0305217 0.00227688)
(-0.0565812 -0.0489156 -0.0373618)
(-0.0522643 -0.059895 -0.0802222)
(-0.0306996 -0.0741964 -0.0919693)
(-0.00489797 -0.0824425 -0.0925883)
(0.0241368 -0.0820658 -0.0819244)
(0.053188 -0.0720265 -0.0609192)
(0.079169 -0.0531276 -0.0310389)
(0.099012 -0.0282068 0.00528938)
(0.109157 -0.00184327 0.0437602)
(0.105362 0.0209494 0.0774588)
(0.0848087 0.0366433 0.098491)
(0.0501831 0.0436838 0.101843)
(0.00998936 0.0415701 0.087446)
(-0.0261595 0.0307008 0.0590461)
(-0.0517629 0.0129295 0.0225256)
(-0.0643203 -0.00877621 -0.0152693)
(-0.0622291 -0.0306537 -0.0467596)
(-0.0560109 -0.0464105 -0.0721764)
(-0.0333449 -0.0632398 -0.0768503)
(-0.008284 -0.0734763 -0.0731037)
(0.0186455 -0.0744412 -0.060944)
(0.0443795 -0.0651134 -0.0411335)
(0.0659304 -0.0463163 -0.0148977)
(0.0803666 -0.0207515 0.0154667)
(0.0844687 0.00737109 0.045761)
(0.0749874 0.0333366 0.0697714)
(0.0509959 0.0530733 0.0813841)
(0.0168156 0.0636271 0.0777701)
(-0.0191652 0.0633683 0.0603415)
(-0.0489033 0.0525505 0.0333711)
(-0.0677013 0.0334678 0.00239526)
(-0.0744249 0.00956323 -0.0269407)
(-0.0680889 -0.0149999 -0.0488708)
(-0.0592521 -0.035437 -0.0570183)
(-0.0356526 -0.0526428 -0.0574089)
(-0.0114715 -0.0627481 -0.0523228)
(0.013147 -0.0632441 -0.0416375)
(0.0351634 -0.0532659 -0.0256771)
(0.051595 -0.0337073 -0.00523673)
(0.0596644 -0.00718782 0.0176917)
(0.0567579 0.0222714 0.0392609)
(0.041162 0.0499358 0.0542758)
(0.0141804 0.0711445 0.0584862)
(-0.0185253 0.0821366 0.0509366)
(-0.0492218 0.0810211 0.0340306)
(-0.0717613 0.0685074 0.0119535)
(-0.0833093 0.0474955 -0.0108134)
(-0.0840107 0.021847 -0.0304042)
(-0.0734032 -0.00406572 -0.0431783)
(-0.0617244 -0.0283572 -0.0371031)
(-0.0374595 -0.0437149 -0.036709)
(-0.0141876 -0.0516465 -0.0335283)
(0.00814165 -0.0500036 -0.0270882)
(0.0263594 -0.0381673 -0.0170824)
(0.0374097 -0.0171495 -0.00369964)
(0.0387673 0.0104052 0.0115659)
(0.0287511 0.0404316 0.0254827)
(0.00752466 0.0679053 0.033981)
(-0.0214603 0.0877236 0.034336)
(-0.0517276 0.0960286 0.0268032)
(-0.0766148 0.0915227 0.0140479)
(-0.0919351 0.0758649 -0.000527779)
(-0.0966016 0.0527069 -0.0140311)
(-0.0918591 0.02622 -0.0245181)
(-0.0775951 0.000692615 -0.0302846)
(-0.0630685 -0.0263461 -0.0157125)
(-0.0384513 -0.0378478 -0.0179731)
(-0.0160026 -0.0418555 -0.0194983)
(0.00424575 -0.0366615 -0.0193221)
(0.0188416 -0.0220066 -0.0164193)
(0.0246512 0.000794821 -0.0102785)
(0.0196023 0.0288869 -0.00171016)
(0.00324163 0.0579866 0.00692508)
(-0.0223387 0.0828078 0.0126459)
(-0.0519869 0.0982461 0.0136594)
(-0.0789922 0.101115 0.0104132)
(-0.0980164 0.0914034 0.00482183)
(-0.106775 0.0720274 -0.0011445)
(-0.105699 0.04733 -0.00627378)
(-0.0968236 0.0215134 -0.010118)
(-0.0800938 -0.00162175 -0.0122551)
(-0.0624746 -0.0285495 0.00303003)
(-0.0379314 -0.0345439 -0.00443195)
(-0.0162256 -0.0336786 -0.0122596)
(0.00223734 -0.024382 -0.0190214)
(0.0135722 -0.00624913 -0.0231267)
(0.0145739 0.0195193 -0.02347)
(0.00390908 0.0496548 -0.020075)
(-0.0172102 0.0786019 -0.0142126)
(-0.0447583 0.0995008 -0.00772832)
(-0.072717 0.106958 -0.00195031)
(-0.0952277 0.099782 0.00272091)
(-0.108764 0.0812059 0.00634511)
(-0.112653 0.0566161 0.00887672)
(-0.108146 0.0310258 0.010023)
(-0.0973895 0.00788256 0.00945219)
(-0.0799854 -0.01032 0.00724476)
(-0.0324369 -0.0559519 0.0108688)
(-0.0146337 -0.0569051 -0.010232)
(-0.00179788 -0.0474602 -0.0293757)
(0.00413414 -0.0272485 -0.0416003)
(0.000870477 0.00138129 -0.0440828)
(-0.0113874 0.033759 -0.0373294)
(-0.0298643 0.0642958 -0.0244442)
(-0.0504693 0.0877933 -0.00926765)
(-0.0692582 0.10025 0.00528147)
(-0.0833642 0.0995618 0.0178871)
(-0.0912209 0.0861141 0.0284493)
(-0.0924618 0.0628128 0.0369722)
(-0.0877306 0.034201 0.0426661)
(-0.0783086 0.00506066 0.0439568)
(-0.065595 -0.0206886 0.039221)
(-0.0493367 -0.0397588 0.0279261)
(-0.0257348 -0.0672153 0.0216324)
(-0.0086785 -0.0620069 -0.00648479)
(0.0045351 -0.0469534 -0.0318177)
(0.011939 -0.0224002 -0.0490901)
(0.0111102 0.00911319 -0.0550798)
(0.00162402 0.0430506 -0.0496523)
(-0.0146823 0.073664 -0.0352863)
(-0.0343451 0.0951192 -0.0156095)
(-0.0532363 0.102855 0.00616269)
(-0.0677608 0.0950358 0.0277462)
(-0.0758605 0.0734301 0.0473551)
(-0.0773872 0.0429883 0.0629209)
(-0.0735935 0.0100175 0.0720339)
(-0.0660454 -0.0199571 0.0726267)
(-0.0557071 -0.0433644 0.063707)
(-0.0416574 -0.0578582 0.0458743)
(-0.0196386 -0.0816348 0.0226467)
(-0.00300776 -0.0716511 -0.0122096)
(0.0115346 -0.0520334 -0.0425128)
(0.0216786 -0.023768 -0.0627011)
(0.024809 0.0100212 -0.0695013)
(0.0200793 0.0443843 -0.0626165)
(0.00861912 0.0732682 -0.0443011)
(-0.00688546 0.0907471 -0.0181904)
(-0.0229019 0.0926565 0.0119006)
(-0.0361967 0.0781766 0.0424023)
(-0.045029 0.0505421 0.0696682)
(-0.0495202 0.0161363 0.0897967)
(-0.0506773 -0.0180276 0.0993671)
(-0.0490359 -0.0466885 0.0964612)
(-0.0441205 -0.0670681 0.0810943)
(-0.0338652 -0.0775976 0.0552453)
(-0.0143729 -0.0944761 0.0139854)
(0.00142393 -0.0817018 -0.0263976)
(0.0173312 -0.0596175 -0.0597404)
(0.0308269 -0.0296353 -0.0805542)
(0.0391904 0.00493049 -0.0858648)
(0.0411305 0.0391274 -0.0755153)
(0.0368498 0.0668354 -0.0517368)
(0.0278162 0.0818757 -0.0183116)
(0.0163812 0.0800006 0.0202321)
(0.004839 0.0609563 0.0588903)
(-0.00565774 0.0292608 0.0920972)
(-0.0152255 -0.00739241 0.114325)
(-0.0238489 -0.0415222 0.121654)
(-0.0302077 -0.068456 0.11289)
(-0.0320357 -0.0863087 0.0894252)
(-0.0261988 -0.0940933 0.0548503)
(-0.0107711 -0.103488 -0.00289183)
(0.00368523 -0.0903359 -0.0470263)
(0.0205202 -0.0682489 -0.0811658)
(0.0372163 -0.0388723 -0.100368)
(0.0510688 -0.00536751 -0.10231)
(0.0603613 0.0277267 -0.087189)
(0.0642702 0.0545676 -0.0572883)
(0.0627891 0.0688372 -0.0165103)
(0.0567065 0.0659149 0.029936)
(0.0470241 0.0455767 0.0755486)
(0.0341642 0.0130552 0.112782)
(0.0184003 -0.0232579 0.134714)
(0.00149294 -0.0559753 0.137434)
(-0.0130669 -0.0811921 0.120969)
(-0.0214455 -0.0975996 0.0884149)
(-0.0198446 -0.104398 0.0451508)
(-0.00967998 -0.107033 -0.0255422)
(0.00317184 -0.0958342 -0.0710614)
(0.0204196 -0.0762252 -0.103585)
(0.0396533 -0.049776 -0.119135)
(0.0582161 -0.0191343 -0.11628)
(0.0740262 0.0118931 -0.0956929)
(0.0854012 0.0380391 -0.0597428)
(0.0910456 0.0530605 -0.012375)
(0.0901807 0.0518819 0.0406342)
(0.0822969 0.0338116 0.0913112)
(0.0669945 0.00397141 0.13022)
(0.0452476 -0.0293884 0.149418)
(0.0208854 -0.0595379 0.145559)
(-0.000543584 -0.0832577 0.120277)
(-0.014178 -0.0993176 0.0785931)
(-0.0160947 -0.106732 0.0277338)
(-0.0115405 -0.104547 -0.050725)
(-8.75364e-05 -0.0972588 -0.0947119)
(0.0172374 -0.0822422 -0.123198)
(0.0381532 -0.0605825 -0.133415)
(0.0599944 -0.0341104 -0.124895)
(0.0803943 -0.00576123 -0.0988001)