/*--------------------------------*- C++ -*----------------------------------*\
| =========                 |                                                 |
| \\      /  F ield         | OpenFOAM: The Open Source CFD Toolbox           |
|  \\    /   O peration     | Version:  3.0.0                                 |
|   \\  /    A nd           | Web:      www.OpenFOAM.org                      |
|    \\/     M anipulation  |                                                 |
\*---------------------------------------------------------------------------*/
FoamFile
{
    version     2.0;
    format      ascii;
    class       volScalarField;
    location    "500";
    object      p;
}
// * * * * * * * * * * * * * * * * * * * * * * * * * * * * * * * * * * * * * //

dimensions      [0 2 -2 0 0 0 0];

internalField   nonuniform List<scalar> 
276480
(
4.81585e-12
4.83988e-12
4.87045e-12
4.92054e-12
4.93247e-12
4.93599e-12
5.08771e-12
5.05662e-12
5.07156e-12
5.15044e-12
5.19851e-12
5.26364e-12
5.19205e-12
5.21972e-12
5.36802e-12
5.3489e-12
5.37512e-12
5.42501e-12
5.4684e-12
5.51897e-12
5.49133e-12
5.49035e-12
5.46937e-12
5.47944e-12
5.32623e-12
5.321e-12
5.36412e-12
5.33222e-12
5.32389e-12
5.37628e-12
5.42305e-12
5.33181e-12
5.24419e-12
5.27089e-12
5.23026e-12
5.15195e-12
5.0594e-12
4.96339e-12
4.92171e-12
4.88765e-12
4.78879e-12
4.67717e-12
4.54977e-12
4.52668e-12
4.5064e-12
4.45139e-12
4.3892e-12
4.29082e-12
4.21444e-12
4.1306e-12
4.09564e-12
4.13548e-12
4.02625e-12
3.95282e-12
3.89403e-12
3.75483e-12
3.73434e-12
3.68113e-12
3.62763e-12
3.54624e-12
3.41738e-12
3.3924e-12
3.32108e-12
3.29531e-12
3.29758e-12
3.18093e-12
3.06793e-12
3.01856e-12
2.99481e-12
2.99987e-12
2.95466e-12
2.87933e-12
2.83407e-12
2.74315e-12
2.67147e-12
2.59611e-12
2.57188e-12
2.59862e-12
2.47154e-12
2.35558e-12
2.27557e-12
2.22599e-12
2.14022e-12
2.00152e-12
2.04307e-12
1.97896e-12
1.86491e-12
1.90644e-12
1.97864e-12
1.96187e-12
1.8627e-12
1.70783e-12
1.6471e-12
1.64362e-12
1.5572e-12
1.47509e-12
1.3754e-12
1.26207e-12
1.24055e-12
1.1802e-12
1.06108e-12
9.82733e-13
9.34614e-13
8.78222e-13
8.33661e-13
7.29241e-13
6.01286e-13
5.98753e-13
6.58971e-13
5.79384e-13
5.24201e-13
4.49245e-13
3.51234e-13
3.65603e-13
3.82154e-13
2.63003e-13
2.42597e-13
2.35328e-13
1.1955e-13
2.30239e-14
4.81614e-12
4.82648e-12
4.8701e-12
4.9557e-12
4.96697e-12
4.95528e-12
5.00526e-12
5.07087e-12
5.10958e-12
5.13161e-12
5.18064e-12
5.2052e-12
5.25315e-12
5.26875e-12
5.2912e-12
5.40252e-12
5.40142e-12
5.39635e-12
5.48666e-12
5.49774e-12
5.43986e-12
5.54035e-12
5.49712e-12
5.38511e-12
5.34593e-12
5.39667e-12
5.40943e-12
5.32165e-12
5.36552e-12
5.40092e-12
5.34104e-12
5.32565e-12
5.31177e-12
5.2318e-12
5.19635e-12
5.16063e-12
5.05446e-12
4.94612e-12
4.91919e-12
4.90129e-12
4.78157e-12
4.63585e-12
4.53319e-12
4.54842e-12
4.53247e-12
4.4237e-12
4.32808e-12
4.27046e-12
4.2595e-12
4.192e-12
4.13263e-12
4.08365e-12
4.00842e-12
3.94435e-12
3.86902e-12
3.82679e-12
3.75589e-12
3.7001e-12
3.58555e-12
3.5024e-12
3.41368e-12
3.38127e-12
3.3796e-12
3.31289e-12
3.22719e-12
3.14947e-12
3.10135e-12
3.03053e-12
2.98387e-12
2.98102e-12
2.9091e-12
2.87568e-12
2.84773e-12
2.75039e-12
2.65073e-12
2.59198e-12
2.56227e-12
2.57102e-12
2.47501e-12
2.40154e-12
2.3381e-12
2.25393e-12
2.13049e-12
2.04123e-12
2.03121e-12
1.9693e-12
1.91901e-12
1.87077e-12
1.8748e-12
1.87828e-12
1.89297e-12
1.75107e-12
1.68197e-12
1.65128e-12
1.53154e-12
1.474e-12
1.40304e-12
1.29613e-12
1.21083e-12
1.16401e-12
1.04567e-12
9.37275e-13
9.18056e-13
8.6462e-13
8.0898e-13
7.13728e-13
6.26201e-13
6.23242e-13
6.25244e-13
5.71881e-13
5.1809e-13
4.65713e-13
4.23028e-13
3.86012e-13
3.11428e-13
2.34716e-13
2.32321e-13
2.13968e-13
1.28618e-13
5.22507e-14
4.79036e-12
4.83584e-12
4.88065e-12
4.93198e-12
4.99449e-12
5.01054e-12
4.99336e-12
5.04443e-12
5.10467e-12
5.19837e-12
5.16669e-12
5.19294e-12
5.23069e-12
5.25658e-12
5.31686e-12
5.35458e-12
5.4077e-12
5.42079e-12
5.44236e-12
5.44179e-12
5.42399e-12
5.48711e-12
5.48458e-12
5.46816e-12
5.38463e-12
5.36072e-12
5.34297e-12
5.3447e-12
5.3969e-12
5.42788e-12
5.35802e-12
5.3579e-12
5.31189e-12
5.25921e-12
5.23498e-12
5.16688e-12
5.0514e-12
4.97318e-12
4.8885e-12
4.85837e-12
4.77612e-12
4.65151e-12
4.60966e-12
4.55265e-12
4.48486e-12
4.4304e-12
4.36316e-12
4.33035e-12
4.24264e-12
4.16355e-12
4.09206e-12
4.06504e-12
4.02852e-12
3.96109e-12
3.89369e-12
3.82258e-12
3.73172e-12
3.68604e-12
3.60019e-12
3.52483e-12
3.48197e-12
3.37562e-12
3.30938e-12
3.31121e-12
3.23861e-12
3.18491e-12
3.14787e-12
3.01835e-12
2.95113e-12
3.00899e-12
2.97866e-12
2.90387e-12
2.77913e-12
2.71172e-12
2.65253e-12
2.63191e-12
2.58414e-12
2.50071e-12
2.47299e-12
2.42609e-12
2.33098e-12
2.22811e-12
2.15704e-12
2.06499e-12
2.0372e-12
1.97762e-12
1.88376e-12
1.86387e-12
1.89526e-12
1.89752e-12
1.82647e-12
1.74312e-12
1.65543e-12
1.62926e-12
1.55799e-12
1.47869e-12
1.45115e-12
1.32039e-12
1.19244e-12
1.17587e-12
1.01659e-12
9.40552e-13
9.15318e-13
8.40323e-13
8.23523e-13
7.59958e-13
6.71084e-13
6.36655e-13
6.15728e-13
5.82959e-13
5.39669e-13
5.17208e-13
4.67271e-13
3.62598e-13
2.99679e-13
2.58126e-13
2.41902e-13
1.70102e-13
9.20835e-14
1.48878e-14
4.75791e-12
4.82693e-12
4.89368e-12
4.97558e-12
4.9963e-12
4.97671e-12
4.97501e-12
5.09919e-12
5.17339e-12
5.17185e-12
5.15904e-12
5.20043e-12
5.22887e-12
5.26398e-12
5.31074e-12
5.33496e-12
5.36966e-12
5.42913e-12
5.4498e-12
5.44467e-12
5.44511e-12
5.47601e-12
5.46844e-12
5.43819e-12
5.37805e-12
5.38234e-12
5.37223e-12
5.39391e-12
5.42519e-12
5.4007e-12
5.34025e-12
5.30063e-12
5.32245e-12
5.28781e-12
5.24386e-12
5.13485e-12
5.02403e-12
4.96507e-12
4.93211e-12
4.8605e-12
4.76698e-12
4.67138e-12
4.62159e-12
4.58272e-12
4.52619e-12
4.43492e-12
4.3816e-12
4.34974e-12
4.29853e-12
4.18601e-12
4.09351e-12
4.08158e-12
4.01046e-12
3.93537e-12
3.90008e-12
3.84491e-12
3.74138e-12
3.66363e-12
3.63009e-12
3.56007e-12
3.48646e-12
3.39376e-12
3.31667e-12
3.29554e-12
3.22734e-12
3.15193e-12
3.09081e-12
3.04166e-12
2.97929e-12
2.9521e-12
2.98397e-12
2.90385e-12
2.77804e-12
2.71806e-12
2.67238e-12
2.64267e-12
2.59759e-12
2.54593e-12
2.44484e-12
2.39751e-12
2.32104e-12
2.2576e-12
2.1777e-12
2.09008e-12
2.06359e-12
2.00944e-12
1.89097e-12
1.85989e-12
1.8697e-12
1.85696e-12
1.83121e-12
1.73633e-12
1.6642e-12
1.59728e-12
1.52256e-12
1.4601e-12
1.42381e-12
1.30383e-12
1.21954e-12
1.15896e-12
1.04552e-12
9.5313e-13
9.29003e-13
8.39594e-13
8.15768e-13
7.73162e-13
6.60654e-13
6.2402e-13
6.46849e-13
6.26438e-13
5.88031e-13
4.81386e-13
4.48211e-13
3.73908e-13
3.3846e-13
2.60717e-13
2.05474e-13
2.25523e-13
1.09538e-13
3.34172e-14
4.75145e-12
4.84128e-12
4.89252e-12
4.9568e-12
5.01263e-12
4.9843e-12
5.01012e-12
5.12059e-12
5.1472e-12
5.11373e-12
5.14769e-12
5.20822e-12
5.28284e-12
5.28428e-12
5.33187e-12
5.34579e-12
5.3202e-12
5.37816e-12
5.46307e-12
5.47606e-12
5.44632e-12
5.46493e-12
5.44062e-12
5.41024e-12
5.35516e-12
5.40593e-12
5.4318e-12
5.32994e-12
5.37435e-12
5.40312e-12
5.29061e-12
5.28649e-12
5.32689e-12
5.25371e-12
5.20983e-12
5.14647e-12
5.04748e-12
4.96275e-12
4.89106e-12
4.89194e-12
4.75566e-12
4.60895e-12
4.63582e-12
4.60323e-12
4.55527e-12
4.48198e-12
4.42609e-12
4.35607e-12
4.28101e-12
4.21047e-12
4.14056e-12
4.07854e-12
4.01029e-12
3.90388e-12
3.89907e-12
3.84998e-12
3.73245e-12
3.68506e-12
3.64221e-12
3.52043e-12
3.46419e-12
3.42642e-12
3.33053e-12
3.30934e-12
3.18799e-12
3.10212e-12
3.12124e-12
3.07097e-12
2.99609e-12
2.98599e-12
2.94578e-12
2.81762e-12
2.77511e-12
2.73295e-12
2.6286e-12
2.6416e-12
2.6205e-12
2.56018e-12
2.45026e-12
2.39013e-12
2.32328e-12
2.29165e-12
2.19918e-12
2.13552e-12
2.10195e-12
1.99407e-12
1.89384e-12
1.85511e-12
1.81338e-12
1.81608e-12
1.8359e-12
1.757e-12
1.65781e-12
1.56988e-12
1.51847e-12
1.48461e-12
1.42355e-12
1.29315e-12
1.24174e-12
1.19303e-12
1.0557e-12
9.94208e-13
9.63129e-13
8.39938e-13
7.7896e-13
8.1282e-13
7.21829e-13
6.4024e-13
6.35806e-13
6.21483e-13
5.64441e-13
5.11535e-13
4.40069e-13
3.79992e-13
3.28879e-13
2.66085e-13
2.07224e-13
1.58796e-13
8.73652e-14
2.85129e-14
4.73274e-12
4.86242e-12
4.88595e-12
4.90354e-12
5.03461e-12
5.00963e-12
5.00425e-12
5.09851e-12
5.12916e-12
5.09992e-12
5.13357e-12
5.21235e-12
5.28773e-12
5.24437e-12
5.28094e-12
5.30665e-12
5.35992e-12
5.40837e-12
5.37227e-12
5.44323e-12
5.4479e-12
5.41684e-12
5.45619e-12
5.50905e-12
5.39623e-12
5.40078e-12
5.40328e-12
5.32023e-12
5.34948e-12
5.36247e-12
5.28889e-12
5.30952e-12
5.32675e-12
5.22406e-12
5.19317e-12
5.11617e-12
5.04727e-12
4.96249e-12
4.91804e-12
4.90939e-12
4.73051e-12
4.62613e-12
4.64019e-12
4.59353e-12
4.5124e-12
4.46845e-12
4.41808e-12
4.34945e-12
4.29587e-12
4.19781e-12
4.10116e-12
4.0752e-12
4.03497e-12
3.98114e-12
3.91544e-12
3.82082e-12
3.75915e-12
3.70281e-12
3.6083e-12
3.50316e-12
3.44252e-12
3.40337e-12
3.3161e-12
3.27578e-12
3.24366e-12
3.14927e-12
3.08124e-12
3.02368e-12
2.97705e-12
3.00697e-12
2.96263e-12
2.79409e-12
2.75722e-12
2.72901e-12
2.63203e-12
2.63427e-12
2.60366e-12
2.49542e-12
2.43682e-12
2.3962e-12
2.3428e-12
2.27944e-12
2.18744e-12
2.12552e-12
2.08282e-12
2.03139e-12
1.91843e-12
1.88571e-12
1.86226e-12
1.83608e-12
1.78528e-12
1.74477e-12
1.6925e-12
1.58904e-12
1.50947e-12
1.44779e-12
1.37407e-12
1.26741e-12
1.23019e-12
1.18175e-12
1.07855e-12
9.85042e-13
9.96408e-13
8.90187e-13
7.88364e-13
7.68468e-13
7.16595e-13
6.79614e-13
6.44419e-13
5.91525e-13
5.14805e-13
4.9672e-13
4.27814e-13
3.78717e-13
3.54606e-13
2.81347e-13
2.15838e-13
1.94567e-13
9.98245e-14
2.73716e-14
4.76754e-12
4.81469e-12
4.84086e-12
4.90861e-12
5.01695e-12
5.03676e-12
5.04293e-12
5.07879e-12
5.10778e-12
5.08244e-12
5.15243e-12
5.22938e-12
5.27749e-12
5.26377e-12
5.24919e-12
5.31012e-12
5.35582e-12
5.38618e-12
5.44289e-12
5.41775e-12
5.39831e-12
5.42129e-12
5.44632e-12
5.46545e-12
5.37495e-12
5.38873e-12
5.4034e-12
5.34951e-12
5.33182e-12
5.34121e-12
5.29319e-12
5.30045e-12
5.34298e-12
5.20614e-12
5.1582e-12
5.12109e-12
5.04965e-12
4.97349e-12
4.93949e-12
4.86209e-12
4.72455e-12
4.6782e-12
4.6678e-12
4.59469e-12
4.48012e-12
4.42715e-12
4.40838e-12
4.36209e-12
4.27809e-12
4.18583e-12
4.09318e-12
4.06345e-12
4.04368e-12
4.02357e-12
3.93683e-12
3.81006e-12
3.74209e-12
3.68145e-12
3.5847e-12
3.46309e-12
3.44951e-12
3.42884e-12
3.33217e-12
3.29554e-12
3.25079e-12
3.13872e-12
3.05268e-12
3.02859e-12
2.96001e-12
2.98682e-12
2.94174e-12
2.8036e-12
2.72841e-12
2.69069e-12
2.64091e-12
2.64807e-12
2.61672e-12
2.53176e-12
2.43458e-12
2.38374e-12
2.3552e-12
2.30578e-12
2.22797e-12
2.15798e-12
2.11198e-12
2.0489e-12
1.91505e-12
1.88107e-12
1.87176e-12
1.81559e-12
1.77022e-12
1.724e-12
1.68672e-12
1.52426e-12
1.44746e-12
1.41456e-12
1.41861e-12
1.28944e-12
1.22194e-12
1.22925e-12
1.09903e-12
9.32704e-13
9.1336e-13
8.91655e-13
8.41633e-13
7.76138e-13
7.20678e-13
7.13032e-13
6.87201e-13
5.75661e-13
5.34183e-13
5.24266e-13
4.22883e-13
3.5259e-13
3.1843e-13
2.70784e-13
2.11616e-13
1.48444e-13
1.20775e-13
4.80303e-14
4.81763e-12
4.83029e-12
4.85758e-12
4.92121e-12
4.98676e-12
5.00689e-12
5.01588e-12
5.0836e-12
5.10698e-12
5.0301e-12
5.14809e-12
5.20974e-12
5.26782e-12
5.24422e-12
5.22988e-12
5.32765e-12
5.36873e-12
5.39034e-12
5.4417e-12
5.41033e-12
5.40135e-12
5.46884e-12
5.45175e-12
5.40324e-12
5.36452e-12
5.43132e-12
5.47008e-12
5.31005e-12
5.27585e-12
5.35682e-12
5.27281e-12
5.2716e-12
5.32788e-12
5.20678e-12
5.14077e-12
5.11547e-12
5.02433e-12
4.97297e-12
4.94795e-12
4.86704e-12
4.75959e-12
4.6859e-12
4.67739e-12
4.60123e-12
4.48038e-12
4.40749e-12
4.37784e-12
4.321e-12
4.26536e-12
4.22501e-12
4.11493e-12
4.04881e-12
4.05084e-12
4.00015e-12
3.89634e-12
3.81142e-12
3.7265e-12
3.5945e-12
3.53222e-12
3.49639e-12
3.47916e-12
3.42194e-12
3.36063e-12
3.2934e-12
3.18979e-12
3.12976e-12
3.10651e-12
3.03851e-12
3.00087e-12
2.96214e-12
2.87494e-12
2.77615e-12
2.73735e-12
2.71628e-12
2.67184e-12
2.66291e-12
2.59967e-12
2.50062e-12
2.43461e-12
2.36422e-12
2.32388e-12
2.26559e-12
2.23456e-12
2.22186e-12
2.14995e-12
2.04277e-12
1.92953e-12
1.86076e-12
1.85116e-12
1.80414e-12
1.77501e-12
1.71276e-12
1.60499e-12
1.49716e-12
1.51528e-12
1.48128e-12
1.36028e-12
1.23244e-12
1.20465e-12
1.21634e-12
1.08983e-12
9.7086e-13
9.56604e-13
8.82034e-13
8.22954e-13
7.68087e-13
7.1475e-13
6.61352e-13
6.53589e-13
5.97675e-13
5.29047e-13
4.88102e-13
3.88954e-13
3.29734e-13
3.07811e-13
2.86353e-13
2.14366e-13
1.78743e-13
1.1292e-13
2.81846e-14
4.78021e-12
4.80804e-12
4.83473e-12
4.92747e-12
4.97587e-12
4.97317e-12
5.04486e-12
5.08787e-12
5.10773e-12
5.10519e-12
5.10184e-12
5.17595e-12
5.26596e-12
5.26694e-12
5.26133e-12
5.27402e-12
5.35764e-12
5.38269e-12
5.41557e-12
5.39812e-12
5.37286e-12
5.38877e-12
5.45175e-12
5.48762e-12
5.39846e-12
5.40489e-12
5.39149e-12
5.29601e-12
5.30561e-12
5.32513e-12
5.26041e-12
5.29084e-12
5.31594e-12
5.21401e-12
5.13436e-12
5.07064e-12
5.05055e-12
4.97902e-12
4.94767e-12
4.82465e-12
4.72049e-12
4.6944e-12
4.65686e-12
4.56635e-12
4.45943e-12
4.38476e-12
4.36346e-12
4.31791e-12
4.28079e-12
4.22387e-12
4.10773e-12
4.06155e-12
4.04286e-12
3.98198e-12
3.88942e-12
3.8175e-12
3.70157e-12
3.58862e-12
3.5217e-12
3.47725e-12
3.43037e-12
3.41287e-12
3.35558e-12
3.28672e-12
3.21436e-12
3.12097e-12
3.12757e-12
3.05499e-12
2.96608e-12
2.92979e-12
2.86792e-12
2.74585e-12
2.72315e-12
2.73432e-12
2.68686e-12
2.6614e-12
2.60042e-12
2.47234e-12
2.44738e-12
2.39322e-12
2.34407e-12
2.24563e-12
2.21833e-12
2.18033e-12
2.1137e-12
2.04991e-12
1.93277e-12
1.89184e-12
1.84909e-12
1.80612e-12
1.74632e-12
1.68954e-12
1.6036e-12
1.50161e-12
1.46523e-12
1.4256e-12
1.33896e-12
1.23125e-12
1.21264e-12
1.14461e-12
1.07735e-12
1.02381e-12
9.12642e-13
8.54411e-13
8.33863e-13
7.96758e-13
7.28692e-13
6.65937e-13
6.95382e-13
5.87032e-13
5.09856e-13
5.03173e-13
4.33224e-13
3.62842e-13
3.32047e-13
2.8767e-13
2.36433e-13
1.67526e-13
7.82993e-14
1.46188e-14
4.77501e-12
4.84375e-12
4.86274e-12
4.91422e-12
4.95333e-12
4.98703e-12
5.03653e-12
5.05312e-12
5.12438e-12
5.11298e-12
5.09779e-12
5.15189e-12
5.20479e-12
5.23919e-12
5.24712e-12
5.26869e-12
5.34009e-12
5.36435e-12
5.41302e-12
5.39689e-12
5.39056e-12
5.38312e-12
5.44207e-12
5.45644e-12
5.39095e-12
5.39077e-12
5.35105e-12
5.28451e-12
5.28738e-12
5.26818e-12
5.22304e-12
5.29133e-12
5.29784e-12
5.19462e-12
5.14016e-12
5.09659e-12
5.04175e-12
4.98154e-12
4.91271e-12
4.8452e-12
4.73793e-12
4.67594e-12
4.63078e-12
4.56759e-12
4.45859e-12
4.40122e-12
4.36693e-12
4.33981e-12
4.28033e-12
4.17142e-12
4.12206e-12
4.11013e-12
4.04427e-12
3.92466e-12
3.85909e-12
3.80233e-12
3.6769e-12
3.60147e-12
3.55208e-12
3.48101e-12
3.43574e-12
3.40365e-12
3.35923e-12
3.28519e-12
3.23947e-12
3.18366e-12
3.10477e-12
3.05344e-12
2.95649e-12
2.89215e-12
2.87899e-12
2.7506e-12
2.69145e-12
2.71499e-12
2.70833e-12
2.6764e-12
2.61521e-12
2.49939e-12
2.40137e-12
2.3414e-12
2.31171e-12
2.30461e-12
2.21886e-12
2.14953e-12
2.06305e-12
1.99361e-12
1.9264e-12
1.86915e-12
1.85414e-12
1.79884e-12
1.76376e-12
1.68376e-12
1.63132e-12
1.5382e-12
1.45034e-12
1.41359e-12
1.33095e-12
1.2514e-12
1.21751e-12
1.15148e-12
1.04148e-12
9.8955e-13
9.69549e-13
8.34463e-13
8.0538e-13
8.27721e-13
7.22261e-13
6.68991e-13
6.92091e-13
5.56284e-13
5.22512e-13
5.01504e-13
4.14474e-13
3.7071e-13
3.23601e-13
2.33234e-13
1.4985e-13
1.59275e-13
1.32987e-13
3.54824e-14
4.82637e-12
4.83617e-12
4.88468e-12
4.95113e-12
4.97477e-12
4.95287e-12
5.0043e-12
5.06031e-12
5.11316e-12
5.03966e-12
5.10195e-12
5.14611e-12
5.20669e-12
5.26201e-12
5.28217e-12
5.29165e-12
5.28928e-12
5.33516e-12
5.4106e-12
5.37754e-12
5.35992e-12
5.37709e-12
5.40162e-12
5.39613e-12
5.37651e-12
5.39628e-12
5.36716e-12
5.22006e-12
5.22621e-12
5.26748e-12
5.20925e-12
5.26091e-12
5.30737e-12
5.13233e-12
5.10081e-12
5.11675e-12
5.03152e-12
4.94115e-12
4.89753e-12
4.86147e-12
4.74356e-12
4.653e-12
4.66589e-12
4.61123e-12
4.4941e-12
4.38554e-12
4.35685e-12
4.33378e-12
4.28319e-12
4.16901e-12
4.09444e-12
4.07752e-12
4.03553e-12
3.9593e-12
3.89506e-12
3.80542e-12
3.71045e-12
3.61478e-12
3.52491e-12
3.44775e-12
3.46545e-12
3.41718e-12
3.37779e-12
3.27096e-12
3.20574e-12
3.15373e-12
3.10966e-12
3.0777e-12
2.9937e-12
2.89597e-12
2.82598e-12
2.75824e-12
2.73374e-12
2.72917e-12
2.6885e-12
2.61381e-12
2.53154e-12
2.43675e-12
2.4265e-12
2.3373e-12
2.27586e-12
2.25487e-12
2.18589e-12
2.15254e-12
2.11773e-12
2.00306e-12
1.85596e-12
1.83882e-12
1.84394e-12
1.79321e-12
1.7394e-12
1.64705e-12
1.56653e-12
1.49502e-12
1.51164e-12
1.44362e-12
1.33272e-12
1.28048e-12
1.23292e-12
1.19096e-12
1.04545e-12
9.3349e-13
9.43453e-13
8.84452e-13
8.20243e-13
8.07903e-13
7.52819e-13
7.0255e-13
6.1875e-13
5.25484e-13
5.12916e-13
5.17326e-13
4.24393e-13
3.44104e-13
3.17366e-13
2.20834e-13
1.23898e-13
1.58007e-13
1.26795e-13
2.8421e-14
4.81768e-12
4.81801e-12
4.87653e-12
4.9611e-12
5.00345e-12
4.979e-12
4.9451e-12
5.0314e-12
5.09712e-12
5.14805e-12
5.10879e-12
5.11242e-12
5.1557e-12
5.23102e-12
5.27312e-12
5.26498e-12
5.24076e-12
5.25999e-12
5.36498e-12
5.39348e-12
5.39919e-12
5.33642e-12
5.38333e-12
5.41605e-12
5.43008e-12
5.36253e-12
5.28703e-12
5.26571e-12
5.22647e-12
5.26147e-12
5.21094e-12
5.24459e-12
5.22071e-12
5.14015e-12
5.12225e-12
5.10053e-12
5.02397e-12
4.94951e-12
4.87407e-12
4.78666e-12
4.71811e-12
4.65705e-12
4.63111e-12
4.58374e-12
4.48219e-12
4.41577e-12
4.38364e-12
4.3547e-12
4.28014e-12
4.2116e-12
4.1094e-12
4.07294e-12
3.99804e-12
3.88786e-12
3.81381e-12
3.77779e-12
3.68204e-12
3.60794e-12
3.54994e-12
3.50154e-12
3.4197e-12
3.38996e-12
3.38555e-12
3.24332e-12
3.21692e-12
3.17832e-12
3.10894e-12
3.03701e-12
2.9702e-12
2.9288e-12
2.83572e-12
2.73648e-12
2.71448e-12
2.69982e-12
2.68889e-12
2.5668e-12
2.51572e-12
2.48031e-12
2.38548e-12
2.39694e-12
2.3489e-12
2.23094e-12
2.15048e-12
2.087e-12
2.0728e-12
1.9787e-12
1.85749e-12
1.8626e-12
1.84712e-12
1.80435e-12
1.7417e-12
1.64121e-12
1.60888e-12
1.54094e-12
1.49329e-12
1.43408e-12
1.37913e-12
1.30296e-12
1.22419e-12
1.12655e-12
1.00413e-12
9.28986e-13
9.13727e-13
8.71099e-13
8.43179e-13
7.86063e-13
6.87886e-13
6.54709e-13
6.14533e-13
5.39124e-13
4.97852e-13
5.28946e-13
4.00151e-13
2.87149e-13
2.60794e-13
2.30005e-13
1.52669e-13
1.83319e-13
1.34137e-13
3.53122e-14
4.83616e-12
4.83115e-12
4.8753e-12
4.95043e-12
5.00484e-12
4.99e-12
4.9654e-12
5.0518e-12
5.07176e-12
5.13411e-12
5.12237e-12
5.12887e-12
5.16224e-12
5.17796e-12
5.22723e-12
5.21429e-12
5.24488e-12
5.29015e-12
5.36722e-12
5.35356e-12
5.36352e-12
5.38422e-12
5.37049e-12
5.40928e-12
5.38591e-12
5.34754e-12
5.32371e-12
5.24876e-12
5.18369e-12
5.19427e-12
5.19697e-12
5.19812e-12
5.19425e-12
5.15172e-12
5.10835e-12
5.06063e-12
4.9518e-12
4.93674e-12
4.88533e-12
4.79239e-12
4.70205e-12
4.67779e-12
4.61853e-12
4.55838e-12
4.49489e-12
4.45676e-12
4.38595e-12
4.3132e-12
4.26411e-12
4.15994e-12
4.06959e-12
4.05686e-12
3.98504e-12
3.87202e-12
3.82889e-12
3.7719e-12
3.6667e-12
3.56273e-12
3.51212e-12
3.46244e-12
3.43247e-12
3.43417e-12
3.34465e-12
3.19726e-12
3.24286e-12
3.23286e-12
3.10854e-12
3.01466e-12
2.92766e-12
2.92707e-12
2.85404e-12
2.77673e-12
2.73709e-12
2.71357e-12
2.65436e-12
2.56916e-12
2.50364e-12
2.47e-12
2.44313e-12
2.4195e-12
2.35105e-12
2.24885e-12
2.13785e-12
2.08144e-12
2.08175e-12
1.97238e-12
1.84662e-12
1.83288e-12
1.78889e-12
1.77804e-12
1.77607e-12
1.64761e-12
1.59149e-12
1.5535e-12
1.49154e-12
1.45879e-12
1.38882e-12
1.26841e-12
1.1653e-12
1.09297e-12
9.85822e-13
9.19054e-13
9.07902e-13
8.42977e-13
8.08536e-13
7.65134e-13
6.74911e-13
6.21956e-13
6.12758e-13
5.55357e-13
5.43896e-13
5.2475e-13
4.20144e-13
3.59951e-13
2.78158e-13
2.13952e-13
1.33379e-13
1.24909e-13
5.23409e-14
-1.84501e-14
4.80235e-12
4.85186e-12
4.90038e-12
4.94457e-12
4.97541e-12
4.97165e-12
5.02531e-12
5.05942e-12
5.08277e-12
5.11733e-12
5.13488e-12
5.10963e-12
5.16625e-12
5.14865e-12
5.1742e-12
5.27316e-12
5.21331e-12
5.22316e-12
5.30266e-12
5.30063e-12
5.33532e-12
5.38248e-12
5.36371e-12
5.38476e-12
5.35282e-12
5.3302e-12
5.319e-12
5.18891e-12
5.14243e-12
5.18534e-12
5.15994e-12
5.14905e-12
5.16539e-12
5.08536e-12
5.06993e-12
5.06149e-12
4.93916e-12
4.90283e-12
4.8503e-12
4.82117e-12
4.71773e-12
4.63305e-12
4.6244e-12
4.53582e-12
4.45993e-12
4.45707e-12
4.40508e-12
4.3249e-12
4.26179e-12
4.13926e-12
4.06193e-12
4.0592e-12
3.97117e-12
3.84746e-12
3.8596e-12
3.77857e-12
3.65582e-12
3.55319e-12
3.49239e-12
3.42312e-12
3.47387e-12
3.44711e-12
3.31337e-12
3.22137e-12
3.21388e-12
3.18052e-12
3.12935e-12
3.0488e-12
2.94039e-12
2.92771e-12
2.87808e-12
2.78213e-12
2.73895e-12
2.69016e-12
2.64127e-12
2.57138e-12
2.54388e-12
2.49193e-12
2.42356e-12
2.37215e-12
2.27749e-12
2.19147e-12
2.14884e-12
2.10744e-12
2.06787e-12
1.98237e-12
1.88408e-12
1.84072e-12
1.76456e-12
1.74132e-12
1.78106e-12
1.67465e-12
1.62947e-12
1.52749e-12
1.48746e-12
1.4351e-12
1.33297e-12
1.19405e-12
1.08606e-12
1.06055e-12
9.96513e-13
9.57943e-13
8.70936e-13
8.35991e-13
7.84735e-13
7.43351e-13
6.76899e-13
6.13946e-13
6.20917e-13
5.68987e-13
5.40987e-13
5.08578e-13
4.05913e-13
3.2764e-13
3.17042e-13
2.61099e-13
1.57316e-13
1.05337e-13
7.72489e-14
2.33143e-14
4.86076e-12
4.88063e-12
4.89216e-12
4.9344e-12
4.962e-12
4.99769e-12
5.03981e-12
5.04537e-12
5.06515e-12
5.07685e-12
5.1088e-12
5.12485e-12
5.15275e-12
5.12795e-12
5.14226e-12
5.19791e-12
5.21247e-12
5.18484e-12
5.23796e-12
5.27985e-12
5.31442e-12
5.35137e-12
5.35553e-12
5.40666e-12
5.31728e-12
5.26811e-12
5.24907e-12
5.18505e-12
5.14865e-12
5.14793e-12
5.15813e-12
5.14862e-12
5.13e-12
5.04053e-12
5.0309e-12
5.00006e-12
4.96426e-12
4.85212e-12
4.7739e-12
4.78917e-12
4.72091e-12
4.64965e-12
4.62442e-12
4.52602e-12
4.42533e-12
4.41806e-12
4.39631e-12
4.34237e-12
4.21881e-12
4.14817e-12
4.09159e-12
4.04483e-12
3.96451e-12
3.87997e-12
3.79715e-12
3.73163e-12
3.64507e-12
3.51158e-12
3.48056e-12
3.42057e-12
3.44248e-12
3.41799e-12
3.28655e-12
3.22488e-12
3.262e-12
3.22255e-12
3.13367e-12
3.0743e-12
2.93436e-12
2.91728e-12
2.85206e-12
2.74322e-12
2.66382e-12
2.68174e-12
2.63877e-12
2.5983e-12
2.55046e-12
2.46607e-12
2.43203e-12
2.39041e-12
2.31889e-12
2.22191e-12
2.16069e-12
2.08194e-12
2.01398e-12
1.95815e-12
1.84074e-12
1.82106e-12
1.7934e-12
1.759e-12
1.76523e-12
1.66595e-12
1.64924e-12
1.54649e-12
1.43458e-12
1.34973e-12
1.30663e-12
1.17909e-12
1.08812e-12
1.05064e-12
9.87117e-13
9.47697e-13
8.87984e-13
8.28218e-13
7.73568e-13
7.59266e-13
6.42965e-13
6.11679e-13
6.28374e-13
5.53107e-13
5.33891e-13
4.96782e-13
4.22253e-13
3.62866e-13
3.00162e-13
2.0284e-13
1.07494e-13
8.06296e-14
7.4648e-14
4.49117e-14
4.83681e-12
4.86059e-12
4.89257e-12
4.98687e-12
5.00489e-12
5.01445e-12
5.02275e-12
5.0362e-12
5.02062e-12
5.06203e-12
5.12025e-12
5.13216e-12
5.08803e-12
5.09197e-12
5.13628e-12
5.15575e-12
5.15766e-12
5.16935e-12
5.25054e-12
5.2668e-12
5.28236e-12
5.31118e-12
5.30721e-12
5.31229e-12
5.27552e-12
5.26408e-12
5.25631e-12
5.18317e-12
5.11532e-12
5.11838e-12
5.10208e-12
5.12444e-12
5.06477e-12
4.98289e-12
4.99702e-12
4.97849e-12
4.89599e-12
4.84926e-12
4.81868e-12
4.76165e-12
4.70146e-12
4.64359e-12
4.57551e-12
4.48953e-12
4.43239e-12
4.38676e-12
4.366e-12
4.34544e-12
4.23549e-12
4.13284e-12
4.0719e-12
4.05673e-12
3.96598e-12
3.85188e-12
3.77758e-12
3.74472e-12
3.64397e-12
3.52919e-12
3.49088e-12
3.41387e-12
3.36209e-12
3.39624e-12
3.33077e-12
3.26766e-12
3.24499e-12
3.21325e-12
3.16444e-12
3.06917e-12
2.94529e-12
2.8925e-12
2.82686e-12
2.73277e-12
2.67862e-12
2.66579e-12
2.62052e-12
2.58937e-12
2.5239e-12
2.43425e-12
2.41134e-12
2.34963e-12
2.24331e-12
2.16805e-12
2.14998e-12
2.11967e-12
1.99981e-12
1.94971e-12
1.86556e-12
1.83533e-12
1.76626e-12
1.72474e-12
1.73549e-12
1.62663e-12
1.58773e-12
1.53053e-12
1.41535e-12
1.33704e-12
1.27449e-12
1.16952e-12
1.07781e-12
1.02521e-12
9.50316e-13
9.19318e-13
8.77599e-13
8.01153e-13
7.69939e-13
7.2835e-13
6.55704e-13
6.45306e-13
6.09164e-13
5.30079e-13
5.12544e-13
5.08262e-13
4.39165e-13
3.61432e-13
3.18212e-13
2.0402e-13
1.08926e-13
8.90275e-14
3.23602e-14
7.06993e-15
4.82734e-12
4.92301e-12
4.95851e-12
5.04061e-12
5.02522e-12
4.99954e-12
5.05351e-12
5.06978e-12
5.00727e-12
5.05549e-12
5.10913e-12
5.0917e-12
5.12164e-12
5.09594e-12
5.09417e-12
5.10154e-12
5.13818e-12
5.17452e-12
5.23857e-12
5.22505e-12
5.21854e-12
5.30838e-12
5.28942e-12
5.25672e-12
5.23993e-12
5.24296e-12
5.24478e-12
5.12675e-12
5.0756e-12
5.09654e-12
5.00404e-12
5.04673e-12
5.08333e-12
4.93127e-12
4.96149e-12
4.98604e-12
4.88064e-12
4.82738e-12
4.8089e-12
4.80736e-12
4.72009e-12
4.62974e-12
4.56904e-12
4.51513e-12
4.42387e-12
4.37183e-12
4.3276e-12
4.28773e-12
4.2715e-12
4.16648e-12
4.05545e-12
4.02209e-12
3.92898e-12
3.8543e-12
3.77918e-12
3.74036e-12
3.65426e-12
3.57975e-12
3.4895e-12
3.376e-12
3.40386e-12
3.40706e-12
3.32624e-12
3.2829e-12
3.22772e-12
3.19235e-12
3.11814e-12
3.02922e-12
2.93046e-12
2.87721e-12
2.77912e-12
2.71243e-12
2.69687e-12
2.66719e-12
2.62942e-12
2.59567e-12
2.52699e-12
2.39661e-12
2.34094e-12
2.31494e-12
2.22499e-12
2.20853e-12
2.16796e-12
2.08001e-12
1.99255e-12
1.96434e-12
1.88315e-12
1.80116e-12
1.75367e-12
1.70679e-12
1.69986e-12
1.57026e-12
1.52606e-12
1.4861e-12
1.3667e-12
1.28861e-12
1.28853e-12
1.18153e-12
1.10864e-12
1.00668e-12
9.30277e-13
9.4034e-13
9.07431e-13
8.32178e-13
8.03003e-13
7.23709e-13
6.3673e-13
6.11339e-13
5.66557e-13
4.86098e-13
4.82337e-13
5.0708e-13
4.11484e-13
3.23164e-13
3.06173e-13
2.77549e-13
1.63921e-13
6.87973e-14
3.24599e-14
2.42779e-14
4.9752e-12
4.92212e-12
4.92633e-12
5.01324e-12
5.00902e-12
4.98569e-12
5.05104e-12
5.10353e-12
5.07219e-12
5.0791e-12
5.09693e-12
5.08819e-12
5.06043e-12
5.05624e-12
5.09496e-12
5.11925e-12
5.13394e-12
5.15827e-12
5.19415e-12
5.21251e-12
5.19765e-12
5.24331e-12
5.28221e-12
5.24686e-12
5.1892e-12
5.19823e-12
5.19539e-12
5.14077e-12
5.04209e-12
5.01078e-12
4.99235e-12
5.01222e-12
5.01315e-12
4.97189e-12
4.9727e-12
4.94602e-12
4.87719e-12
4.84191e-12
4.80725e-12
4.75614e-12
4.68687e-12
4.65114e-12
4.59457e-12
4.48791e-12
4.41399e-12
4.36008e-12
4.32171e-12
4.28955e-12
4.20611e-12
4.11366e-12
4.03761e-12
3.98889e-12
3.96983e-12
3.9056e-12
3.8016e-12
3.72001e-12
3.63389e-12
3.56826e-12
3.50666e-12
3.40513e-12
3.37793e-12
3.39481e-12
3.34336e-12
3.33269e-12
3.25158e-12
3.18592e-12
3.12084e-12
3.04734e-12
2.94554e-12
2.89831e-12
2.84268e-12
2.72733e-12
2.65743e-12
2.66903e-12
2.61611e-12
2.58653e-12
2.51043e-12
2.36936e-12
2.3527e-12
2.35908e-12
2.29577e-12
2.22099e-12
2.1225e-12
1.99368e-12
1.96772e-12
1.94311e-12
1.88784e-12
1.88871e-12
1.78673e-12
1.71065e-12
1.71751e-12
1.60143e-12
1.51312e-12
1.44104e-12
1.36648e-12
1.27624e-12
1.26664e-12
1.16034e-12
1.0642e-12
1.00451e-12
9.57482e-13
9.55067e-13
9.04305e-13
8.39651e-13
7.73051e-13
7.30786e-13
6.23331e-13
5.98343e-13
5.93837e-13
5.33439e-13
5.0114e-13
4.48212e-13
3.69575e-13
3.58495e-13
3.37915e-13
2.48096e-13
1.45676e-13
8.20019e-14
-3.66236e-16
-2.97168e-14
4.98584e-12
4.92439e-12
4.95944e-12
5.02656e-12
5.02748e-12
5.04222e-12
5.07237e-12
5.1223e-12
5.11479e-12
5.13513e-12
5.12773e-12
5.091e-12
5.08889e-12
5.08293e-12
5.06295e-12
5.13462e-12
5.16283e-12
5.14376e-12
5.13871e-12
5.20404e-12
5.18177e-12
5.17709e-12
5.23197e-12
5.18337e-12
5.13025e-12
5.11828e-12
5.11526e-12
5.14527e-12
5.06161e-12
4.95104e-12
4.95421e-12
4.9829e-12
4.96052e-12
4.95858e-12
4.96882e-12
4.97706e-12
4.94184e-12
4.83213e-12
4.80413e-12
4.76861e-12
4.68479e-12
4.64782e-12
4.58971e-12
4.48387e-12
4.40751e-12
4.34345e-12
4.28591e-12
4.23212e-12
4.19519e-12
4.16853e-12
4.09725e-12
3.97898e-12
3.94261e-12
3.89109e-12
3.83963e-12
3.76089e-12
3.63807e-12
3.52641e-12
3.49277e-12
3.4466e-12
3.40557e-12
3.38176e-12
3.33696e-12
3.27115e-12
3.22915e-12
3.20606e-12
3.16893e-12
3.07349e-12
2.975e-12
2.91519e-12
2.84783e-12
2.77557e-12
2.71085e-12
2.68539e-12
2.60328e-12
2.56667e-12
2.5208e-12
2.41605e-12
2.35463e-12
2.32304e-12
2.24479e-12
2.23008e-12
2.16325e-12
2.02839e-12
1.99237e-12
1.96028e-12
1.93212e-12
1.90881e-12
1.78633e-12
1.68342e-12
1.6382e-12
1.574e-12
1.48719e-12
1.38849e-12
1.31184e-12
1.26091e-12
1.2093e-12
1.16629e-12
1.09462e-12
1.01157e-12
9.587e-13
9.3045e-13
9.19873e-13
8.57332e-13
7.55683e-13
6.87994e-13
6.31715e-13
6.16632e-13
5.89142e-13
5.59005e-13
5.03244e-13
4.1263e-13
3.82681e-13
3.52797e-13
3.12664e-13
2.40064e-13
1.62494e-13
5.99924e-14
2.64102e-14
2.76118e-14
4.93358e-12
4.95117e-12
4.95106e-12
5.03678e-12
5.07136e-12
5.06467e-12
5.02377e-12
5.08018e-12
5.11276e-12
5.12741e-12
5.07441e-12
5.08388e-12
5.06169e-12
5.1207e-12
5.11999e-12
5.08751e-12
5.11907e-12
5.13992e-12
5.14766e-12
5.14413e-12
5.13487e-12
5.16615e-12
5.18675e-12
5.1716e-12
5.10838e-12
5.10818e-12
5.12489e-12
5.09688e-12
5.02005e-12
4.96951e-12
4.93856e-12
4.94671e-12
4.93193e-12
4.95441e-12
4.97979e-12
4.99209e-12
4.84243e-12
4.76945e-12
4.78358e-12
4.75602e-12
4.70711e-12
4.68394e-12
4.60565e-12
4.51848e-12
4.40632e-12
4.32697e-12
4.29851e-12
4.24641e-12
4.07907e-12
4.11509e-12
4.11528e-12
3.99818e-12
3.96445e-12
3.89187e-12
3.79463e-12
3.74871e-12
3.65868e-12
3.57079e-12
3.52207e-12
3.42978e-12
3.375e-12
3.3474e-12
3.31604e-12
3.26724e-12
3.25092e-12
3.23871e-12
3.15905e-12
3.10386e-12
2.9895e-12
2.8586e-12
2.85171e-12
2.81468e-12
2.6881e-12
2.65871e-12
2.64578e-12
2.55985e-12
2.53667e-12
2.46831e-12
2.3214e-12
2.28504e-12
2.24327e-12
2.16009e-12
2.13172e-12
2.09272e-12
2.0106e-12
1.97019e-12
1.93382e-12
1.88353e-12
1.80615e-12
1.71989e-12
1.68281e-12
1.58988e-12
1.51829e-12
1.39543e-12
1.31177e-12
1.2292e-12
1.20389e-12
1.17286e-12
1.12035e-12
1.01196e-12
9.81025e-13
9.87521e-13
9.1231e-13
8.79712e-13
7.93337e-13
6.94078e-13
6.46833e-13
6.59338e-13
5.86873e-13
5.46677e-13
5.05131e-13
4.32332e-13
3.35764e-13
3.10376e-13
2.91736e-13
2.17204e-13
1.56715e-13
9.74477e-14
2.97509e-14
-1.89118e-14
5.07454e-12
4.94441e-12
4.96546e-12
5.04693e-12
5.06047e-12
5.0422e-12
5.07997e-12
5.08856e-12
5.11566e-12
5.20573e-12
5.12925e-12
5.04686e-12
5.06318e-12
5.09641e-12
5.08979e-12
5.10069e-12
5.13827e-12
5.11931e-12
5.14995e-12
5.13916e-12
5.10303e-12
5.05773e-12
5.12314e-12
5.10263e-12
5.11474e-12
5.11251e-12
5.0771e-12
5.05534e-12
5.00942e-12
4.91658e-12
4.92056e-12
4.94665e-12
4.94599e-12
4.93148e-12
4.95625e-12
4.95947e-12
4.86995e-12
4.79142e-12
4.77991e-12
4.759e-12
4.68114e-12
4.64219e-12
4.60153e-12
4.52495e-12
4.4467e-12
4.35298e-12
4.26351e-12
4.17906e-12
4.13399e-12
4.11548e-12
4.07553e-12