/*--------------------------------*- C++ -*----------------------------------*\
| =========                 |                                                 |
| \\      /  F ield         | OpenFOAM: The Open Source CFD Toolbox           |
|  \\    /   O peration     | Version:  3.0.0                                 |
|   \\  /    A nd           | Web:      www.OpenFOAM.org                      |
|    \\/     M anipulation  |                                                 |
\*---------------------------------------------------------------------------*/
FoamFile
{
    version     2.0;
    format      ascii;
    class       volScalarField;
    location    "0.016";
    object      p;
}
// * * * * * * * * * * * * * * * * * * * * * * * * * * * * * * * * * * * * * //

dimensions      [1 -1 -2 0 0 0 0];

internalField   nonuniform List<scalar> 
1000
(
67145.4
67133.3
67125.2
67116.7
67107.8
67098.6
67089.3
67079.8
67070.1
67060.2
67050.2
67039.9
67029.5
67018.9
67008.1
66997.1
66985.9
66974.5
66962.9
66951.1
66939.1
66926.9
66914.5
66901.9
66889.1
66876.1
66862.9
66849.4
66835.7
66821.9
66807.8
66793.4
66778.9
66764.1
66749.1
66733.8
66718.3
66702.6
66686.6
66670.4
66653.9
66637.1
66620.1
66602.9
66585.3
66567.5
66549.4
66531.1
66512.4
66493.5
66474.2
66454.7
66434.8
66414.6
66394.2
66373.3
66352.2
66330.7
66308.8
66286.6
66264.1
66241.1
66217.8
66194.1
66170
66145.4
66120.5
66095.1
66069.3
66043
66016.3
65989.1
65961.4
65933.2
65904.4
65875.2
65845.3
65814.9
65784
65752.4
65720.2
65687.3
65653.8
65619.6
65584.7
65549.1
65512.7
65475.5
65437.6
65398.8
65359.1
65318.6
65277.1
65234.7
65191.3
65147
65101.5
65055.1
65007.5
64958.7
64908.8
64857.7
64805.3
64751.7
64696.7
64640.4
64582.6
64523.5
64462.9
64400.8
64337.2
64272.1
64205.3
64136.9
64066.9
63995.2
63921.9
63846.8
63770
63691.5
63611.2
63529.2
63445.4
63359.9
63272.6
63183.5
63092.8
63000.3
62906.2
62810.4
62713
62613.9
62513.4
62411.3
62307.7
62202.7
62096.4
61988.8
61879.9
61769.8
61658.5
61546.2
61432.9
61318.7
61203.6
61087.6
60970.9
60853.5
60735.5
60616.9
60497.7
60378.1
60258.1
60137.8
60017.1
59896.1
59774.9
59653.6
59532
59410.4
59288.7
59166.9
59045.2
58923.4
58801.6
58679.9
58558.3
58436.7
58315.3
58193.9
58072.7
57951.6
57830.7
57709.9
57589.3
57468.8
57348.6
57228.5
57108.6
56988.9
56869.4
56750
56630.9
56512
56393.3
56274.8
56156.5
56038.4
55920.5
55802.8
55685.3
55568.1
55451
55334.2
55217.5
55101.1
54984.9
54868.9
54753.1
54637.5
54522.1
54407
54292
54177.3
54062.7
53948.4
53834.3
53720.4
53606.7
53493.2
53379.9
53266.8
53153.9
53041.3
52928.8
52816.6
52704.5
52592.7
52481
52369.6
52258.4
52147.3
52036.5
51925.9
51815.5
51705.3
51595.3
51485.5
51375.9
51266.5
51157.3
51048.3
50939.6
50831
50722.6
50614.4
50506.4
50398.7
50291.1
50183.7
50076.5
49969.6
49862.8
49756.2
49649.8
49543.7
49437.7
49331.9
49226.3
49120.9
49015.7
48910.7
48806
48701.4
48597
48492.8
48388.8
48284.9
48181.3
48077.9
47974.7
47871.7
47768.8
47666.2
47563.7
47461.5
47359.4
47257.6
47155.9
47054.4
46953.2
46852.1
46751.2
46650.5
46550
46449.7
46349.5
46249.6
46149.9
46050.3
45951
45851.8
45752.8
45654
45555.4
45457
45358.8
45260.8
45162.9
45065.3
44967.8
44870.6
44773.5
44676.6
44579.9
44483.4
44387.1
44290.9
44195
44099.2
44003.7
43908.3
43813.1
43718.1
43623.3
43528.6
43434.2
43339.9
43245.9
43152
43058.3
42964.8
42871.4
42778.3
42685.3
42592.6
42500
42407.6
42315.4
42223.4
42131.5
42039.9
41948.4
41857.1
41766
41675.1
41584.4
41493.8
41403.5
41313.3
41223.3
41133.5
41043.9
40954.5
40865.3
40776.2
40687.3
40598.7
40510.2
40421.8
40333.7
40245.8
40158
40070.5
39983.1
39895.9
39808.9
39722.1
39635.4
39549
39462.7
39376.7
39290.8
39205.1
39119.6
39034.3
38949.1
38864.2
38779.4
38694.9
38610.5
38526.3
38442.4
38358.6
38275
38191.6
38108.3
38025.3
37942.5
37859.9
37777.4
37695.2
37613.1
37531.3
37449.7
37368.2
37287
37205.9
37125.1
37044.4
36964
36883.8
36803.8
36723.9
36644.3
36564.9
36485.7
36406.8
36328
36249.5
36171.1
36093
36015.1
35937.5
35860
35782.8
35705.8
35629.1
35552.5
35476.3
35400.2
35324.4
35248.8
35173.5
35098.4
35023.6
34949
34874.7
34800.6
34726.8
34653.3
34580
34507.1
34434.4
34362
34289.8
34218
34146.5
34075.2
34004.3
33933.7
33863.4
33793.5
33723.9
33654.6
33585.6
33517.1
33448.8
33381
33313.5
33246.5
33179.8
33113.5
33047.7
32982.3
32917.3
32852.7
32788.7
32725.1
32662
32599.3
32537.2
32475.7
32414.7
32354.2
32294.3
32235
32176.3
32118.2
32060.8
32004.1
31948
31892.6
31838
31784
31730.9
31678.6
31627
31576.3
31526.4
31477.4
31429.4
31382.2
31336
31290.8
31246.5
31203.3
31161.1
31120
31079.9
31041
31003.2
30966.5
30931
30896.6
30863.4
30831.4
30800.6
30771.1
30742.7
30715.6
30689.6
30664.9
30641.4
30619
30597.9
30577.9
30559
30541.3
30524.7
30509.1
30494.6
30481.1
30468.6
30457
30446.3
30436.4
30427.4
30419.1
30411.6
30404.7
30398.5
30392.9
30387.8
30383.3
30379.2
30375.6
30372.4
30369.5
30367
30364.8
30362.8
30361.1
30359.6
30358.4
30357.2
30356.3
30355.4
30354.7
30354.1
30353.6
30353.1
30352.7
30352.4
30352.1
30351.9
30351.7
30351.5
30351.4
30351.3
30351.2
30351.1
30351
30351
30350.9
30350.9
30350.8
30350.8
30350.8
30350.7
30350.7
30350.7
30350.7
30350.7
30350.7
30350.7
30350.6
30350.6
30350.6
30350.6
30350.6
30350.6
30350.6
30350.6
30350.6
30350.6
30350.6
30350.6
30350.5
30350.5
30350.5
30350.5
30350.5
30350.5
30350.5
30350.5
30350.5
30350.5
30350.5
30350.5
30350.5
30350.5
30350.4
30350.4
30350.4
30350.4
30350.4
30350.4
30350.4
30350.4
30350.4
30350.4
30350.4
30350.4
30350.3
30350.3
30350.3
30350.3
30350.3
30350.3
30350.3
30350.3
30350.3
30350.3
30350.3
30350.3
30350.3
30350.3
30350.3
30350.3
30350.3
30350.3
30350.3
30350.3
30350.2
30350.2
30350.2
30350.2
30350.2
30350.2
30350.2
30350.2
30350.2
30350.2
30350.2
30350.2
30350.2
30350.2
30350.2
30350.2
30350.2
30350.2
30350.2
30350.2
30350.2
30350.2
30350.2
30350.2
30350.2
30350.2
30350.2
30350.2
30350.2
30350.2
30350.2
30350.2
30350.2
30350.2
30350.2
30350.2
30350.2
30350.2
30350.2
30350.2
30350.2
30350.2
30350.2
30350.2
30350.2
30350.2
30350.2
30350.2
30350.2
30350.1
30350.1
30350.1
30350.1
30350.1
30350.1
30350.1
30350.1
30350.1
30350.1
30350.1
30350.1
30350.1
30350.1
30350.1
30350.1
30350.1
30350.1
30350.1
30350.1
30350.1
30350.1
30350.1
30350.1
30350.1
30350.1
30350.1
30350.1
30350.1
30350.1
30350.1
30350.1
30350.1
30350.1
30350.1
30350
30350
30350
30350
30350
30350
30350
30350
30350
30350
30350
30350
30350
30350
30350
30350
30350
30350
30350
30350
30350
30350
30350
30350
30350
30350
30350
30350
30350
30350
30350
30350
30350
30350
30350
30350
30350
30350
30350
30350
30350
30350
30350
30350
30350
30350
30349.9
30349.9
30349.9
30349.9
30349.9
30349.9
30349.9
30349.9
30349.9
30349.9
30349.9
30349.9
30349.9
30349.9
30349.9
30349.9
30349.9
30349.9
30349.9
30349.9
30349.9
30349.9
30349.9
30349.9
30349.9
30349.9
30349.9
30349.9
30349.9
30349.9
30349.9
30349.9
30349.9
30349.9
30349.9
30349.9
30349.9
30349.9
30349.9
30349.9
30349.9
30349.9
30349.9
30349.9
30349.9
30349.9
30349.9
30349.9
30349.9
30349.9
30349.9
30349.9
30349.9
30349.9
30349.9
30349.9
30349.9
30349.9
30349.9
30349.9
30349.9
30349.9
30349.9
30349.9
30349.9
30349.9
30349.9
30349.9
30349.9
30349.8
30349.8
30349.8
30349.8
30349.8
30349.8
30349.8
30349.8
30349.8
30349.8
30349.8
30349.8
30349.8
30349.8
30349.8
30349.8
30349.8
30349.8
30349.8
30349.8
30349.8
30349.8
30349.8
30349.8
30349.8
30349.8
30349.8
30349.8
30349.8
30349.8
30349.8
30349.8
30349.8
30349.8
30349.8
30349.8
30349.8
30349.8
30349.8
30349.8
30349.8
30349.8
30349.8
30349.8
30349.8
30349.8
30349.8
30349.8
30349.8
30349.8
30349.8
30349.8
30349.8
30349.8
30349.8
30349.8
30349.8
30349.8
30349.8
30349.8
30349.8
30349.8
30349.8
30349.8
30349.8
30349.8
30349.8
30349.8
30349.8
30349.8
30349.8
30349.8
30349.8
30349.8
30349.8
30349.8
30349.8
30349.8
30349.8
30349.8
30349.8
30349.8
30349.8
30349.8
30349.8
30349.8
30349.8
30349.8
30349.8
30349.8
30349.8
30349.8
30349.8
30349.8
30349.8
30349.8
30349.8
30349.8
30349.9
30349.9
30350
30350.1
30350.2
30350.3
30350.5
30350.8
30351.1
30351.6
30352.2
30352.9
30353.9
30355.1
30356.5
30358.4
30360.6
30363.2
30366.4
30370.1
30374.4
30379.4
30385.1
30391.5
30398.8
30406.8
30415.5
30425
30435.2
30446
30457.4
30469.2
30481.2
30493.5
30505.8
30517.9
30529.8
30541.3
30552.3
30562.7
30572.3
30581.2
30589.2
30596.4
30602.7
30608.2
30612.9
30616.9
30620.2
30622.9
30625.1
30626.8
30628.1
30629.1
30629.8
30630.3
30630.6
30630.8
30630.9
30630.9
30630.9
30630.9
30630.8
30630.7
30630.6
30630.4
30630.3
30630.1
30630
30629.8
30629.7
30629.5
30629.3
30629.1
30628.9
30628.7
30628.5
30628.3
30628
30627.8
30627.5
30627.2
30626.9
30626.6
30626.3
30626
30625.7
30625.3
30625
30624.6
30624.2
30623.8
30623.3
30622.9
30622.4
30622
30621.5
30621.4
30621.1
)
;

boundaryField
{
    sides
    {
        type            zeroGradient;
    }
    empty
    {
        type            empty;
    }
}


// ************************************************************************* //
