/*--------------------------------*- C++ -*----------------------------------*\
| =========                 |                                                 |
| \\      /  F ield         | OpenFOAM: The Open Source CFD Toolbox           |
|  \\    /   O peration     | Version:  3.0.0                                 |
|   \\  /    A nd           | Web:      www.OpenFOAM.org                      |
|    \\/     M anipulation  |                                                 |
\*---------------------------------------------------------------------------*/
FoamFile
{
    version     2.0;
    format      ascii;
    class       surfaceScalarField;
    location    "0.016";
    object      phi;
}
// * * * * * * * * * * * * * * * * * * * * * * * * * * * * * * * * * * * * * //

dimensions      [1 0 -1 0 0 0 0];

internalField   nonuniform List<scalar> 
999
(
13.4733
16.2703
19.0689
21.8681
24.6672
27.466
30.2645
33.0626
35.8603
38.6575
41.4543
44.2504
47.046
49.8409
52.6351
55.4285
58.2211
61.0129
63.8037
66.5935
69.3824
72.1701
74.9567
77.7422
80.5263
83.3092
86.0907
88.8707
91.6492
94.4262
97.2016
99.9753
102.747
105.517
108.285
111.052
113.816
116.578
119.338
122.095
124.851
127.604
130.354
133.102
135.847
138.589
141.328
144.064
146.798
149.528
152.254
154.978
157.698
160.414
163.126
165.835
168.54
171.24
173.936
176.628
179.315
181.998
184.675
187.348
190.015
192.677
195.333
197.983
200.628
203.266
205.898
208.523
211.141
213.752
216.355
218.951
221.539
224.119
226.69
229.252
231.805
234.348
236.882
239.405
241.918
244.419
246.909
249.387
251.852
254.305
256.745
259.17
261.581
263.978
266.359
268.724
271.072
273.403
275.717
278.012
280.288
282.545
284.781
286.997
289.191
291.363
293.511
295.637
297.738
299.815
301.866
303.891
305.889
307.86
309.804
311.719
313.606
315.464
317.292
319.09
320.858
322.596
324.303
325.979
327.625
329.24
330.824
332.377
333.901
335.394
336.858
338.292
339.697
341.074
342.424
343.746
345.042
346.312
347.557
348.778
349.976
351.152
352.306
353.44
354.553
355.648
356.725
357.785
358.829
359.857
360.871
361.871
362.859
363.834
364.797
365.75
366.692
367.625
368.549
369.464
370.372
371.271
372.164
373.049
373.929
374.802
375.669
376.531
377.387
378.239
379.085
379.927
380.764
381.597
382.425
383.25
384.07
384.886
385.699
386.507
387.312
388.113
388.91
389.704
390.494
391.28
392.063
392.843
393.619
394.391
395.16
395.926
396.688
397.446
398.202
398.954
399.702
400.447
401.189
401.928
402.663
403.395
404.123
404.848
405.57
406.289
407.004
407.716
408.425
409.13
409.832
410.531
411.227
411.919
412.609
413.294
413.978
414.656
415.334
416.005
416.677
417.341
418.008
418.664
419.326
419.975
420.63
421.274
421.922
422.561
423.2
423.836
424.465
425.098
425.718
426.347
426.96
427.582
428.191
428.804
429.41
430.014
430.616
431.212
431.809
432.399
432.988
433.575
434.157
434.737
435.313
435.887
436.458
437.025
437.59
438.152
438.71
439.266
439.819
440.369
440.916
441.46
442.001
442.539
443.074
443.606
444.135
444.662
445.185
445.706
446.223
446.738
447.25
447.759
448.265
448.768
449.269
449.766
450.261
450.753
451.242
451.728
452.211
452.692
453.17
453.645
454.117
454.586
455.053
455.516
455.977
456.436
456.891
457.344
457.794
458.241
458.686
459.127
459.566
460.003
460.436
460.867
461.295
461.721
462.143
462.563
462.981
463.395
463.808
464.217
464.624
465.028
465.429
465.828
466.224
466.617
467.008
467.396
467.782
468.165
468.546
468.923
469.299
469.671
470.041
470.409
470.774
471.136
471.496
471.853
472.208
472.56
472.909
473.256
473.601
473.943
474.282
474.619
474.954
475.286
475.615
475.942
476.266
476.588
476.908
477.225
477.54
477.852
478.161
478.469
478.773
479.076
479.376
479.673
479.968
480.261
480.551
480.839
481.124
481.407
481.688
481.966
482.242
482.515
482.787
483.055
483.322
483.586
483.847
484.106
484.363
484.618
484.87
485.12
485.368
485.613
485.856
486.097
486.335
486.571
486.805
487.036
487.265
487.492
487.717
487.939
488.159
488.377
488.592
488.806
489.016
489.225
489.432
489.636
489.838
490.038
490.235
490.43
490.623
490.814
491.003
491.189
491.373
491.555
491.735
491.912
492.088
492.261
492.432
492.6
492.767
492.931
493.093
493.253
493.411
493.567
493.72
493.872
494.021
494.168
494.312
494.455
494.596
494.734
494.87
495.004
495.136
495.265
495.393
495.518
495.642
495.763
495.882
495.998
496.113
496.226
496.336
496.444
496.55
496.654
496.756
496.856
496.953
497.049
497.142
497.233
497.322
497.409
497.494
497.576
497.657
497.735
497.811
497.886
497.958
498.028
498.096
498.161
498.225
498.287
498.346
498.404
498.46
498.513
498.565
498.614
498.662
498.707
498.751
498.793
498.832
498.87
498.907
498.941
498.974
499.004
499.034
499.061
499.087
499.111
499.134
499.155
499.175
499.193
499.21
499.226
499.241
499.254
499.267
499.278
499.288
499.297
499.306
499.313
499.32
499.326
499.332
499.336
499.341
499.344
499.348
499.35
499.353
499.355
499.357
499.358
499.359
499.36
499.361
499.362
499.362
499.363
499.363
499.363
499.363
499.363
499.363
499.363
499.363
499.362
499.362
499.362
499.361
499.361
499.361
499.36
499.36
499.36
499.359
499.359
499.359
499.358
499.358
499.357
499.357
499.356
499.356
499.356
499.355
499.355
499.354
499.354
499.353
499.353
499.353
499.352
499.352
499.351
499.351
499.35
499.35
499.349
499.349
499.349
499.348
499.348
499.347
499.347
499.346
499.346
499.345
499.345
499.344
499.344
499.343
499.343
499.342
499.342
499.341
499.341
499.34
499.34
499.339
499.339
499.338
499.338
499.337
499.337
499.336
499.336
499.335
499.335
499.334
499.334
499.333
499.333
499.332
499.332
499.331
499.33
499.33
499.329
499.329
499.328
499.328
499.327
499.327
499.326
499.325
499.325
499.324
499.324
499.323
499.322
499.322
499.321
499.321
499.32
499.319
499.319
499.318
499.317
499.317
499.316
499.316
499.315
499.314
499.314
499.313
499.312
499.312
499.311
499.31
499.31
499.309
499.308
499.308
499.307
499.306
499.306
499.305
499.304
499.304
499.303
499.302
499.301
499.301
499.3
499.299
499.299
499.298
499.297
499.296
499.296
499.295
499.294
499.293
499.293
499.292
499.291
499.29
499.289
499.289
499.288
499.287
499.286
499.285
499.285
499.284
499.283
499.282
499.281
499.28
499.28
499.279
499.278
499.277
499.276
499.275
499.274
499.274
499.273
499.272
499.271
499.27
499.269
499.268
499.267
499.266
499.265
499.264
499.263
499.262
499.261
499.261
499.26
499.259
499.258
499.257
499.256
499.255
499.254
499.252
499.251
499.25
499.249
499.248
499.247
499.246
499.245
499.244
499.243
499.242
499.241
499.24
499.238
499.237
499.236
499.235
499.234
499.233
499.231
499.23
499.229
499.228
499.227
499.225
499.224
499.223
499.222
499.22
499.219
499.218
499.216
499.215
499.214
499.213
499.211
499.21
499.208
499.207
499.206
499.204
499.203
499.201
499.2
499.199
499.197
499.196
499.194
499.193
499.191
499.19
499.188
499.187
499.185
499.183
499.182
499.18
499.179
499.177
499.175
499.174
499.172
499.17
499.169
499.167
499.165
499.163
499.162
499.16
499.158
499.156
499.154
499.152
499.151
499.149
499.147
499.145
499.143
499.141
499.139
499.137
499.135
499.133
499.131
499.129
499.127
499.124
499.122
499.12
499.118
499.116
499.113
499.111
499.109
499.106
499.104
499.102
499.099
499.097
499.094
499.092
499.089
499.087
499.084
499.082
499.079
499.076
499.074
499.071
499.068
499.065
499.063
499.06
499.057
499.054
499.051
499.048
499.045
499.042
499.039
499.036
499.032
499.029
499.026
499.023
499.019
499.016
499.012
499.009
499.005
499.002
498.998
498.995
498.991
498.987
498.983
498.979
498.975
498.971
498.967
498.963
498.959
498.955
498.95
498.946
498.942
498.937
498.932
498.928
498.923
498.918
498.913
498.908
498.903
498.898
498.893
498.888
498.882
498.877
498.871
498.866
498.86
498.854
498.848
498.842
498.836
498.83
498.823
498.817
498.81
498.804
498.797
498.79
498.782
498.775
498.768
498.76
498.752
498.744
498.736
498.728
498.72
498.711
498.702
498.693
498.684
498.675
498.665
498.656
498.646
498.635
498.625
498.614
498.603
498.592
498.58
498.568
498.556
498.543
498.531
498.517
498.504
498.49
498.475
498.461
498.445
498.43
498.414
498.397
498.38
498.362
498.344
498.324
498.305
498.284
498.263
498.241
498.218
498.193
498.168
498.141
498.113
498.084
498.053
498.02
497.985
497.948
497.909
497.867
497.823
497.775
497.725
497.673
497.617
497.559
497.499
497.437
497.372
497.304
497.233
497.156
497.072
496.977
496.866
496.731
496.563
496.352
496.084
495.741
495.306
494.757
494.069
493.219
492.178
490.921
489.418
487.644
485.575
483.187
480.462
477.387
473.951
470.152
465.992
461.481
456.633
451.471
446.024
440.323
434.407
428.319
422.102
415.804
409.471
403.151
396.889
390.728
384.709
378.867
373.234
367.838
362.701
357.841
353.27
348.995
345.021
341.347
337.969
334.878
332.068
329.522
327.231
325.177
323.347
321.719
320.285
319.02
317.917
316.951
316.119
315.392
314.775
314.236
313.789
313.392
313.075
312.785
)
;

boundaryField
{
    sides
    {
        type            calculated;
        value           nonuniform List<scalar> 2(312.568 -10.6778);
    }
    empty
    {
        type            empty;
        value           nonuniform 0();
    }
}


// ************************************************************************* //
