/*--------------------------------*- C++ -*----------------------------------*\
| =========                 |                                                 |
| \\      /  F ield         | OpenFOAM: The Open Source CFD Toolbox           |
|  \\    /   O peration     | Version:  3.0.0                                 |
|   \\  /    A nd           | Web:      www.OpenFOAM.org                      |
|    \\/     M anipulation  |                                                 |
\*---------------------------------------------------------------------------*/
FoamFile
{
    version     2.0;
    format      ascii;
    class       volScalarField;
    location    "0.016";
    object      T;
}
// * * * * * * * * * * * * * * * * * * * * * * * * * * * * * * * * * * * * * //

dimensions      [0 0 0 1 0 0 0];

internalField   nonuniform List<scalar> 
1000
(
310.801
310.859
310.869
310.863
310.85
310.837
310.825
310.812
310.799
310.786
310.773
310.759
310.745
310.731
310.716
310.702
310.687
310.672
310.656
310.64
310.624
310.608
310.592
310.575
310.558
310.54
310.523
310.505
310.486
310.468
310.449
310.43
310.411
310.391
310.371
310.35
310.33
310.309
310.287
310.266
310.244
310.222
310.199
310.176
310.152
310.129
310.104
310.08
310.055
310.03
310.004
309.978
309.951
309.925
309.897
309.869
309.841
309.812
309.783
309.753
309.723
309.693
309.661
309.63
309.597
309.565
309.531
309.497
309.463
309.427
309.392
309.355
309.318
309.28
309.242
309.202
309.162
309.121
309.08
309.037
308.994
308.95
308.905
308.859
308.812
308.764
308.715
308.665
308.614
308.561
308.508
308.453
308.397
308.34
308.281
308.221
308.16
308.097
308.032
307.966
307.898
307.829
307.758
307.685
307.61
307.533
307.455
307.374
307.292
307.207
307.12
307.031
306.94
306.846
306.75
306.652
306.551
306.448
306.343
306.234
306.124
306.011
305.895
305.777
305.656
305.533
305.407
305.279
305.149
305.015
304.88
304.742
304.602
304.459
304.314
304.167
304.018
303.867
303.714
303.56
303.403
303.245
303.085
302.923
302.76
302.596
302.43
302.263
302.095
301.926
301.756
301.586
301.414
301.241
301.068
300.894
300.72
300.545
300.37
300.194
300.018
299.841
299.664
299.487
299.31
299.132
298.955
298.777
298.599
298.421
298.243
298.065
297.887
297.709
297.53
297.352
297.174
296.996
296.817
296.639
296.461
296.283
296.105
295.927
295.748
295.57
295.392
295.214
295.037
294.859
294.681
294.503
294.325
294.148
293.97
293.793
293.615
293.438
293.26
293.083
292.906
292.728
292.551
292.374
292.197
292.02
291.843
291.666
291.489
291.313
291.136
290.959
290.783
290.606
290.43
290.253
290.078
289.899
289.726
289.545
289.376
289.19
289.027
288.834
288.681
288.476
288.335
288.118
287.989
287.762
287.641
287.41
287.288
287.064
286.931
286.722
286.57
286.381
286.211
286.038
285.857
285.689
285.508
285.338
285.161
284.986
284.813
284.636
284.463
284.288
284.114
283.94
283.765
283.591
283.417
283.243
283.069
282.895
282.721
282.547
282.374
282.2
282.026
281.853
281.679
281.506
281.332
281.159
280.986
280.812
280.639
280.466
280.293
280.12
279.947
279.774
279.602
279.429
279.256
279.084
278.911
278.739
278.567
278.394
278.222
278.05
277.878
277.706
277.534
277.362
277.19
277.018
276.847
276.675
276.503
276.332
276.161
275.989
275.818
275.647
275.476
275.304
275.134
274.963
274.792
274.621
274.45
274.28
274.109
273.939
273.768
273.598
273.428
273.258
273.087
272.917
272.747
272.578
272.408
272.238
272.068
271.899
271.729
271.56
271.391
271.222
271.052
270.883
270.714
270.545
270.377
270.208
270.039
269.871
269.702
269.534
269.366
269.198
269.029
268.861
268.694
268.526
268.358
268.19
268.023
267.855
267.688
267.521
267.354
267.187
267.02
266.853
266.686
266.52
266.353
266.187
266.02
265.854
265.688
265.522
265.356
265.191
265.025
264.86
264.694
264.529
264.364
264.199
264.034
263.869
263.705
263.54
263.376
263.212
263.048
262.884
262.72
262.557
262.394
262.23
262.067
261.904
261.742
261.579
261.417
261.254
261.092
260.93
260.769
260.607
260.446
260.285
260.124
259.964
259.803
259.643
259.483
259.323
259.164
259.004
258.845
258.687
258.528
258.37
258.212
258.055
257.897
257.74
257.584
257.427
257.271
257.116
256.96
256.805
256.651
256.496
256.343
256.189
256.036
255.884
255.732
255.58
255.429
255.279
255.129
254.979
254.83
254.682
254.534
254.387
254.241
254.095
253.95
253.805
253.662
253.519
253.377
253.235
253.095
252.956
252.817
252.68
252.543
252.408
252.273
252.14
252.008
251.877
251.747
251.619
251.492
251.366
251.242
251.119
250.998
250.879
250.761
250.645
250.53
250.418
250.307
250.199
250.092
249.987
249.885
249.785
249.687
249.591
249.498
249.407
249.319
249.233
249.15
249.069
248.991
248.916
248.843
248.773
248.706
248.642
248.58
248.521
248.465
248.412
248.362
248.314
248.269
248.226
248.186
248.149
248.114
248.081
248.051
248.023
247.997
247.973
247.951
247.931
247.912
247.896
247.88
247.867
247.854
247.843
247.833
247.825
247.817
247.81
247.804
247.798
247.794
247.789
247.786
247.783
247.78
247.778
247.776
247.774
247.773
247.772
247.771
247.77
247.769
247.769
247.769
247.768
247.768
247.768
247.768
247.768
247.768
247.768
247.768
247.768
247.768
247.768
247.768
247.768
247.768
247.769
247.769
247.769
247.769
247.769
247.77
247.77
247.77
247.77
247.77
247.771
247.771
247.771
247.771
247.771
247.772
247.772
247.772
247.772
247.772
247.773
247.773
247.773
247.773
247.774
247.774
247.774
247.774
247.774
247.775
247.775
247.775
247.775
247.776
247.776
247.776
247.776
247.777
247.777
247.777
247.777
247.777
247.778
247.778
247.778
247.778
247.779
247.779
247.779
247.779
247.78
247.78
247.78
247.781
247.781
247.781
247.781
247.782
247.782
247.782
247.782
247.783
247.783
247.783
247.784
247.784
247.784
247.784
247.785
247.785
247.785
247.786
247.786
247.786
247.787
247.787
247.787
247.787
247.788
247.788
247.788
247.789
247.789
247.789
247.79
247.79
247.79
247.791
247.791
247.791
247.792
247.792
247.792
247.793
247.793
247.793
247.794
247.794
247.794
247.795
247.795
247.795
247.796
247.796
247.797
247.797
247.797
247.798
247.798
247.798
247.799
247.799
247.8
247.8
247.8
247.801
247.801
247.801
247.802
247.802
247.803
247.803
247.803
247.804
247.804
247.805
247.805
247.805
247.806
247.806
247.807
247.807
247.808
247.808
247.809
247.809
247.809
247.81
247.81
247.811
247.811
247.812
247.812
247.813
247.813
247.814
247.814
247.814
247.815
247.815
247.816
247.816
247.817
247.817
247.818
247.818
247.819
247.819
247.82
247.821
247.821
247.822
247.822
247.823
247.823
247.824
247.824
247.825
247.825
247.826
247.827
247.827
247.828
247.828
247.829
247.829
247.83
247.831
247.831
247.832
247.832
247.833
247.834
247.834
247.835
247.836
247.836
247.837
247.838
247.838
247.839
247.84
247.84
247.841
247.842
247.842
247.843
247.844
247.844
247.845
247.846
247.847
247.847
247.848
247.849
247.85
247.85
247.851
247.852
247.853
247.854
247.854
247.855
247.856
247.857
247.858
247.858
247.859
247.86
247.861
247.862
247.863
247.864
247.864
247.865
247.866
247.867
247.868
247.869
247.87
247.871
247.872
247.873
247.874
247.875
247.876
247.877
247.878
247.879
247.88
247.881
247.882
247.883
247.884
247.886
247.887
247.888
247.889
247.89
247.891
247.892
247.894
247.895
247.896
247.897
247.898
247.9
247.901
247.902
247.904
247.905
247.906
247.908
247.909
247.91
247.912
247.913
247.915
247.916
247.918
247.919
247.921
247.922
247.924
247.925
247.927
247.928
247.93
247.932
247.933
247.935
247.937
247.938
247.94
247.942
247.944
247.946
247.948
247.949
247.951
247.953
247.955
247.957
247.959
247.961
247.963
247.965
247.968
247.97
247.972
247.974
247.977
247.979
247.981
247.984
247.986
247.989
247.991
247.994
247.996
247.999
248.002
248.004
248.007
248.01
248.013
248.016
248.019
248.022
248.025
248.028
248.031
248.034
248.038
248.041
248.045
248.048
248.052
248.055
248.059
248.063
248.067
248.071
248.075
248.079
248.083
248.087
248.092
248.096
248.101
248.105
248.11
248.115
248.12
248.125
248.131
248.136
248.142
248.147
248.153
248.159
248.165
248.172
248.178
248.185
248.192
248.199
248.206
248.213
248.221
248.229
248.237
248.246
248.254
248.264
248.273
248.283
248.293
248.304
248.315
248.327
248.34
248.353
248.367
248.382
248.398
248.416
248.435
248.456
248.478
248.502
248.529
248.558
248.59
248.624
248.661
248.701
248.743
248.788
248.836
248.886
248.939
248.994
249.052
249.114
249.181
249.255
249.338
249.435
249.55
249.689
249.86
250.072
250.334
250.659
251.06
251.549
252.145
252.859
253.711
254.715
255.889
257.247
258.805
260.577
262.573
264.806
267.282
270.007
272.985
276.214
279.691
283.409
287.356
291.519
295.878
300.412
305.095
309.899
314.793
319.743
324.715
329.674
334.583
339.41
344.12
348.685
353.075
357.269
361.246
364.992
368.493
371.748
374.746
377.501
379.998
382.273
384.298
386.134
387.733
389.187
390.411
391.548
392.452
393.337
393.973
394.67
395.077
395.652
395.862
396.38
)
;

boundaryField
{
    sides
    {
        type            zeroGradient;
    }
    empty
    {
        type            empty;
    }
}


// ************************************************************************* //
