/*--------------------------------*- C++ -*----------------------------------*\
| =========                 |                                                 |
| \\      /  F ield         | OpenFOAM: The Open Source CFD Toolbox           |
|  \\    /   O peration     | Version:  3.0.0                                 |
|   \\  /    A nd           | Web:      www.OpenFOAM.org                      |
|    \\/     M anipulation  |                                                 |
\*---------------------------------------------------------------------------*/
FoamFile
{
    version     2.0;
    format      ascii;
    class       volVectorField;
    location    "0.016";
    object      U;
}
// * * * * * * * * * * * * * * * * * * * * * * * * * * * * * * * * * * * * * //

dimensions      [0 1 -1 0 0 0 0];

internalField   nonuniform List<vector> 
1000
(
(3.56291 0 0)
(5.09826 0 0)
(5.89286 0 0)
(6.7929 0 0)
(7.74427 0 0)
(8.6842 0 0)
(9.61628 0 0)
(10.5489 0 0)
(11.4827 0 0)
(12.4167 0 0)
(13.3506 0 0)
(14.2846 0 0)
(15.2185 0 0)
(16.1525 0 0)
(17.0865 0 0)
(18.0205 0 0)
(18.9545 0 0)
(19.8884 0 0)
(20.8223 0 0)
(21.7562 0 0)
(22.69 0 0)
(23.6237 0 0)
(24.5574 0 0)
(25.491 0 0)
(26.4244 0 0)
(27.3578 0 0)
(28.291 0 0)
(29.2241 0 0)
(30.157 0 0)
(31.0898 0 0)
(32.0223 0 0)
(32.9547 0 0)
(33.8869 0 0)
(34.8189 0 0)
(35.7506 0 0)
(36.682 0 0)
(37.6132 0 0)
(38.5441 0 0)
(39.4747 0 0)
(40.405 0 0)
(41.3349 0 0)
(42.2645 0 0)
(43.1937 0 0)
(44.1225 0 0)
(45.0509 0 0)
(45.9788 0 0)
(46.9063 0 0)
(47.8333 0 0)
(48.7599 0 0)
(49.6859 0 0)
(50.6113 0 0)
(51.5362 0 0)
(52.4605 0 0)
(53.3841 0 0)
(54.3072 0 0)
(55.2295 0 0)
(56.1511 0 0)
(57.072 0 0)
(57.9921 0 0)
(58.9114 0 0)
(59.8299 0 0)
(60.7475 0 0)
(61.6642 0 0)
(62.5799 0 0)
(63.4947 0 0)
(64.4084 0 0)
(65.3211 0 0)
(66.2326 0 0)
(67.143 0 0)
(68.0521 0 0)
(68.96 0 0)
(69.8666 0 0)
(70.7718 0 0)
(71.6755 0 0)
(72.5778 0 0)
(73.4785 0 0)
(74.3776 0 0)
(75.275 0 0)
(76.1706 0 0)
(77.0644 0 0)
(77.9563 0 0)
(78.8461 0 0)
(79.7339 0 0)
(80.6195 0 0)
(81.5029 0 0)
(82.3839 0 0)
(83.2625 0 0)
(84.1384 0 0)
(85.0118 0 0)
(85.8823 0 0)
(86.75 0 0)
(87.6146 0 0)
(88.4762 0 0)
(89.3345 0 0)
(90.1893 0 0)
(91.0407 0 0)
(91.8885 0 0)
(92.7324 0 0)
(93.5724 0 0)
(94.4083 0 0)
(95.24 0 0)
(96.0673 0 0)
(96.8901 0 0)
(97.7082 0 0)
(98.5215 0 0)
(99.3297 0 0)
(100.133 0 0)
(100.931 0 0)
(101.723 0 0)
(102.51 0 0)
(103.291 0 0)
(104.066 0 0)
(104.835 0 0)
(105.597 0 0)
(106.354 0 0)
(107.104 0 0)
(107.847 0 0)
(108.584 0 0)
(109.314 0 0)
(110.037 0 0)
(110.754 0 0)
(111.463 0 0)
(112.165 0 0)
(112.86 0 0)
(113.549 0 0)
(114.23 0 0)
(114.904 0 0)
(115.571 0 0)
(116.231 0 0)
(116.884 0 0)
(117.531 0 0)
(118.171 0 0)
(118.804 0 0)
(119.43 0 0)
(120.051 0 0)
(120.665 0 0)
(121.274 0 0)
(121.876 0 0)
(122.473 0 0)
(123.065 0 0)
(123.651 0 0)
(124.232 0 0)
(124.809 0 0)
(125.381 0 0)
(125.949 0 0)
(126.513 0 0)
(127.073 0 0)
(127.63 0 0)
(128.183 0 0)
(128.733 0 0)
(129.28 0 0)
(129.825 0 0)
(130.367 0 0)
(130.906 0 0)
(131.444 0 0)
(131.979 0 0)
(132.513 0 0)
(133.045 0 0)
(133.576 0 0)
(134.105 0 0)
(134.633 0 0)
(135.16 0 0)
(135.686 0 0)
(136.211 0 0)
(136.736 0 0)
(137.259 0 0)
(137.782 0 0)
(138.305 0 0)
(138.827 0 0)
(139.348 0 0)
(139.869 0 0)
(140.39 0 0)
(140.91 0 0)
(141.431 0 0)
(141.951 0 0)
(142.471 0 0)
(142.99 0 0)
(143.51 0 0)
(144.029 0 0)
(144.548 0 0)
(145.068 0 0)
(145.587 0 0)
(146.106 0 0)
(146.625 0 0)
(147.144 0 0)
(147.663 0 0)
(148.181 0 0)
(148.7 0 0)
(149.219 0 0)
(149.738 0 0)
(150.257 0 0)
(150.775 0 0)
(151.294 0 0)
(151.813 0 0)
(152.331 0 0)
(152.85 0 0)
(153.369 0 0)
(153.887 0 0)
(154.406 0 0)
(154.925 0 0)
(155.443 0 0)
(155.962 0 0)
(156.481 0 0)
(156.999 0 0)
(157.518 0 0)
(158.036 0 0)
(158.555 0 0)
(159.074 0 0)
(159.592 0 0)
(160.111 0 0)
(160.629 0 0)
(161.148 0 0)
(161.666 0 0)
(162.185 0 0)
(162.704 0 0)
(163.222 0 0)
(163.741 0 0)
(164.259 0 0)
(164.778 0 0)
(165.296 0 0)
(165.814 0 0)
(166.333 0 0)
(166.851 0 0)
(167.37 0 0)
(167.888 0 0)
(168.407 0 0)
(168.925 0 0)
(169.443 0 0)
(169.962 0 0)
(170.48 0 0)
(170.998 0 0)
(171.517 0 0)
(172.035 0 0)
(172.553 0 0)
(173.072 0 0)
(173.59 0 0)
(174.108 0 0)
(174.626 0 0)
(175.144 0 0)
(175.663 0 0)
(176.181 0 0)
(176.699 0 0)
(177.217 0 0)
(177.735 0 0)
(178.253 0 0)
(178.771 0 0)
(179.289 0 0)
(179.807 0 0)
(180.325 0 0)
(180.843 0 0)
(181.361 0 0)
(181.879 0 0)
(182.397 0 0)
(182.915 0 0)
(183.433 0 0)
(183.951 0 0)
(184.469 0 0)
(184.987 0 0)
(185.504 0 0)
(186.022 0 0)
(186.54 0 0)
(187.058 0 0)
(187.575 0 0)
(188.093 0 0)
(188.61 0 0)
(189.128 0 0)
(189.646 0 0)
(190.163 0 0)
(190.681 0 0)
(191.198 0 0)
(191.716 0 0)
(192.233 0 0)
(192.75 0 0)
(193.268 0 0)
(193.785 0 0)
(194.302 0 0)
(194.819 0 0)
(195.337 0 0)
(195.854 0 0)
(196.371 0 0)
(196.888 0 0)
(197.405 0 0)
(197.922 0 0)
(198.439 0 0)
(198.956 0 0)
(199.473 0 0)
(199.99 0 0)
(200.507 0 0)
(201.023 0 0)
(201.54 0 0)
(202.057 0 0)
(202.573 0 0)
(203.09 0 0)
(203.606 0 0)
(204.123 0 0)
(204.639 0 0)
(205.156 0 0)
(205.672 0 0)
(206.188 0 0)
(206.705 0 0)
(207.221 0 0)
(207.737 0 0)
(208.253 0 0)
(208.769 0 0)
(209.285 0 0)
(209.801 0 0)
(210.317 0 0)
(210.832 0 0)
(211.348 0 0)
(211.864 0 0)
(212.379 0 0)
(212.895 0 0)
(213.41 0 0)
(213.925 0 0)
(214.441 0 0)
(214.956 0 0)
(215.471 0 0)
(215.986 0 0)
(216.501 0 0)
(217.016 0 0)
(217.531 0 0)
(218.046 0 0)
(218.56 0 0)
(219.075 0 0)
(219.589 0 0)
(220.104 0 0)
(220.618 0 0)
(221.132 0 0)
(221.646 0 0)
(222.16 0 0)
(222.674 0 0)
(223.188 0 0)
(223.702 0 0)
(224.216 0 0)
(224.729 0 0)
(225.242 0 0)
(225.756 0 0)
(226.269 0 0)
(226.782 0 0)
(227.295 0 0)
(227.808 0 0)
(228.32 0 0)
(228.833 0 0)
(229.345 0 0)
(229.858 0 0)
(230.37 0 0)
(230.882 0 0)
(231.394 0 0)
(231.905 0 0)
(232.417 0 0)
(232.928 0 0)
(233.44 0 0)
(233.951 0 0)
(234.462 0 0)
(234.973 0 0)
(235.483 0 0)
(235.994 0 0)
(236.504 0 0)
(237.014 0 0)
(237.524 0 0)
(238.033 0 0)
(238.543 0 0)
(239.052 0 0)
(239.561 0 0)
(240.07 0 0)
(240.578 0 0)
(241.087 0 0)
(241.595 0 0)
(242.103 0 0)
(242.61 0 0)
(243.118 0 0)
(243.625 0 0)
(244.132 0 0)
(244.638 0 0)
(245.144 0 0)
(245.65 0 0)
(246.156 0 0)
(246.661 0 0)
(247.166 0 0)
(247.671 0 0)
(248.176 0 0)
(248.68 0 0)
(249.183 0 0)
(249.686 0 0)
(250.189 0 0)
(250.692 0 0)
(251.194 0 0)
(251.696 0 0)
(252.197 0 0)
(252.698 0 0)
(253.198 0 0)
(253.698 0 0)
(254.197 0 0)
(254.696 0 0)
(255.194 0 0)
(255.692 0 0)
(256.19 0 0)
(256.686 0 0)
(257.182 0 0)
(257.678 0 0)
(258.173 0 0)
(258.667 0 0)
(259.16 0 0)
(259.653 0 0)
(260.145 0 0)
(260.637 0 0)
(261.127 0 0)
(261.617 0 0)
(262.106 0 0)
(262.594 0 0)
(263.081 0 0)
(263.567 0 0)
(264.053 0 0)
(264.537 0 0)
(265.02 0 0)
(265.503 0 0)
(265.984 0 0)
(266.464 0 0)
(266.942 0 0)
(267.42 0 0)
(267.896 0 0)
(268.371 0 0)
(268.845 0 0)
(269.317 0 0)
(269.787 0 0)
(270.257 0 0)
(270.724 0 0)
(271.19 0 0)
(271.654 0 0)
(272.116 0 0)
(272.576 0 0)
(273.035 0 0)
(273.491 0 0)
(273.946 0 0)
(274.398 0 0)
(274.847 0 0)
(275.295 0 0)
(275.74 0 0)
(276.182 0 0)
(276.622 0 0)
(277.059 0 0)
(277.493 0 0)
(277.924 0 0)
(278.352 0 0)
(278.776 0 0)
(279.197 0 0)
(279.615 0 0)
(280.029 0 0)
(280.439 0 0)
(280.846 0 0)
(281.248 0 0)
(281.646 0 0)
(282.039 0 0)
(282.428 0 0)
(282.812 0 0)
(283.191 0 0)
(283.566 0 0)
(283.934 0 0)
(284.298 0 0)
(284.655 0 0)
(285.007 0 0)
(285.353 0 0)
(285.692 0 0)
(286.025 0 0)
(286.351 0 0)
(286.671 0 0)
(286.983 0 0)
(287.289 0 0)
(287.587 0 0)
(287.877 0 0)
(288.16 0 0)
(288.434 0 0)
(288.701 0 0)
(288.96 0 0)
(289.21 0 0)
(289.452 0 0)
(289.685 0 0)
(289.909 0 0)
(290.125 0 0)
(290.332 0 0)
(290.531 0 0)
(290.72 0 0)
(290.901 0 0)
(291.073 0 0)
(291.237 0 0)
(291.391 0 0)
(291.538 0 0)
(291.676 0 0)
(291.806 0 0)
(291.927 0 0)
(292.041 0 0)
(292.148 0 0)
(292.247 0 0)
(292.338 0 0)
(292.423 0 0)
(292.502 0 0)
(292.574 0 0)
(292.64 0 0)
(292.701 0 0)
(292.756 0 0)
(292.806 0 0)
(292.851 0 0)
(292.892 0 0)
(292.929 0 0)
(292.963 0 0)
(292.992 0 0)
(293.019 0 0)
(293.042 0 0)
(293.063 0 0)
(293.081 0 0)
(293.097 0 0)
(293.112 0 0)
(293.124 0 0)
(293.135 0 0)
(293.144 0 0)
(293.152 0 0)
(293.16 0 0)
(293.166 0 0)
(293.171 0 0)
(293.175 0 0)
(293.179 0 0)
(293.182 0 0)
(293.185 0 0)
(293.187 0 0)
(293.189 0 0)
(293.191 0 0)
(293.193 0 0)
(293.194 0 0)
(293.195 0 0)
(293.196 0 0)
(293.196 0 0)
(293.197 0 0)
(293.198 0 0)
(293.198 0 0)
(293.198 0 0)
(293.199 0 0)
(293.199 0 0)
(293.199 0 0)
(293.199 0 0)
(293.199 0 0)
(293.2 0 0)
(293.2 0 0)
(293.2 0 0)
(293.2 0 0)
(293.2 0 0)
(293.2 0 0)
(293.2 0 0)
(293.2 0 0)
(293.2 0 0)
(293.2 0 0)
(293.2 0 0)
(293.201 0 0)
(293.201 0 0)
(293.201 0 0)
(293.201 0 0)
(293.201 0 0)
(293.201 0 0)
(293.201 0 0)
(293.201 0 0)
(293.201 0 0)
(293.201 0 0)
(293.201 0 0)
(293.201 0 0)
(293.201 0 0)
(293.201 0 0)
(293.201 0 0)
(293.201 0 0)
(293.201 0 0)
(293.201 0 0)
(293.201 0 0)
(293.201 0 0)
(293.202 0 0)
(293.202 0 0)
(293.202 0 0)
(293.202 0 0)
(293.202 0 0)
(293.202 0 0)
(293.202 0 0)
(293.202 0 0)
(293.202 0 0)
(293.202 0 0)
(293.202 0 0)
(293.202 0 0)
(293.202 0 0)
(293.202 0 0)
(293.202 0 0)
(293.202 0 0)
(293.202 0 0)
(293.202 0 0)
(293.202 0 0)
(293.203 0 0)
(293.203 0 0)
(293.203 0 0)
(293.203 0 0)
(293.203 0 0)
(293.203 0 0)
(293.203 0 0)
(293.203 0 0)
(293.203 0 0)
(293.203 0 0)
(293.203 0 0)
(293.203 0 0)
(293.203 0 0)
(293.203 0 0)
(293.203 0 0)
(293.203 0 0)
(293.203 0 0)
(293.203 0 0)
(293.203 0 0)
(293.203 0 0)
(293.203 0 0)
(293.203 0 0)
(293.203 0 0)
(293.203 0 0)
(293.203 0 0)
(293.203 0 0)
(293.203 0 0)
(293.203 0 0)
(293.203 0 0)
(293.203 0 0)
(293.203 0 0)
(293.203 0 0)
(293.203 0 0)
(293.203 0 0)
(293.203 0 0)
(293.203 0 0)
(293.203 0 0)
(293.203 0 0)
(293.203 0 0)
(293.203 0 0)
(293.203 0 0)
(293.203 0 0)
(293.203 0 0)
(293.203 0 0)
(293.203 0 0)
(293.203 0 0)
(293.203 0 0)
(293.203 0 0)
(293.203 0 0)
(293.203 0 0)
(293.203 0 0)
(293.203 0 0)
(293.203 0 0)
(293.203 0 0)
(293.203 0 0)
(293.203 0 0)
(293.203 0 0)
(293.203 0 0)
(293.203 0 0)
(293.203 0 0)
(293.203 0 0)
(293.203 0 0)
(293.203 0 0)
(293.203 0 0)
(293.203 0 0)
(293.204 0 0)
(293.204 0 0)
(293.204 0 0)
(293.204 0 0)
(293.204 0 0)
(293.204 0 0)
(293.204 0 0)
(293.204 0 0)
(293.204 0 0)
(293.204 0 0)
(293.204 0 0)
(293.204 0 0)
(293.204 0 0)
(293.204 0 0)
(293.204 0 0)
(293.204 0 0)
(293.204 0 0)
(293.204 0 0)
(293.204 0 0)
(293.204 0 0)
(293.204 0 0)
(293.204 0 0)
(293.204 0 0)
(293.204 0 0)
(293.204 0 0)
(293.204 0 0)
(293.204 0 0)
(293.204 0 0)
(293.204 0 0)
(293.204 0 0)
(293.204 0 0)
(293.204 0 0)
(293.204 0 0)
(293.204 0 0)
(293.204 0 0)
(293.204 0 0)
(293.204 0 0)
(293.204 0 0)
(293.204 0 0)
(293.204 0 0)
(293.204 0 0)
(293.204 0 0)
(293.204 0 0)
(293.204 0 0)
(293.204 0 0)
(293.204 0 0)
(293.204 0 0)
(293.204 0 0)
(293.204 0 0)
(293.204 0 0)
(293.204 0 0)
(293.204 0 0)
(293.204 0 0)
(293.204 0 0)
(293.204 0 0)
(293.204 0 0)
(293.204 0 0)
(293.204 0 0)
(293.204 0 0)
(293.204 0 0)
(293.204 0 0)
(293.204 0 0)
(293.204 0 0)
(293.204 0 0)
(293.204 0 0)
(293.204 0 0)
(293.204 0 0)
(293.204 0 0)
(293.204 0 0)
(293.204 0 0)
(293.204 0 0)
(293.204 0 0)
(293.204 0 0)
(293.204 0 0)
(293.205 0 0)
(293.205 0 0)
(293.205 0 0)
(293.205 0 0)
(293.205 0 0)
(293.205 0 0)
(293.205 0 0)
(293.205 0 0)
(293.205 0 0)
(293.205 0 0)
(293.205 0 0)
(293.205 0 0)
(293.205 0 0)
(293.205 0 0)
(293.205 0 0)
(293.205 0 0)
(293.205 0 0)
(293.205 0 0)
(293.205 0 0)
(293.205 0 0)
(293.205 0 0)
(293.205 0 0)
(293.205 0 0)
(293.205 0 0)
(293.205 0 0)
(293.205 0 0)
(293.205 0 0)
(293.205 0 0)
(293.205 0 0)
(293.205 0 0)
(293.205 0 0)
(293.205 0 0)
(293.205 0 0)
(293.205 0 0)
(293.205 0 0)
(293.205 0 0)
(293.205 0 0)
(293.205 0 0)
(293.205 0 0)
(293.205 0 0)
(293.205 0 0)
(293.205 0 0)
(293.205 0 0)
(293.205 0 0)
(293.205 0 0)
(293.205 0 0)
(293.205 0 0)
(293.205 0 0)
(293.205 0 0)
(293.205 0 0)
(293.205 0 0)
(293.205 0 0)
(293.205 0 0)
(293.205 0 0)
(293.205 0 0)
(293.205 0 0)
(293.205 0 0)
(293.205 0 0)
(293.205 0 0)
(293.205 0 0)
(293.205 0 0)
(293.205 0 0)
(293.205 0 0)
(293.205 0 0)
(293.205 0 0)
(293.205 0 0)
(293.205 0 0)
(293.205 0 0)
(293.205 0 0)
(293.205 0 0)
(293.205 0 0)
(293.205 0 0)
(293.205 0 0)
(293.205 0 0)
(293.205 0 0)
(293.205 0 0)
(293.205 0 0)
(293.205 0 0)
(293.205 0 0)
(293.205 0 0)
(293.205 0 0)
(293.205 0 0)
(293.205 0 0)
(293.205 0 0)
(293.205 0 0)
(293.205 0 0)
(293.205 0 0)
(293.205 0 0)
(293.205 0 0)
(293.205 0 0)
(293.205 0 0)
(293.205 0 0)
(293.205 0 0)
(293.205 0 0)
(293.205 0 0)
(293.205 0 0)
(293.205 0 0)
(293.205 0 0)
(293.205 0 0)
(293.205 0 0)
(293.205 0 0)
(293.205 0 0)
(293.205 0 0)
(293.205 0 0)
(293.205 0 0)
(293.205 0 0)
(293.205 0 0)
(293.205 0 0)
(293.205 0 0)
(293.205 0 0)
(293.205 0 0)
(293.205 0 0)
(293.205 0 0)
(293.205 0 0)
(293.205 0 0)
(293.205 0 0)
(293.205 0 0)
(293.205 0 0)
(293.205 0 0)
(293.205 0 0)
(293.205 0 0)
(293.205 0 0)
(293.205 0 0)
(293.205 0 0)
(293.205 0 0)
(293.205 0 0)
(293.205 0 0)
(293.205 0 0)
(293.205 0 0)
(293.205 0 0)
(293.205 0 0)
(293.205 0 0)
(293.205 0 0)
(293.205 0 0)
(293.205 0 0)
(293.205 0 0)
(293.205 0 0)
(293.205 0 0)
(293.205 0 0)
(293.205 0 0)
(293.205 0 0)
(293.205 0 0)
(293.205 0 0)
(293.205 0 0)
(293.205 0 0)
(293.205 0 0)
(293.205 0 0)
(293.205 0 0)
(293.205 0 0)
(293.205 0 0)
(293.205 0 0)
(293.205 0 0)
(293.205 0 0)
(293.205 0 0)
(293.205 0 0)
(293.205 0 0)
(293.205 0 0)
(293.205 0 0)
(293.205 0 0)
(293.205 0 0)
(293.205 0 0)
(293.205 0 0)
(293.205 0 0)
(293.205 0 0)
(293.205 0 0)
(293.205 0 0)
(293.205 0 0)
(293.205 0 0)
(293.205 0 0)
(293.204 0 0)
(293.204 0 0)
(293.204 0 0)
(293.204 0 0)
(293.203 0 0)
(293.203 0 0)
(293.202 0 0)
(293.201 0 0)
(293.2 0 0)
(293.199 0 0)
(293.197 0 0)
(293.194 0 0)
(293.19 0 0)
(293.186 0 0)
(293.18 0 0)
(293.173 0 0)
(293.164 0 0)
(293.152 0 0)
(293.138 0 0)
(293.121 0 0)
(293.101 0 0)
(293.077 0 0)
(293.049 0 0)
(293.016 0 0)
(292.978 0 0)
(292.935 0 0)
(292.886 0 0)
(292.832 0 0)
(292.771 0 0)
(292.705 0 0)
(292.634 0 0)
(292.558 0 0)
(292.477 0 0)
(292.392 0 0)
(292.304 0 0)
(292.214 0 0)
(292.123 0 0)
(292.032 0 0)
(291.942 0 0)
(291.854 0 0)
(291.769 0 0)
(291.688 0 0)
(291.612 0 0)
(291.541 0 0)
(291.476 0 0)
(291.417 0 0)
(291.364 0 0)
(291.318 0 0)
(291.277 0 0)
(291.242 0 0)
(291.213 0 0)
(291.188 0 0)
(291.167 0 0)
(291.15 0 0)
(291.136 0 0)
(291.125 0 0)
(291.116 0 0)
(291.109 0 0)
(291.103 0 0)
(291.099 0 0)
(291.095 0 0)
(291.092 0 0)
(291.089 0 0)
(291.086 0 0)
(291.084 0 0)
(291.082 0 0)
(291.08 0 0)
(291.079 0 0)
(291.077 0 0)
(291.076 0 0)
(291.075 0 0)
(291.074 0 0)
(291.073 0 0)
(291.072 0 0)
(291.071 0 0)
(291.07 0 0)
(291.069 0 0)
(291.068 0 0)
(291.068 0 0)
(291.067 0 0)
(291.065 0 0)
(291.064 0 0)
(291.063 0 0)
(291.061 0 0)
(291.06 0 0)
(291.058 0 0)
(291.056 0 0)
(291.054 0 0)
(291.052 0 0)
(291.049 0 0)
(291.047 0 0)
(291.045 0 0)
(291.042 0 0)
(291.04 0 0)
(291.038 0 0)
(291.035 0 0)
(291.033 0 0)
(291.03 0 0)
(291.028 0 0)
(291.024 0 0)
(291.018 0 0)
(291.014 0 0)
)
;

boundaryField
{
    sides
    {
        type            zeroGradient;
    }
    empty
    {
        type            empty;
    }
}


// ************************************************************************* //
