/*--------------------------------*- C++ -*----------------------------------*\
| =========                 |                                                 |
| \\      /  F ield         | OpenFOAM: The Open Source CFD Toolbox           |
|  \\    /   O peration     | Version:  3.0.0                                 |
|   \\  /    A nd           | Web:      www.OpenFOAM.org                      |
|    \\/     M anipulation  |                                                 |
\*---------------------------------------------------------------------------*/
FoamFile
{
    version     2.0;
    format      ascii;
    class       volScalarField;
    location    "0.25";
    object      p;
}
// * * * * * * * * * * * * * * * * * * * * * * * * * * * * * * * * * * * * * //

dimensions      [0 2 -2 0 0 0 0];

internalField   nonuniform List<scalar> 
262144
(
-0.00312968
-0.00387308
-0.00394125
-0.00407716
-0.00426398
-0.00446221
-0.00467318
-0.00489525
-0.00512519
-0.00535888
-0.00559084
-0.00582942
-0.00607474
-0.00630549
-0.00652777
-0.00674212
-0.00694308
-0.00712812
-0.00729624
-0.00744581
-0.0075752
-0.0076829
-0.00776749
-0.00782802
-0.00786315
-0.00787243
-0.00785655
-0.00781564
-0.00774978
-0.0076593
-0.0075448
-0.00740752
-0.00724875
-0.00707001
-0.0068731
-0.00665996
-0.0064327
-0.00619359
-0.00594499
-0.00568939
-0.00542937
-0.00516761
-0.00490685
-0.00464981
-0.0043992
-0.00415764
-0.0039277
-0.00371185
-0.00351246
-0.00333176
-0.00317182
-0.00303452
-0.00292156
-0.00283446
-0.00277451
-0.00274281
-0.00274022
-0.00276747
-0.00282544
-0.00291292
-0.00302593
-0.0032021
-0.00345361
-0.00299278
-0.00393983
-0.00487268
-0.00496236
-0.0051183
-0.00533186
-0.00555531
-0.00579097
-0.00603785
-0.0062924
-0.0065514
-0.00681134
-0.00707028
-0.00732498
-0.0075677
-0.00779228
-0.00803227
-0.0082507
-0.00844638
-0.00861984
-0.00877517
-0.00890613
-0.00901135
-0.00908946
-0.00914064
-0.00916322
-0.00915534
-0.00911926
-0.00905553
-0.00896397
-0.00884519
-0.0087005
-0.00853051
-0.00833715
-0.00812301
-0.00789031
-0.00764128
-0.00737853
-0.00710486
-0.00682293
-0.00653567
-0.00624599
-0.00595695
-0.00567159
-0.00539292
-0.00512384
-0.00486712
-0.00462541
-0.00440121
-0.00419695
-0.0040148
-0.00385677
-0.00372466
-0.00362002
-0.00354423
-0.00349843
-0.00348355
-0.00350027
-0.0035492
-0.00363113
-0.00374383
-0.00388173
-0.00409218
-0.00437828
-0.00377949
-0.00396906
-0.00490619
-0.00500172
-0.00517084
-0.00539697
-0.00562987
-0.00587229
-0.00612325
-0.00637939
-0.00663764
-0.00689507
-0.00714873
-0.00739568
-0.00763251
-0.0078563
-0.0080684
-0.0082617
-0.00843167
-0.0085667
-0.00871642
-0.00883319
-0.00891846
-0.00897342
-0.00900516
-0.00900608
-0.00897741
-0.00892076
-0.00883674
-0.00872519
-0.00858777
-0.00842707
-0.00824133
-0.00803316
-0.00780613
-0.00756258
-0.00730489
-0.00703517
-0.00675605
-0.00647091
-0.00618251
-0.00589401
-0.00560822
-0.00532807
-0.00505661
-0.00479669
-0.0045509
-0.00432178
-0.00411169
-0.00392292
-0.00375752
-0.00361732
-0.0035039
-0.00341862
-0.00336262
-0.00333683
-0.00334192
-0.00337832
-0.00344645
-0.00354675
-0.00367631
-0.00382963
-0.00405534
-0.00436558
-0.00378917
-0.0040266
-0.00496203
-0.00507352
-0.00525675
-0.00549363
-0.00573454
-0.00598233
-0.00623604
-0.00649232
-0.00674824
-0.007001
-0.00724782
-0.00748595
-0.00771258
-0.00792529
-0.00812182
-0.00829954
-0.00845613
-0.00858903
-0.00870159
-0.00878746
-0.00884299
-0.00885156
-0.00888069
-0.00886629
-0.0088173
-0.00874148
-0.00863949
-0.00850989
-0.00835487
-0.00817646
-0.00797578
-0.007755
-0.00751634
-0.0072627
-0.00699839
-0.00672328
-0.0064399
-0.00615261
-0.00586484
-0.00557871
-0.00529695
-0.00502297
-0.00475974
-0.00450999
-0.00427609
-0.00406041
-0.00386536
-0.00369287
-0.00354489
-0.00342306
-0.00332873
-0.00326305
-0.00322695
-0.00322112
-0.00324597
-0.00330177
-0.00338863
-0.00350655
-0.00365225
-0.00381928
-0.00405677
-0.0043765
-0.00382513
-0.00408635
-0.0050221
-0.00515118
-0.00534704
-0.00559259
-0.00583958
-0.00609084
-0.00634544
-0.00660012
-0.00685209
-0.00709866
-0.00733714
-0.00756494
-0.00777949
-0.00797848
-0.00815976
-0.00832114
-0.00846071
-0.00857693
-0.00866837
-0.00873397
-0.00877229
-0.00878103
-0.0087675
-0.00872135
-0.00863637
-0.00854098
-0.00842943
-0.00828399
-0.00811227
-0.00792
-0.00770692
-0.00747495
-0.00722706
-0.00696586
-0.00669433
-0.00641468
-0.00612932
-0.00584185
-0.00555711
-0.00527549
-0.00499937
-0.00473326
-0.00447992
-0.00424142
-0.00402045
-0.00381937
-0.00364015
-0.00348473
-0.00335481
-0.00325181
-0.00317686
-0.00313086
-0.00311458
-0.00312841
-0.00317264
-0.0032472
-0.00335166
-0.00348534
-0.00364565
-0.0038257
-0.00407379
-0.00439699
-0.00386034
-0.00410675
-0.00503548
-0.00518021
-0.00538621
-0.0056377
-0.00588804
-0.00613998
-0.00639266
-0.00664297
-0.00688823
-0.0071259
-0.00735344
-0.00756841
-0.00776846
-0.00795141
-0.00811526
-0.00825809
-0.00837825
-0.0084743
-0.00854516
-0.00858985
-0.00860756
-0.00859778
-0.00856092
-0.00849627
-0.00840377
-0.00828896
-0.00814471
-0.00797193
-0.00777628
-0.00758202
-0.00735894
-0.00711899
-0.00686459
-0.00659835
-0.0063233
-0.0060423
-0.00575868
-0.005475
-0.00519454
-0.00491952
-0.0046524
-0.00439826
-0.004158
-0.00393334
-0.00372779
-0.00354344
-0.00338201
-0.00324527
-0.00313481
-0.00305173
-0.00299698
-0.00297125
-0.00297499
-0.00300847
-0.00307166
-0.00316399
-0.0032844
-0.00343302
-0.00360603
-0.00379772
-0.00405257
-0.00437833
-0.00387831
-0.0040924
-0.00500808
-0.00516644
-0.00538036
-0.00563518
-0.00588626
-0.00613627
-0.00638441
-0.00662776
-0.0068638
-0.00709014
-0.00730442
-0.00750439
-0.00768788
-0.0078529
-0.00799763
-0.0081204
-0.0082198
-0.00829461
-0.00834389
-0.0083669
-0.00836314
-0.0083324
-0.00827502
-0.00819099
-0.00808112
-0.00794713
-0.00778864
-0.00760781
-0.00740511
-0.00718484
-0.00693769
-0.00669527
-0.00644031
-0.00617146
-0.00589698
-0.0056179
-0.00533832
-0.00506042
-0.00478753
-0.00452251
-0.00426805
-0.00402697
-0.00380126
-0.00359301
-0.00340603
-0.00324066
-0.00309876
-0.00298238
-0.00289243
-0.00283008
-0.00279612
-0.00279095
-0.00281478
-0.00286764
-0.00294902
-0.0030578
-0.00319355
-0.00335511
-0.00353982
-0.00374172
-0.00399972
-0.0043175
-0.0038566
-0.00404412
-0.00494156
-0.00511156
-0.00533104
-0.00558665
-0.00583592
-0.00608146
-0.00632258
-0.00655652
-0.00678099
-0.00699376
-0.00719268
-0.00737567
-0.00754079
-0.00768627
-0.00781048
-0.00791201
-0.00798965
-0.00804242
-0.00806959
-0.00807066
-0.00804542
-0.00799391
-0.00791647
-0.00781355
-0.00768611
-0.00753548
-0.0073626
-0.00716931
-0.00695728
-0.00672882
-0.00648456
-0.00622988
-0.00596371
-0.00568517
-0.00542036
-0.00514644
-0.00487391
-0.00460483
-0.00434267
-0.00409015
-0.00384984
-0.00362436
-0.003416
-0.00322695
-0.00305922
-0.00291403
-0.0027933
-0.00269909
-0.00263078
-0.00258984
-0.00257714
-0.00259265
-0.00263631
-0.00270783
-0.00280633
-0.00293105
-0.00308044
-0.003254
-0.00344857
-0.00365688
-0.00391768
-0.00424249
-0.00380238
-0.00396094
-0.00483549
-0.0050149
-0.00523754
-0.00549137
-0.00573631
-0.00597492
-0.00620659
-0.00642882
-0.00663948
-0.00683658
-0.00701816
-0.00718238
-0.00732753
-0.00745203
-0.00755451
-0.00763379
-0.0076889
-0.0077191
-0.00772388
-0.007703
-0.00765647
-0.00758454
-0.00748775
-0.00736686
-0.00722295
-0.00705733
-0.00687137
-0.00666692
-0.00644591
-0.00621066
-0.00596335
-0.0057068
-0.00544209
-0.00517249
-0.00490179
-0.00462549
-0.00436799
-0.00411108
-0.00386221
-0.00362464
-0.00340103
-0.00319362
-0.00300452
-0.00283585
-0.00268929
-0.00256627
-0.00246816
-0.002396
-0.00235008
-0.00233114
-0.00233996
-0.00237613
-0.00243939
-0.00252897
-0.00264396
-0.00278317
-0.00294536
-0.00312955
-0.00333194
-0.00354417
-0.00379747
-0.00412931
-0.00371513
-0.0038429
-0.00469028
-0.0048768
-0.00510017
-0.0053497
-0.00558788
-0.00581715
-0.00603708
-0.00624537
-0.00644014
-0.00661963
-0.0067821
-0.00692594
-0.00704968
-0.007152
-0.00723175
-0.00728801
-0.00732005
-0.00732737
-0.0073097
-0.00726704
-0.00719962
-0.00710792
-0.00699268
-0.00685487
-0.00669573
-0.0065167
-0.00631942
-0.00610578
-0.00587782
-0.00563781
-0.00538807
-0.00513133
-0.00486994
-0.00460716
-0.00434313
-0.00408208
-0.00382759
-0.00358169
-0.00334946
-0.00312977
-0.00292495
-0.00273763
-0.00257001
-0.00242337
-0.00229981
-0.0021996
-0.00212474
-0.0020757
-0.00205297
-0.00205672
-0.002087
-0.00214344
-0.00222545
-0.00233221
-0.00246267
-0.00261551
-0.00278924
-0.00298226
-0.00319005
-0.00340585
-0.00366741
-0.003983
-0.00359504
-0.0036904
-0.00450684
-0.0046981
-0.00491979
-0.00516257
-0.00539159
-0.00560926
-0.00581525
-0.00600755
-0.00618451
-0.00634462
-0.00648639
-0.00660845
-0.00670958
-0.00678871
-0.00684497
-0.00687765
-0.0068863
-0.00687066
-0.0068307
-0.00676665
-0.00667896
-0.00656833
-0.00643569
-0.00628222
-0.0061093
-0.00591853
-0.00571171
-0.00549082
-0.005258
-0.00501552
-0.00476579
-0.00451131
-0.00425464
-0.00399854
-0.00374519
-0.00349718
-0.00325706
-0.00302697
-0.0028069
-0.00260915
-0.00242561
-0.00226026
-0.00211539
-0.0019928
-0.00189579
-0.00181738
-0.00176637
-0.00174117
-0.00174168
-0.00176779
-0.00181929
-0.00189562
-0.00199597
-0.00211927
-0.00226421
-0.00242934
-0.0026133
-0.00281202
-0.00302279
-0.00323965
-0.00350157
-0.00380447
-0.00344292
-0.00350433
-0.00428642
-0.00448001
-0.00469765
-0.00493129
-0.00514888
-0.00535277
-0.00554279
-0.00571719
-0.00587461
-0.00601376
-0.00613343
-0.00623252
-0.00631006
-0.00636524
-0.00639745
-0.00640624
-0.00639141
-0.00635295
-0.00629106
-0.00620621
-0.00609906
-0.00597052
-0.00582172
-0.00565399
-0.00546889
-0.00526815
-0.00505367
-0.00482754
-0.00459197
-0.00434926
-0.00410184
-0.00385216
-0.00360273
-0.00335611
-0.00311471
-0.00288106
-0.0026576
-0.00244629
-0.00224912
-0.0020692
-0.00190676
-0.001765
-0.00164482
-0.00154683
-0.00147248
-0.00142152
-0.00139611
-0.00139499
-0.00141914
-0.00146723
-0.00153956
-0.00163519
-0.00175305
-0.00189187
-0.00204989
-0.00222562
-0.00241658
-0.0026199
-0.00282679
-0.00305237
-0.00330626
-0.00359565
-0.00325966
-0.00328609
-0.00403083
-0.0042241
-0.00443537
-0.00465761
-0.00486161
-0.00504971
-0.00522187
-0.00537665
-0.00551297
-0.0056298
-0.0057262
-0.00580134
-0.00585453
-0.00588522
-0.00589306
-0.00587787
-0.00583969
-0.00577876
-0.00569552
-0.00559066
-0.00546505
-0.00531979
-0.0051562
-0.00497577
-0.00478019
-0.00457132
-0.00435117
-0.00412188
-0.0038857
-0.00364499
-0.00340213
-0.00315957
-0.00291975
-0.00268508
-0.00245792
-0.00224064
-0.00203551
-0.00184457
-0.00166955
-0.00151233
-0.00137404
-0.00125387
-0.00116198
-0.00109018
-0.00104146
-0.00101662
-0.00101608
-0.00103993
-0.00108961
-0.00115761
-0.00124997
-0.00136412
-0.00149855
-0.00165219
-0.00182108
-0.00200552
-0.00220245
-0.00240905
-0.002624
-0.00284082
-0.00308466
-0.00335868
-0.00304645
-0.00303754
-0.00374166
-0.00393258
-0.00413504
-0.00434371
-0.00453213
-0.00470255
-0.00485514
-0.00498878
-0.00510263
-0.00519599
-0.00526817
-0.00531862
-0.00534693
-0.00535282
-0.00533621
-0.00529718
-0.005236
-0.00515317
-0.00504936
-0.00492546
-0.00478255
-0.00462193
-0.00444506
-0.0042536
-0.00404935
-0.00383429
-0.00361047
-0.00338012
-0.00314552
-0.002909
-0.00267294
-0.00243973
-0.00221172
-0.00199122
-0.00178048
-0.00158164
-0.00139676
-0.00122771
-0.00107619
-0.000943568
-0.000831223
-0.00074005
-0.00067193
-0.00062649
-0.000604319
-0.000605551
-0.000630238
-0.000678052
-0.00074857
-0.0008401
-0.000952441
-0.00108416
-0.00123374
-0.00139952
-0.00157926
-0.00177083
-0.00197182
-0.00218154
-0.00239499
-0.00260564
-0.00283874
-0.0030963
-0.00280427
-0.00276093
-0.00342083
-0.00360768
-0.00379913
-0.00399219
-0.00416316
-0.00431422
-0.00444572
-0.00455687
-0.00464714
-0.00471608
-0.00476331
-0.00478857
-0.0047917
-0.00477273
-0.00473181
-0.00466928
-0.00458569
-0.00448173
-0.00435831
-0.00421653
-0.00405766
-0.00388316
-0.00369466
-0.00349392
-0.00328289
-0.00306358
-0.00283819
-0.0026089
-0.00237803
-0.00214789
-0.00192081
-0.00169909
-0.00148499
-0.00128071
-0.00108832
-0.000909805
-0.000746972
-0.000601476
-0.000474775
-0.000368118
-0.000282523
-0.000218894
-0.000177824
-0.000159642
-0.000164525
-0.000191834
-0.000241714
-0.000313395
-0.000406065
-0.000518563
-0.000649637
-0.000797809
-0.000961378
-0.00113843
-0.00132663
-0.00152233
-0.00172813
-0.00193699
-0.00214613
-0.00234985
-0.00257018
-0.00280663
-0.00253907
-0.00245838
-0.00307176
-0.00325205
-0.00343047
-0.00360604
-0.00375785
-0.00388803
-0.00399713
-0.00408467
-0.00415044
-0.00419427
-0.00421607
-0.00421585
-0.00419376
-0.00415007
-0.00408522
-0.00399978
-0.00389454
-0.00377043
-0.00362856
-0.00347022
-0.00329687
-0.00311011
-0.00291171
-0.00270357
-0.00248769
-0.00226619
-0.00204126
-0.00181514
-0.00159012
-0.00136846
-0.00115244
-0.000944261
-0.000746065
-0.00055989
-0.000387654
-0.000231124
-9.19026e-05
2.85999e-05
0.000129178
0.000208849
0.0002669
0.000302607
0.000315754
0.000306394
0.000274629
0.000220814
0.000145878
5.10002e-05
-6.33903e-05
-0.000195779
-0.000344325
-0.000507534
-0.000683625
-0.000870474
-0.00106574
-0.00126688
-0.0014719
-0.00167784
-0.00188104
-0.00207587
-0.0022817
-0.00249598
-0.00224969
-0.00213303
-0.00269712
-0.00286868
-0.00303223
-0.00318858
-0.00331972
-0.0034277
-0.00351329
-0.00357634
-0.00361692
-0.00363516
-0.00363128
-0.00360557
-0.00355843
-0.00349042
-0.00340222
-0.00329466
-0.00316876
-0.00302564
-0.00286664
-0.00269322
-0.00250699
-0.00230971
-0.00210325
-0.00188962
-0.00167089
-0.00144922
-0.00122683
-0.00100596
-0.000788842
-0.000577709
-0.000374732
-0.000182011
-1.54626e-06
0.000164787
0.000315261
0.000448318
0.000562592
0.00065692
0.000730361
0.0007822
0.000811995
0.000819708
0.000804518
0.000767495
0.000708969
0.000629579
0.000530267
0.000412161
0.000276332
0.000124158
-3.98791e-05
-0.0002159
-0.000402754
-0.000597689
-0.000798125
-0.00100148
-0.00120514
-0.00140653
-0.00160189
-0.00178593
-0.00197542
-0.00216619
-0.00193961
-0.00178803
-0.00229999
-0.00246087
-0.00260782
-0.00274342
-0.00285258
-0.00293728
-0.00299847
-0.00303636
-0.00305131
-0.00304376
-0.00301418
-0.00296317
-0.0028914
-0.00279968
-0.00268895
-0.00256027
-0.00241486
-0.00225408
-0.00207942
-0.00189253
-0.00169515
-0.00148916
-0.00127656
-0.0010594
-0.00083983
-0.00062003
-0.000402218
-0.000188608
1.86074e-05
0.000217282
0.000405347
0.000580832
0.000741894
0.000886838
0.00101414
0.00112247
0.00121069
0.00127791
0.00132347
0.00134692
0.00134807
0.00132707
0.00128424
0.00121969
0.00113474
0.00103029
0.0009075
0.000767795
0.000612825
0.000444376
0.000264653
7.5524e-05
-0.000120907
-0.000322292
-0.000526065
-0.000729605
-0.000930211
-0.0011252
-0.0013109
-0.00148246
-0.00165395
-0.00181974
-0.00161206
-0.00142674
-0.00188371
-0.00203214
-0.00216096
-0.00227449
-0.00236055
-0.0024211
-0.00245725
-0.00246956
-0.00245868
-0.00242534
-0.00237031
-0.00229444
-0.00219868
-0.00208409
-0.00195183
-0.00180322
-0.00163966
-0.0014627
-0.00127401
-0.00107537
-0.000868661
-0.000655878
-0.000439081
-0.000220396
-1.99717e-06
0.000213921
0.000425161
0.000629551
0.000824969
0.00100937
0.00118079
0.00133743
0.00147761
0.00159982
0.00170276
0.00178533
0.00184665
0.0018861
0.00190328
0.00189805
0.00187053
0.00182107
0.00175032
0.0016591
0.0015484
0.00141966
0.0012743
0.00111403
0.0009408
0.000756594
0.000563422
0.000363605
0.000159552
-4.65412e-05
-0.000251825
-0.000453685
-0.00064938
-0.00083617
-0.00101052
-0.00116802
-0.00132001
-0.00145949
-0.00127033
-0.00105275
-0.00145182
-0.00158622
-0.00169559
-0.00178591
-0.00184801
-0.00188376
-0.00189448
-0.00188103
-0.00184437
-0.0017855
-0.00170548
-0.00160542
-0.00148654
-0.00135012
-0.00119756
-0.00103038
-0.000850176
-0.000658673
-0.000457688
-0.000249134
-3.50099e-05
0.000182615
0.000401613
0.000619817
0.000835042
0.0010451
0.00124784
0.00144115
0.00162299
0.00179143
0.00194466
0.00208103
0.00219903
0.00229738
0.002375
0.00243102
0.00246485
0.00247611
0.0024647
0.00243077
0.00237473
0.00229725
0.00219923
0.00208181
0.00194638
0.00179461
0.00162789
0.00144828
0.00125818
0.00105975
0.000854785
0.000646061
0.000436054
0.00022725
2.23319e-05
-0.000176002
-0.000364991
-0.000541877
-0.000703285
-0.00084525
-0.000976398
-0.00108838
-0.000917832
-0.000669783
-0.00100802
-0.00112703
-0.00121582
-0.00128204
-0.00131954
-0.00133009
-0.00131521
-0.00127607
-0.00121392
-0.00113003
-0.00102573
-0.000902384
-0.000761449
-0.000604448
-0.000432991
-0.000248777
-5.35918e-05
0.000150691
0.000362117
0.00057866
0.000798236
0.0010187
0.0012379
0.00145363
0.00166372
0.00186601
0.00205841
0.00223889
0.00240551
0.00255647
0.00269011
0.00280496
0.00289971
0.0029733
0.00302487
0.00305383
0.00305981
0.00304274
0.00300279
0.00294041
0.0028563
0.00275141
0.00262695
0.00248432
0.00232517
0.00215134
0.00196475
0.00176758
0.00156222
0.00135101
0.00113627
0.00092061
0.000706613
0.000496907
0.000294185
0.000101168
-7.93983e-05
-0.000244766
-0.000391744
-0.000516853
-0.00062598
-0.000709501
-0.00055807
-0.000281639
-0.00055614
-0.000658597
-0.000725925
-0.000767376
-0.000779876
-0.000765087
-0.000724688
-0.000660175
-0.000573064
-0.000464897
-0.000337247
-0.000191735
-3.00358e-05
0.00014611
0.000334896
0.000534447
0.000742818
0.000957999
0.00117792
0.00140047
0.00162349
0.00184479
0.00206217
0.00227347
0.00247652
0.00266922
0.00284955
0.00301556
0.00316547
0.00329759
0.00341045
0.00350275
0.00357341
0.00362157
0.00364662
0.00364822
0.00362629
0.00358101
0.00351285
0.00342253
0.00331105
0.00317964
0.00302979
0.00286318
0.00268171
0.00248744
0.00228257
0.00206948
0.00185064
0.00162857
0.00140584
0.00118509
0.000968998
0.000760246
0.000561535
0.000375571
0.000205061
5.27154e-05
-7.84844e-05
-0.000185583
-0.000271693
-0.000325975
-0.000194608
0.000107835
-0.000100121
-0.000185087
-0.000230297
-0.000246552
-0.000233891
-0.000193855
-0.000128277
-3.89517e-05
7.23434e-05
0.000203818
0.000353657
0.000520012
0.000700995
0.000894669
0.00109905
0.0013121
0.00153175
0.00175586
0.00198227
0.00220879
0.00243321
0.00265332
0.00286694
0.00307189
0.00326608
0.00344745
0.00361409
0.00376417
0.00389601
0.00400813
0.00409921
0.00416815
0.00421408
0.00423639
0.00423471
0.00420894
0.00415928
0.00408619
0.0039904
0.00387293
0.00373505
0.00357826
0.00340432
0.00321517
0.00301295
0.00279994
0.00257856
0.00235137
0.00212096
0.00189003
0.00166125
0.00143737
0.0012211
0.00101516
0.000822231
0.000644989
0.000486071
0.000348127
0.0002339
0.00014579
8.34986e-05
5.90048e-05
0.000168989
0.000494816
0.000356034
0.000289279
0.000266605
0.000275729
0.000313462
0.000378401
0.000468578
0.000581913
0.000716385
0.000869969
0.00104063
0.0012263
0.00142491
0.00163433
0.00185244
0.00207704
0.00230595
0.00253693
0.00276776
0.00299618
0.00321998
0.00343692
0.00364484
0.00384161
0.00402518
0.00419362
0.00434509
0.0044779
0.00459054
0.00468168
0.00475018
0.00479517
0.004816
0.00481228
0.00478389
0.00473101
0.00465408
0.00455384
0.00443128
0.00428771
0.00412464
0.00394386
0.00374737
0.00353733
0.00331613
0.00308624
0.00285029
0.00261097
0.00237104
0.00213328
0.00190049
0.00167545
0.00146092
0.00125961
0.00107419
0.00090725
0.000761348
0.000639046
0.000542823
0.000474496
0.000436618
0.000442223
0.000529195
0.000875545
0.00080829
0.000760249
0.000760287
0.000794727
0.000857196
0.000946451
0.00106041
0.00119672
0.00135313
0.00152742
0.00171733
0.00192061
0.00213502
0.00235827
0.00258809
0.00282218
0.00305825
0.00329401
0.00352715
0.00375541
0.00397655
0.00418837
0.00438872
0.00457555
0.0047469
0.00490091
0.00503588
0.00515028
0.00524275
0.00531212
0.00535749
0.00537817
0.00537374
0.00534407
0.00528928
0.00520979
0.00510631
0.00497983
0.00483163
0.00466325
0.00447648
0.00427332
0.00405602
0.00382697
0.00358874
0.00334402
0.00309557
0.00284624
0.00259889
0.00235641
0.00212166
0.00189746
0.00168656
0.00149168
0.0013154
0.00116024
0.00102865
0.000923085
0.000845724
0.000797779
0.000784695
0.000820463
0.00088257
0.00124637
0.00125261
0.00122358
0.00124626
0.00130571
0.00139234
0.00150508
0.00164176
0.00179978
0.0019767
0.00217007
0.00237748
0.0025965
0.00282473
0.00305975
0.00329918
0.00354062
0.0037817
0.00402007
0.00425341
0.00447944
0.00469593
0.00490072
0.00509173
0.00526697
0.00542457
0.00556282
0.00568014
0.00577515
0.00584666
0.00589371
0.00591559
0.00591184
0.00588227
0.00582696
0.0057463
0.00564096
0.00551191
0.00536039
0.00518793
0.00499629
0.00478751
0.00456382
0.00432767
0.00408167
0.00382855
0.00357116
0.00331243
0.00305529
0.00280272
0.00255767
0.00232303
0.00210165
0.00189626
0.00170951
0.00154393
0.00140193
0.00128582
0.00119791
0.00114008
0.00111292
0.00112479
0.00119052
0.00122579
0.0016038
0.001685
0.00167505
0.0017201
0.001804
0.00191397
0.00204914
0.00220727
0.00238553
0.0025813
0.00279197
0.00301495
0.00324768
0.00348762
0.00373224
0.00397907
0.00422564
0.00446952
0.00470834
0.00493977
0.00516153
0.00537143
0.00556737
0.00574734
0.00590945
0.00605194
0.00617323
0.0062719
0.00634673
0.00639672
0.0064211
0.00641937
0.00639131
0.00633693
0.00625654
0.0061508
0.00602062
0.00586722
0.0056921
0.00549699
0.00528389
0.00505505
0.00481287
0.00456003
0.0042993
0.00403357
0.00376584
0.00349912
0.00323648
0.00298094
0.00273548
0.00250304
0.00228643
0.00208835
0.00191139
0.00175797
0.00163036
0.00153073
0.00146123
0.00142343
0.00141725
0.00145399
0.00154922
0.00155569
0.00194451
0.0021015
0.00211055
0.00217744
0.002285
0.00241727
0.0025736
0.00275168
0.00294851
0.00316129
0.00338729
0.00362376
0.00386804
0.00411747
0.00436944
0.00462139
0.00487082
0.00511528
0.00535238
0.00557979
0.00579528
0.00599672
0.00618207
0.00634941
0.00649698
0.00662314
0.00672644
0.00680565
0.00685971
0.00688781
0.00688936
0.00686415
0.00681213
0.00673352
0.00662882
0.00649897
0.00634518
0.00616891
0.00597187
0.00575599
0.00552345
0.00527671
0.00501831
0.00475111
0.00447804
0.00420212
0.00392646
0.00365417
0.00338837
0.00313213
0.00288846
0.00266028
0.00245036
0.00226134
0.00209571
0.00195578
0.00184367
0.00176137
0.00171087
0.00169338
0.00170816
0.00176948
0.00189346
0.0018693
0.00226541
0.0024983
0.00252605
0.00261406
0.00274426
0.00289756
0.00307355
0.00326991
0.00348345
0.00371125
0.00395045
0.00419821
0.00445175
0.00470835
0.00496532
0.00522008
0.00547009
0.00571289
0.0059461
0.00616744
0.00637474
0.00656592
0.00673904
0.00689229
0.00702406
0.00713281
0.00721726
0.00727639
0.00730932
0.00731539
0.00729422
0.00724597
0.00717065
0.00706862
0.00694044
0.00678758
0.00661151
0.00641402
0.00619698
0.0059624
0.00571264
0.00545041
0.00517826
0.00489925
0.00461639
0.00433282
0.00405173
0.00377633
0.00350976
0.00325512
0.00301542
0.00279351
0.00259213
0.00241383
0.00226098
0.00213575
0.0020401
0.00197581
0.00194471
0.00194761
0.00198316
0.00206851
0.0022202
0.00216383
0.00256363
0.00287168
0.0029177
0.0030259
0.00317749
0.00335035
0.00354432
0.00375708
0.00398531
0.00422598
0.00447613
0.00473285
0.00499329
0.00525467
0.00551427
0.00576947
0.00601776
0.00625667
0.00648388
0.00669716
0.00689443
0.0070737
0.00723314
0.00737105
0.00748589
0.00757619
0.00764104
0.00767972
0.00769139
0.00767572
0.00763229
0.00756168
0.00746394
0.00733937
0.00718838
0.00701347
0.00681657
0.00659971
0.00636485
0.00611404
0.00584966
0.00557459
0.00529117
0.00500308
0.00471315
0.00442457
0.00414064
0.00386462
0.0035997
0.00334895
0.00311534
0.00290169
0.00271063
0.00254461
0.00240586
0.00229641
0.00221801
0.00217224
0.00216073
0.00218393
0.00223983
0.00234842
0.0025265
0.00243675
0.00283659
0.00321812
0.0032818
0.00340908
0.0035806
0.00377137
0.00398147
0.0042086
0.00444935
0.0047006
0.00495935
0.00522262
0.00548751
0.00575123
0.00601104
0.00626433
0.00650861
0.00674151
0.00696075
0.0071641
0.0073495
0.00751529
0.00765997
0.00778147
0.00787809
0.00794868
0.00799305
0.00801039
0.00800012
0.00796133
0.00789401
0.0078039
0.0076856
0.00753998
0.00736505
0.00716806
0.00695153
0.00671825
0.00646963
0.00620655
0.00593001
0.00564809
0.0053562
0.00506165
0.00476744
0.00447656
0.00419244
0.00391834
0.00365746
0.00341285
0.00318743
0.00298393
0.00280488
0.00265259
0.00252914
0.00243637
0.00237586
0.00234895
0.00235705
0.00240024
0.00247588
0.0026067
0.00280956
0.00268576
0.00308197
0.00353428
0.0036149
0.00375997
0.00394978
0.00415662
0.00438083
0.00462017
0.00487114
0.00513059
0.00539548
0.00566282
0.00592969
0.00619329
0.00645092
0.0067
0.00693806
0.00716292
0.00737244
0.00756399
0.00773545
0.00788568
0.00801394
0.00811711
0.00819447
0.00824385
0.00826502
0.00826263
0.00822851
0.0081583
0.00805565
0.00796651
0.00783663
0.00767447
0.00748497
0.00727341
0.00704212
0.00679363
0.0065281
0.00624451
0.00593804
0.00565866
0.00536841
0.00507402
0.00477885
0.00448834
0.00420667
0.00393703
0.00368257
0.00344632
0.00323111
0.00303956
0.00287409
0.00273684
0.00262974
0.00255443
0.00251226
0.00250436
0.00253191
0.00259459
0.00268916
0.00284096
0.00306672
0.00290882
0.00329775
0.00381708
0.00391379
0.00407522
0.00428149
0.00450241
0.00473858
0.00498783
0.00524663
0.00551181
0.00578034
0.00604923
0.00631561
0.00657671
0.00682987
0.00707257
0.00730206
0.00751648
0.00771371
0.00789106
0.00804743
0.0081806
0.00828957
0.008371
0.00842996
0.00845239
0.00843671
0.0084383
0.00839125
0.00831256
0.00820539
0.00807655
0.00792078
0.00773934
0.00753407
0.00730776
0.00706287
0.00680172
0.00652638
0.00623876
0.00594124
0.00564003
0.00531833
0.00503691
0.00474687
0.00445986
0.00418324
0.00392052
0.00367481
0.00344905
0.00324597
0.00306808
0.00291763
0.00279662
0.00270676
0.0026495
0.00262597
0.00263704
0.00268367
0.00276516
0.00287769
0.00304899
0.00329549
0.00310416
0.00348218
0.00406369
0.00417555
0.00435176
0.0045725
0.00480538
0.00505125
0.00530803
0.00557218
0.00584055
0.00611018
0.00637822
0.0066417
0.00689783
0.00714398
0.00737763
0.00759596
0.00779768
0.00798042
0.00814232
0.00828074
0.00839474
0.00848026
0.00852228
0.00858918
0.00860322
0.0085867
0.00854673
0.00847713
0.00837943
0.00825462
0.00810455
0.00792996
0.00773191
0.0075121
0.00727281
0.00701642
0.00674535
0.00646203
0.00616914
0.00586975
0.00556662
0.00526109
0.00495921
0.00466981
0.00439095
0.0041225
0.00386898
0.00363423
0.00342099
0.00323186
0.0030692
0.00293508
0.00283132
0.00275944
0.00272066
0.00271587
0.0027457
0.00281087
0.0029103
0.00303963
0.00322875
0.00349358
0.00327026
0.00363385
0.0042716
0.00439756
0.00458687
0.00481995
0.00506256
0.00531577
0.00557763
0.00584462
0.00611374
0.00638205
0.0066467
0.00690468
0.00715299
0.00738925
0.00761126
0.00781659
0.00800317
0.00816914
0.00831221
0.00842963
0.00852583
0.00860689
0.00865128
0.00867479
0.00866778
0.008633
0.00857058
0.00848097
0.00836445
0.00822201
0.00805501
0.00786466
0.00765247
0.00742029
0.00717027
0.00690478
0.00662637
0.00633768
0.00604153
0.00574098
0.00543909
0.00513871
0.00484224
0.00455147
0.00427892
0.004024
0.00378288
0.00356113
0.00336231
0.00318881
0.0030428
0.00292617
0.00284053
0.00278719
0.00276714
0.00278103
0.00282924
0.00291222
0.00302854
0.00317337
0.00337843
0.00365895
0.00340588
0.00375161
0.00443861
0.00457756
0.00477819
0.00502136
0.00527137
0.00552951
0.00579397
0.00606138
0.00632894
0.00659346
0.00685166
0.00710091
0.00733887
0.00756288
0.00777095
0.00796059
0.00812782
0.00827566
0.00839871
0.00851158
0.00859274
0.00864784
0.0086748
0.00867518
0.00864791
0.00859332
0.00851186
0.00840387
0.00827015
0.00811168
0.00792978
0.00772594
0.00750191
0.00725964
0.00700132
0.00672938
0.0064464
0.00615514
0.00585848
0.00555941
0.00526105
0.00496631
0.00467832
0.00439812
0.004119
0.00388714
0.00366266
0.0034562
0.00327345
0.00311709
0.00298899
0.00289084
0.00282402
0.00278961
0.00278837
0.00282069
0.0028867
0.0029866
0.00311861
0.00327747
0.0034964
0.00378978
0.00351005
0.00383464
0.00456291
0.00471363
0.00492372
0.00517463
0.00542966
0.00569031
0.00595484
0.00622038
0.00648369
0.00674075
0.0069901
0.00722816
0.00745339
0.00766345
0.00785559
0.00802468
0.00815513
0.00830992
0.00842386
0.00851079
0.00857111
0.00860489
0.00861167
0.00859185
0.00854505
0.00847162
0.00837208
0.00824712
0.00809764
0.00792479
0.00772998
0.00751487
0.0072813
0.00703135
0.00676729
0.00649158
0.00620685
0.00591587
0.00562153
0.0053268
0.00503473
0.00474836
0.00447068
0.00420435
0.00395112
0.00371739
0.00350922
0.00332018
0.0031551
0.00301717
0.00290808
0.00282922
0.00278174
0.00276647
0.00278393
0.00283427
0.00291734
0.00303311
0.00317945
0.00335075
0.0035813
0.00388456
0.00358203
0.00388241
0.00464305
0.00480426
0.00502188
0.00527813
0.00553576
0.00579651
0.00605888
0.00631951
0.00657527
0.00682298
0.00706031
0.00728548
0.00749624
0.0076896
0.00786243
0.00801394
0.00815415
0.00827137
0.00836152
0.00842654
0.0084659
0.00847903
0.00846571
0.00842613
0.00836042
0.00826902
0.00815261
0.00801203
0.00784838
0.00766294
0.00745726
0.00723308
0.00699236
0.00673725
0.00647008
0.00619333
0.00590965
0.0056218
0.00533264
0.00504509
0.00476212
0.0044867
0.00422179
0.00397017
0.00373446
0.00351737
0.00332517
0.00315378
0.00300811
0.00288981
0.0028006
0.00274165
0.00271384
0.00271774
0.00275363
0.00282138
0.00292063
0.00305105
0.00321023
0.00339225
0.00363202
0.00394209
0.00362137
0.00389474
0.00467791
0.00484821
0.0050715
0.00533071
0.00558859
0.00584697
0.00610424
0.00635695
0.00660241
0.00683814
0.00706235
0.0072726
0.00746589
0.00763901
0.00779716
0.00793862
0.00805588
0.00814869
0.00821717
0.00826081
0.008279
0.00827148
0.00823823
0.00817949
0.00809564
0.0079873
0.00785527
0.00770059
0.00752448
0.00732838
0.00711393
0.00688298
0.00663755
0.00637985
0.00611222
0.00583718
0.00555735
0.00527545
0.00499428
0.00471669
0.00444553
0.00418365
0.00393387
0.0036989
0.00348129
0.0032831
0.00310517
0.00295784
0.0028335
0.0027359
0.00266725
0.00262866
0.00262066
0.00264359
0.00269744
0.00278187
0.00289622
0.00303995
0.00321035
0.00340129
0.00364748
0.00396181
0.00362784
0.00387148
0.00466696
0.00484462
0.00507187
0.00533176
0.00558746
0.00584081
0.00609004
0.00633229
0.00656539
0.0067875
0.00699621
0.00718854
0.00736094
0.00752037
0.00766231
0.00778047
0.00787507
0.00794612
0.00799287
0.0080149
0.00801196
0.00798403
0.00793127
0.00785407
0.00775302
0.00762888
0.00748264
0.00731547
0.00712874
0.00692399
0.00670298
0.0064676
0.00621994
0.00596224
0.00569684
0.00542624
0.00515302
0.00487983
0.00460939
0.00434442
0.00408767
0.00384182
0.00360951
0.0033933