/*--------------------------------*- C++ -*----------------------------------*\
| =========                 |                                                 |
| \\      /  F ield         | OpenFOAM: The Open Source CFD Toolbox           |
|  \\    /   O peration     | Version:  3.0.0                                 |
|   \\  /    A nd           | Web:      www.OpenFOAM.org                      |
|    \\/     M anipulation  |                                                 |
\*---------------------------------------------------------------------------*/
FoamFile
{
    version     2.0;
    format      ascii;
    class       volScalarField;
    location    "0.021";
    object      p;
}
// * * * * * * * * * * * * * * * * * * * * * * * * * * * * * * * * * * * * * //

dimensions      [1 -1 -2 0 0 0 0];

internalField   nonuniform List<scalar> 
1000
(
38708.2
38700.7
38693.8
38687.7
38681.7
38675.5
38669.2
38663
38656.7
38650.4
38644.1
38637.8
38631.5
38625.2
38618.8
38612.4
38606
38599.6
38593.2
38586.7
38580.3
38573.8
38567.3
38560.8
38554.3
38547.7
38541.1
38534.6
38528
38521.3
38514.7
38508.1
38501.4
38494.7
38488
38481.3
38474.5
38467.8
38461
38454.2
38447.4
38440.6
38433.7
38426.9
38420
38413.1
38406.2
38399.2
38392.3
38385.3
38378.3
38371.3
38364.3
38357.2
38350.2
38343.1
38336
38328.9
38321.7
38314.6
38307.4
38300.2
38293
38285.7
38278.5
38271.2
38263.9
38256.6
38249.3
38241.9
38234.6
38227.2
38219.7
38212.3
38204.9
38197.4
38189.9
38182.4
38174.9
38167.3
38159.7
38152.2
38144.5
38136.9
38129.3
38121.6
38113.9
38106.2
38098.4
38090.7
38082.9
38075.1
38067.3
38059.5
38051.6
38043.7
38035.8
38027.9
38020
38012
38004
37996
37988
37979.9
37971.8
37963.8
37955.6
37947.5
37939.3
37931.2
37923
37914.7
37906.5
37898.2
37889.9
37881.6
37873.3
37864.9
37856.5
37848.1
37839.7
37831.2
37822.7
37814.2
37805.7
37797.2
37788.6
37780
37771.4
37762.8
37754.1
37745.4
37736.7
37728
37719.3
37710.5
37701.7
37692.9
37684.1
37675.2
37666.3
37657.4
37648.5
37639.5
37630.5
37621.5
37612.5
37603.4
37594.3
37585.2
37576
37566.9
37557.7
37548.4
37539.2
37529.9
37520.6
37511.3
37502
37492.6
37483.2
37473.8
37464.3
37454.9
37445.4
37435.8
37426.3
37416.7
37407.1
37397.5
37387.8
37378.1
37368.4
37358.7
37348.9
37339.1
37329.3
37319.4
37309.5
37299.6
37289.7
37279.7
37269.8
37259.7
37249.7
37239.6
37229.5
37219.4
37209.2
37199
37188.8
37178.6
37168.3
37158
37147.6
37137.3
37126.9
37116.4
37106
37095.5
37085
37074.4
37063.8
37053.2
37042.6
37031.9
37021.2
37010.4
36999.7
36988.9
36978
36967.1
36956.2
36945.3
36934.3
36923.3
36912.3
36901.2
36890.1
36879
36867.8
36856.6
36845.3
36834.1
36822.7
36811.4
36800
36788.6
36777.1
36765.6
36754.1
36742.5
36730.9
36719.3
36707.6
36695.9
36684.1
36672.3
36660.5
36648.6
36636.7
36624.7
36612.7
36600.7
36588.6
36576.5
36564.3
36552.1
36539.8
36527.5
36515.2
36502.8
36490.4
36477.9
36465.4
36452.8
36440.2
36427.6
36414.9
36402.1
36389.3
36376.5
36363.6
36350.6
36337.7
36324.6
36311.5
36298.4
36285.2
36271.9
36258.6
36245.3
36231.8
36218.4
36204.9
36191.3
36177.6
36163.9
36150.2
36136.4
36122.5
36108.6
36094.6
36080.5
36066.4
36052.2
36037.9
36023.6
36009.2
35994.8
35980.2
35965.6
35951
35936.2
35921.4
35906.5
35891.5
35876.5
35861.4
35846.2
35830.9
35815.5
35800
35784.5
35768.8
35753.1
35737.3
35721.4
35705.4
35689.3
35673.1
35656.8
35640.4
35623.9
35607.2
35590.5
35573.7
35556.7
35539.6
35522.4
35505.1
35487.7
35470.1
35452.4
35434.5
35416.5
35398.4
35380.2
35361.7
35343.2
35324.5
35305.6
35286.5
35267.3
35247.9
35228.4
35208.7
35188.7
35168.6
35148.3
35127.8
35107.1
35086.2
35065.1
35043.8
35022.2
35000.4
34978.4
34956.2
34933.7
34910.9
34887.9
34864.6
34841.1
34817.3
34793.2
34768.8
34744.2
34719.2
34694
34668.4
34642.5
34616.3
34589.8
34562.9
34535.7
34508.2
34480.3
34452
34423.4
34394.4
34365.1
34335.4
34305.3
34274.8
34244
34212.8
34181.1
34149.1
34116.7
34083.9
34050.6
34017
33983
33948.6
33913.8
33878.6
33842.9
33806.9
33770.5
33733.8
33696.6
33659
33621.1
33582.8
33544.2
33505.2
33465.8
33426.1
33386.1
33345.8
33305.1
33264.2
33222.9
33181.4
33139.7
33097.7
33055.4
33012.9
32970.3
32927.4
32884.4
32841.2
32797.8
32754.4
32710.8
32667.2
32623.4
32579.6
32535.8
32492
32448.2
32404.3
32360.6
32316.9
32273.2
32229.7
32186.2
32143
32099.8
32056.9
32014.1
31971.5
31929.2
31887.1
31845.3
31803.8
31762.6
31721.7
31681.2
31641
31601.3
31561.9
31522.9
31484.4
31446.4
31408.8
31371.7
31335.2
31299.1
31263.7
31228.7
31194.4
31160.7
31127.6
31095.1
31063.3
31032.1
31001.7
30971.9
30942.8
30914.5
30886.8
30860
30833.8
30808.5
30783.9
30760.1
30737.1
30714.8
30693.4
30672.7
30652.9
30633.8
30615.5
30598
30581.3
30565.4
30550.2
30535.8
30522.1
30509.1
30496.9
30485.3
30474.5
30464.3
30454.7
30445.8
30437.4
30429.6
30422.4
30415.7
30409.5
30403.8
30398.6
30393.7
30389.3
30385.3
30381.6
30378.2
30375.2
30372.5
30370
30367.7
30365.7
30363.9
30362.3
30360.9
30359.6
30358.5
30357.5
30356.6
30355.8
30355.1
30354.5
30354
30353.5
30353.1
30352.8
30352.5
30352.2
30352
30351.8
30351.6
30351.5
30351.4
30351.3
30351.2
30351.1
30351
30351
30350.9
30350.9
30350.8
30350.8
30350.8
30350.7
30350.7
30350.7
30350.7
30350.7
30350.7
30350.6
30350.6
30350.6
30350.6
30350.6
30350.6
30350.6
30350.6
30350.6
30350.6
30350.6
30350.5
30350.5
30350.5
30350.5
30350.5
30350.5
30350.5
30350.5
30350.5
30350.5
30350.5
30350.5
30350.5
30350.5
30350.4
30350.4
30350.4
30350.4
30350.4
30350.4
30350.4
30350.4
30350.4
30350.4
30350.4
30350.4
30350.4
30350.4
30350.4
30350.4
30350.3
30350.3
30350.3
30350.3
30350.3
30350.3
30350.3
30350.3
30350.3
30350.3
30350.3
30350.3
30350.3
30350.3
30350.3
30350.3
30350.3
30350.3
30350.3
30350.3
30350.3
30350.3
30350.3
30350.3
30350.3
30350.3
30350.3
30350.3
30350.3
30350.3
30350.3
30350.3
30350.3
30350.3
30350.3
30350.3
30350.3
30350.3
30350.3
30350.3
30350.3
30350.3
30350.3
30350.3
30350.3
30350.3
30350.2
30350.2
30350.2
30350.2
30350.2
30350.2
30350.2
30350.2
30350.2
30350.2
30350.2
30350.2
30350.2
30350.2
30350.2
30350.2
30350.2
30350.2
30350.2
30350.2
30350.2
30350.2
30350.2
30350.2
30350.2
30350.2
30350.2
30350.2
30350.2
30350.2
30350.2
30350.2
30350.2
30350.2
30350.1
30350.1
30350.1
30350.1
30350.1
30350.1
30350.1
30350.1
30350.1
30350.1
30350.1
30350.1
30350.1
30350.1
30350.1
30350.1
30350.1
30350.1
30350.1
30350.1
30350.1
30350.1
30350.1
30350.1
30350.1
30350.1
30350.1
30350.1
30350.1
30350.1
30350.1
30350.1
30350.1
30350.1
30350.1
30350.1
30350.1
30350.1
30350.1
30350.1
30350.1
30350.1
30350.1
30350.1
30350.1
30350.1
30350
30350
30350
30350
30350
30350
30350
30350
30350
30350
30350
30350
30350
30350
30350
30350
30350
30350
30350
30350
30350
30350
30350
30350
30350
30350
30350
30350
30350
30350
30350
30350
30350
30350
30350
30350
30350
30350
30350
30350
30350
30350
30350
30350
30350
30350
30350
30350
30350
30350
30350
30350
30350
30350
30350
30350
30350
30350
30350
30350
30350
30350
30350
30350
30350
30350
30350
30350
30350
30350
30350
30350
30350
30350
30350
30350
30350
30350
30349.9
30349.9
30349.9
30349.9
30349.9
30349.9
30349.9
30349.9
30349.9
30349.9
30349.9
30349.9
30349.9
30349.9
30349.9
30349.9
30349.9
30349.9
30349.9
30349.9
30349.9
30349.9
30349.9
30349.9
30349.9
30349.9
30349.9
30349.9
30349.9
30349.9
30349.9
30349.9
30349.9
30349.9
30349.9
30349.9
30349.9
30349.9
30349.9
30349.9
30349.9
30349.9
30349.9
30349.9
30349.9
30349.9
30349.9
30349.9
30349.9
30349.9
30349.9
30349.9
30349.9
30349.9
30349.9
30349.9
30349.9
30349.9
30349.9
30349.9
30349.9
30349.9
30349.9
30349.9
30349.9
30349.9
30349.9
30349.9
30349.9
30349.9
30349.9
30349.9
30349.9
30349.9
30349.9
30349.9
30349.9
30349.9
30349.9
30349.9
30349.9
30349.9
30349.9
30349.9
30349.9
30349.9
30349.9
30349.9
30350
30350
30350
30350.1
30350.1
30350.2
30350.3
30350.4
30350.6
30350.7
30350.9
30351.2
30351.5
30351.8
30352.2
30352.7
30353.3
30354
30354.8
30355.8
30356.9
30358.2
30359.6
30361.3
30363.1
30365.3
30367.7
30370.4
30373.4
30376.7
30380.4
30384.4
30388.8
30393.6
30398.8
30404.3
30410.2
30416.5
30423.2
30430.2
30437.5
30445.2
30453
30461.1
30469.4
30477.9
30486.4
30494.9
30503.5
30512
30520.4
30528.6
30536.6
30544.4
30552
30559.2
30566.1
30572.6
30578.7
30584.5
30589.8
30594.8
30599.4
30603.5
30607.3
30610.7
30613.8
30616.5
30619
30621.1
30623
30624.7
30626.1
30627.3
30628.4
30629.3
30630
30630.7
30631.3
30631.7
30632.1
30632.5
30632.8
30633
30633.3
30633.5
30633.7
30633.8
30634
30634.2
30634.3
30634.4
30634.6
30634.7
30634.8
30634.9
30634.9
30634.9
30634.9
30634.9
30634.8
30634.6
30634.4
30634
30633.6
30633.1
30632.4
30631.7
30631
30630.1
30629.2
30628.3
30627.3
30626.4
30625.5
30624.6
30623.8
30623.1
30622.4
30621.9
30621.4
30621.1
30620.8
30620.7
30620.5
)
;

boundaryField
{
    sides
    {
        type            zeroGradient;
    }
    empty
    {
        type            empty;
    }
}


// ************************************************************************* //
