/*--------------------------------*- C++ -*----------------------------------*\
| =========                 |                                                 |
| \\      /  F ield         | OpenFOAM: The Open Source CFD Toolbox           |
|  \\    /   O peration     | Version:  3.0.0                                 |
|   \\  /    A nd           | Web:      www.OpenFOAM.org                      |
|    \\/     M anipulation  |                                                 |
\*---------------------------------------------------------------------------*/
FoamFile
{
    version     2.0;
    format      ascii;
    class       surfaceScalarField;
    location    "0.021";
    object      phi;
}
// * * * * * * * * * * * * * * * * * * * * * * * * * * * * * * * * * * * * * //

dimensions      [1 0 -1 0 0 0 0];

internalField   nonuniform List<scalar> 
999
(
16.4566
17.7958
19.1337
20.472
21.8118
23.1529
24.4945
25.8363
27.1787
28.5215
29.8641
31.2066
32.5489
33.8911
35.2332
36.5751
37.917
39.2587
40.6003
41.9417
43.283
44.6242
45.9653
47.3062
48.647
49.9876
51.3281
52.6685
54.0087
55.3488
56.6887
58.0284
59.368
60.7075
62.0467
63.3859
64.7248
66.0636
67.4022
68.7407
70.0789
71.417
72.7549
74.0927
75.4302
76.7676
78.1048
79.4418
80.7786
82.1152
83.4516
84.7879
86.1239
87.4597
88.7953
90.1307
91.4659
92.8009
94.1357
95.4702
96.8046
98.1387
99.4726
100.806
102.14
103.473
104.806
106.139
107.471
108.803
110.135
111.467
112.799
114.13
115.461
116.792
118.122
119.453
120.783
122.112
123.442
124.771
126.1
127.429
128.757
130.085
131.413
132.74
134.068
135.395
136.721
138.048
139.374
140.7
142.025
143.35
144.675
146
147.324
148.648
149.971
151.295
152.617
153.94
155.262
156.584
157.906
159.227
160.548
161.869
163.189
164.509
165.829
167.148
168.467
169.785
171.103
172.421
173.738
175.055
176.372
177.688
179.004
180.32
181.635
182.949
184.264
185.578
186.891
188.204
189.517
190.829
192.141
193.452
194.763
196.074
197.384
198.694
200.003
201.312
202.62
203.928
205.236
206.542
207.849
209.155
210.461
211.766
213.071
214.375
215.679
216.983
218.286
219.588
220.89
222.191
223.492
224.793
226.093
227.392
228.691
229.989
231.287
232.585
233.881
235.178
236.473
237.768
239.063
240.356
241.651
242.943
244.236
245.528
246.818
248.109
249.399
250.689
251.978
253.266
254.554
255.841
257.127
258.413
259.698
260.983
262.267
263.55
264.833
266.115
267.396
268.677
269.957
271.237
272.515
273.794
275.071
276.348
277.624
278.899
280.173
281.447
282.72
283.993
285.265
286.536
287.806
289.075
290.344
291.612
292.879
294.145
295.411
296.676
297.94
299.203
300.465
301.727
302.987
304.247
305.506
306.764
308.022
309.278
310.533
311.788
313.042
314.295
315.547
316.798
318.048
319.297
320.545
321.792
323.038
324.284
325.528
326.771
328.014
329.255
330.495
331.734
332.972
334.209
335.445
336.68
337.914
339.147
340.378
341.608
342.838
344.066
345.293
346.518
347.743
348.966
350.188
351.409
352.628
353.847
355.064
356.279
357.494
358.707
359.918
361.129
362.337
363.545
364.751
365.955
367.159
368.36
369.56
370.759
371.956
373.152
374.345
375.538
376.728
377.917
379.105
380.29
381.474
382.656
383.837
385.015
386.192
387.367
388.54
389.711
390.88
392.047
393.212
394.375
395.536
396.694
397.851
399.005
400.157
401.307
402.454
403.6
404.742
405.882
407.02
408.155
409.288
410.418
411.545
412.669
413.791
414.91
416.026
417.138
418.248
419.355
420.458
421.558
422.655
423.748
424.838
425.925
427.007
428.086
429.162
430.233
431.3
432.363
433.422
434.477
435.527
436.573
437.615
438.651
439.683
440.71
441.731
442.748
443.759
444.765
445.765
446.76
447.749
448.732
449.708
450.679
451.643
452.6
453.551
454.494
455.431
456.361
457.283
458.197
459.104
460.003
460.894
461.776
462.65
463.516
464.373
465.22
466.059
466.888
467.708
468.518
469.318
470.108
470.888
471.657
472.416
473.164
473.902
474.628
475.342
476.046
476.738
477.418
478.087
478.743
479.388
480.02
480.64
481.248
481.843
482.426
482.996
483.554
484.099
484.632
485.152
485.659
486.153
486.635
487.104
487.561
488.005
488.437
488.857
489.264
489.659
490.042
490.414
490.773
491.121
491.458
491.784
492.098
492.402
492.695
492.978
493.251
493.513
493.766
494.01
494.244
494.47
494.687
494.895
495.095
495.287
495.472
495.649
495.819
495.981
496.138
496.287
496.431
496.569
496.7
496.827
496.948
497.064
497.175
497.281
497.383
497.48
497.574
497.663
497.749
497.831
497.91
497.985
498.057
498.126
498.193
498.256
498.317
498.375
498.431
498.484
498.535
498.584
498.63
498.675
498.718
498.758
498.797
498.835
498.87
498.904
498.936
498.967
498.996
499.024
499.051
499.076
499.099
499.122
499.143
499.163
499.182
499.2
499.217
499.233
499.247
499.261
499.274
499.286
499.297
499.308
499.318
499.327
499.335
499.342
499.349
499.356
499.362
499.367
499.372
499.376
499.38
499.384
499.387
499.39
499.393
499.395
499.397
499.399
499.4
499.402
499.403
499.404
499.405
499.405
499.406
499.407
499.407
499.407
499.408
499.408
499.408
499.408
499.408
499.408
499.408
499.408
499.408
499.408
499.408
499.407
499.407
499.407
499.407
499.407
499.407
499.406
499.406
499.406
499.406
499.405
499.405
499.405
499.405
499.405
499.404
499.404
499.404
499.404
499.403
499.403
499.403
499.403
499.402
499.402
499.402
499.402
499.401
499.401
499.401
499.401
499.4
499.4
499.4
499.4
499.399
499.399
499.399
499.399
499.398
499.398
499.398
499.398
499.397
499.397
499.397
499.397
499.396
499.396
499.396
499.396
499.395
499.395
499.395
499.395
499.394
499.394
499.394
499.393
499.393
499.393
499.393
499.392
499.392
499.392
499.391
499.391
499.391
499.391
499.39
499.39
499.39
499.389
499.389
499.389
499.389
499.388
499.388
499.388
499.387
499.387
499.387
499.386
499.386
499.386
499.385
499.385
499.385
499.385
499.384
499.384
499.384
499.383
499.383
499.383
499.382
499.382
499.382
499.381
499.381
499.381
499.38
499.38
499.38
499.379
499.379
499.379
499.378
499.378
499.378
499.377
499.377
499.377
499.376
499.376
499.376
499.375
499.375
499.375
499.374
499.374
499.374
499.373
499.373
499.372
499.372
499.372
499.371
499.371
499.371
499.37
499.37
499.369
499.369
499.369
499.368
499.368
499.368
499.367
499.367
499.366
499.366
499.366
499.365
499.365
499.364
499.364
499.364
499.363
499.363
499.362
499.362
499.362
499.361
499.361
499.36
499.36
499.36
499.359
499.359
499.358
499.358
499.358
499.357
499.357
499.356
499.356
499.355
499.355
499.354
499.354
499.354
499.353
499.353
499.352
499.352
499.351
499.351
499.35
499.35
499.349
499.349
499.349
499.348
499.348
499.347
499.347
499.346
499.346
499.345
499.345
499.344
499.344
499.343
499.343
499.342
499.342
499.341
499.341
499.34
499.34
499.339
499.339
499.338
499.338
499.337
499.337
499.336
499.336
499.335
499.334
499.334
499.333
499.333
499.332
499.332
499.331
499.331
499.33
499.33
499.329
499.328
499.328
499.327
499.327
499.326
499.326
499.325
499.324
499.324
499.323
499.323
499.322
499.321
499.321
499.32
499.319
499.319
499.318
499.318
499.317
499.316
499.316
499.315
499.314
499.314
499.313
499.312
499.312
499.311
499.31
499.31
499.309
499.308
499.308
499.307
499.306
499.306
499.305
499.304
499.304
499.303
499.302
499.301
499.301
499.3
499.299
499.299
499.298
499.297
499.296
499.296
499.295
499.294
499.293
499.292
499.292
499.291
499.29
499.289
499.289
499.288
499.287
499.286
499.285
499.285
499.284
499.283
499.282
499.281
499.28
499.279
499.279
499.278
499.277
499.276
499.275
499.274
499.273
499.272
499.272
499.271
499.27
499.269
499.268
499.267
499.266
499.265
499.264
499.263
499.262
499.261
499.26
499.259
499.258
499.257
499.256
499.255
499.254
499.253
499.252
499.251
499.25
499.249
499.248
499.247
499.246
499.245
499.243
499.242
499.241
499.24
499.239
499.238
499.237
499.235
499.234
499.233
499.232
499.231
499.23
499.228
499.227
499.226
499.225
499.223
499.222
499.221
499.219
499.218
499.217
499.216
499.214
499.213
499.211
499.21
499.209
499.207
499.206
499.204
499.203
499.201
499.199
499.198
499.196
499.194
499.192
499.19
499.188
499.186
499.183
499.181
499.178
499.175
499.172
499.169
499.165
499.161
499.157
499.153
499.148
499.143
499.137
499.131
499.125
499.118
499.111
499.104
499.096
499.087
499.079
499.07
499.06
499.05
499.041
499.03
499.02
499.01
498.999
498.988
498.978
498.967
498.957
498.947
498.937
498.927
498.918
498.909
498.9
498.892
498.884
498.876
498.869
498.862
498.856
498.85
498.844
498.839
498.834
498.829
498.824
498.82
498.816
498.812
498.809
498.805
498.802
498.798
498.795
498.792
498.789
498.785
498.782
498.779
498.776
498.773
498.769
498.766
498.763
498.759
498.756
498.753
498.749
498.746
498.742
498.738
498.735
498.731
498.728
498.724
498.72
498.717
498.713
498.709
498.706
498.702
498.698
498.695
498.691
498.688
498.685
498.681
498.678
498.675
498.671
498.668
498.664
498.66
498.656
498.652
498.648
498.643
498.638
498.633
498.628
498.622
498.617
498.611
498.605
)
;

boundaryField
{
    sides
    {
        type            calculated;
        value           nonuniform List<scalar> 2(498.599 -15.1164);
    }
    empty
    {
        type            empty;
        value           nonuniform 0();
    }
}


// ************************************************************************* //
