/*--------------------------------*- C++ -*----------------------------------*\
| =========                 |                                                 |
| \\      /  F ield         | OpenFOAM: The Open Source CFD Toolbox           |
|  \\    /   O peration     | Version:  3.0.0                                 |
|   \\  /    A nd           | Web:      www.OpenFOAM.org                      |
|    \\/     M anipulation  |                                                 |
\*---------------------------------------------------------------------------*/
FoamFile
{
    version     2.0;
    format      ascii;
    class       volScalarField;
    location    "0.021";
    object      T;
}
// * * * * * * * * * * * * * * * * * * * * * * * * * * * * * * * * * * * * * //

dimensions      [0 0 0 1 0 0 0];

internalField   nonuniform List<scalar> 
1000
(
265.181
265.225
265.313
265.39
265.439
265.461
265.467
265.467
265.463
265.451
265.437
265.424
265.411
265.398
265.386
265.373
265.36
265.347
265.335
265.322
265.309
265.296
265.283
265.27
265.257
265.244
265.231
265.218
265.205
265.192
265.178
265.165
265.152
265.138
265.125
265.112
265.098
265.085
265.071
265.058
265.044
265.031
265.017
265.003
264.99
264.976
264.962
264.948
264.934
264.921
264.907
264.893
264.879
264.865
264.85
264.836
264.822
264.808
264.794
264.779
264.765
264.751
264.736
264.722
264.708
264.693
264.678
264.664
264.649
264.635
264.62
264.605
264.59
264.576
264.561
264.546
264.531
264.516
264.501
264.486
264.471
264.455
264.44
264.425
264.41
264.394
264.379
264.364
264.348
264.333
264.317
264.302
264.286
264.27
264.255
264.239
264.223
264.207
264.191
264.175
264.16
264.144
264.127
264.111
264.095
264.079
264.063
264.047
264.03
264.014
263.997
263.981
263.964
263.948
263.931
263.915
263.898
263.881
263.864
263.848
263.831
263.814
263.797
263.78
263.763
263.746
263.729
263.711
263.694
263.677
263.659
263.642
263.625
263.607
263.59
263.572
263.554
263.537
263.519
263.501
263.484
263.465
263.448
263.429
263.413
263.392
263.378
263.354
263.342
263.317
263.305
263.281
263.268
263.244
263.231
263.207
263.194
263.169
263.157
263.131
263.119
263.094
263.081
263.056
263.041
263.02
263
262.984
262.96
262.945
262.923
262.904
262.886
262.864
262.846
262.826
262.805
262.787
262.766
262.746
262.726
262.706
262.686
262.666
262.646
262.625
262.605
262.584
262.564
262.543
262.523
262.502
262.481
262.46
262.44
262.419
262.398
262.377
262.355
262.334
262.313
262.292
262.27
262.249
262.227
262.206
262.184
262.162
262.14
262.118
262.097
262.075
262.052
262.03
262.008
261.986
261.963
261.941
261.918
261.896
261.873
261.85
261.828
261.805
261.782
261.759
261.736
261.712
261.689
261.666
261.642
261.619
261.595
261.572
261.548
261.524
261.5
261.476
261.452
261.428
261.403
261.379
261.355
261.33
261.306
261.281
261.256
261.231
261.206
261.181
261.156
261.131
261.105
261.08
261.054
261.029
261.003
260.977
260.951
260.925
260.899
260.873
260.846
260.82
260.793
260.767
260.74
260.713
260.686
260.659
260.631
260.604
260.577
260.549
260.521
260.493
260.465
260.437
260.409
260.38
260.352
260.323
260.294
260.266
260.236
260.207
260.178
260.148
260.119
260.089
260.059
260.029
259.999
259.968
259.938
259.907
259.876
259.845
259.814
259.782
259.751
259.719
259.687
259.655
259.622
259.59
259.557
259.524
259.491
259.458
259.424
259.39
259.356
259.322
259.287
259.252
259.217
259.182
259.147
259.111
259.075
259.038
259.002
258.965
258.928
258.89
258.852
258.814
258.776
258.737
258.698
258.658
258.618
258.578
258.538
258.497
258.455
258.413
258.371
258.329
258.286
258.242
258.198
258.154
258.109
258.063
258.017
257.971
257.924
257.876
257.828
257.78
257.731
257.681
257.63
257.579
257.528
257.475
257.422
257.369
257.314
257.259
257.204
257.147
257.09
257.032
256.973
256.914
256.853
256.792
256.73
256.667
256.604
256.539
256.474
256.408
256.341
256.273
256.204
256.134
256.063
255.992
255.919
255.846
255.771
255.696
255.62
255.543
255.465
255.386
255.306
255.225
255.143
255.061
254.978
254.893
254.808
254.722
254.636
254.548
254.46
254.371
254.281
254.191
254.1
254.008
253.916
253.823
253.729
253.635
253.541
253.446
253.35
253.254
253.158
253.062
252.965
252.868
252.771
252.673
252.576
252.478
252.381
252.283
252.186
252.088
251.991
251.894
251.797
251.7
251.604
251.508
251.412
251.317
251.223
251.129
251.035
250.942
250.85
250.759
250.668
250.578
250.489
250.401
250.314
250.227
250.142
250.058
249.975
249.893
249.813
249.734
249.656
249.579
249.504
249.43
249.357
249.286
249.217
249.149
249.083
249.018
248.955
248.894
248.834
248.777
248.721
248.666
248.614
248.563
248.514
248.467
248.422
248.379
248.337
248.297
248.259
248.223
248.189
248.156
248.125
248.096
248.068
248.042
248.017
247.994
247.973
247.952
247.934
247.916
247.9
247.885
247.871
247.858
247.847
247.836
247.826
247.817
247.809
247.802
247.795
247.789
247.784
247.779
247.774
247.77
247.767
247.764
247.761
247.759
247.757
247.755
247.753
247.752
247.751
247.75
247.749
247.748
247.747
247.747
247.746
247.746
247.746
247.745
247.745
247.745
247.745
247.745
247.745
247.745
247.745
247.745
247.745
247.745
247.745
247.745
247.745
247.745
247.745
247.745
247.745
247.745
247.745
247.745
247.746
247.746
247.746
247.746
247.746
247.746
247.746
247.746
247.746
247.746
247.747
247.747
247.747
247.747
247.747
247.747
247.747
247.747
247.747
247.748
247.748
247.748
247.748
247.748
247.748
247.748
247.748
247.749
247.749
247.749
247.749
247.749
247.749
247.749
247.749
247.749
247.75
247.75
247.75
247.75
247.75
247.75
247.75
247.751
247.751
247.751
247.751
247.751
247.751
247.751
247.751
247.752
247.752
247.752
247.752
247.752
247.752
247.752
247.753
247.753
247.753
247.753
247.753
247.753
247.754
247.754
247.754
247.754
247.754
247.754
247.754
247.755
247.755
247.755
247.755
247.755
247.755
247.756
247.756
247.756
247.756
247.756
247.756
247.757
247.757
247.757
247.757
247.757
247.757
247.757
247.758
247.758
247.758
247.758
247.758
247.758
247.759
247.759
247.759
247.759
247.759
247.759
247.76
247.76
247.76
247.76
247.76
247.761
247.761
247.761
247.761
247.761
247.761
247.762
247.762
247.762
247.762
247.762
247.763
247.763
247.763
247.763
247.763
247.763
247.764
247.764
247.764
247.764
247.764
247.765
247.765
247.765
247.765
247.765
247.766
247.766
247.766
247.766
247.766
247.767
247.767
247.767
247.767
247.767
247.768
247.768
247.768
247.768
247.769
247.769
247.769
247.769
247.769
247.77
247.77
247.77
247.77
247.771
247.771
247.771
247.771
247.771
247.772
247.772
247.772
247.772
247.773
247.773
247.773
247.773
247.774
247.774
247.774
247.774
247.775
247.775
247.775
247.775
247.776
247.776
247.776
247.776
247.777
247.777
247.777
247.777
247.778
247.778
247.778
247.778
247.779
247.779
247.779
247.779
247.78
247.78
247.78
247.781
247.781
247.781
247.781
247.782
247.782
247.782
247.783
247.783
247.783
247.783
247.784
247.784
247.784
247.785
247.785
247.785
247.785
247.786
247.786
247.786
247.787
247.787
247.787
247.788
247.788
247.788
247.789
247.789
247.789
247.79
247.79
247.79
247.791
247.791
247.791
247.792
247.792
247.792
247.793
247.793
247.793
247.794
247.794
247.794
247.795
247.795
247.796
247.796
247.796
247.797
247.797
247.797
247.798
247.798
247.799
247.799
247.799
247.8
247.8
247.8
247.801
247.801
247.802
247.802
247.802
247.803
247.803
247.804
247.804
247.804
247.805
247.805
247.806
247.806
247.807
247.807
247.807
247.808
247.808
247.809
247.809
247.81
247.81
247.811
247.811
247.812
247.812
247.813
247.813
247.814
247.814
247.814
247.815
247.815
247.816
247.816
247.817
247.817
247.818
247.819
247.819
247.82
247.82
247.821
247.821
247.822
247.822
247.823
247.823
247.824
247.824
247.825
247.825
247.826
247.827
247.827
247.828
247.828
247.829
247.83
247.83
247.831
247.831
247.832
247.833
247.833
247.834
247.835
247.835
247.836
247.836
247.837
247.838
247.839
247.839
247.84
247.841
247.842
247.843
247.844
247.844
247.846
247.847
247.848
247.849
247.851
247.852
247.855
247.856
247.859
247.861
247.864
247.867
247.871
247.874
247.88
247.883
247.89
247.895
247.903
247.909
247.918
247.926
247.937
247.947
247.959
247.971
247.985
247.998
248.015
248.029
248.047
248.064
248.083
248.101
248.122
248.141
248.163
248.182
248.204
248.224
248.246
248.266
248.287
248.306
248.327
248.345
248.364
248.381
248.399
248.414
248.43
248.443
248.457
248.469
248.481
248.491
248.501
248.509
248.518
248.525
248.532
248.537
248.544
248.548
248.553
248.556
248.561
248.563
248.567
248.569
248.573
248.575
248.577
248.579
248.582
248.584
248.586
248.588
248.59
248.592
248.594
248.596
248.598
248.6
248.602
248.604
248.606
248.608
248.61
248.612
248.614
248.616
248.618
248.619
248.621
248.622
248.623
248.623
248.624
248.624
248.625
248.625
248.625
248.625
248.625
248.626
248.626
248.626
248.627
248.628
248.629
248.631
248.633
248.634
248.637
248.639
248.644
)
;

boundaryField
{
    sides
    {
        type            zeroGradient;
    }
    empty
    {
        type            empty;
    }
}


// ************************************************************************* //
