/*--------------------------------*- C++ -*----------------------------------*\
| =========                 |                                                 |
| \\      /  F ield         | OpenFOAM: The Open Source CFD Toolbox           |
|  \\    /   O peration     | Version:  3.0.0                                 |
|   \\  /    A nd           | Web:      www.OpenFOAM.org                      |
|    \\/     M anipulation  |                                                 |
\*---------------------------------------------------------------------------*/
FoamFile
{
    version     2.0;
    format      ascii;
    class       volVectorField;
    location    "0.021";
    object      U;
}
// * * * * * * * * * * * * * * * * * * * * * * * * * * * * * * * * * * * * * //

dimensions      [0 1 -1 0 0 0 0];

internalField   nonuniform List<vector> 
1000
(
(7.4558 0 0)
(8.39957 0 0)
(9.14621 0 0)
(9.78246 0 0)
(10.4265 0 0)
(11.0915 0 0)
(11.7606 0 0)
(12.4267 0 0)
(13.0911 0 0)
(13.7557 0 0)
(14.4207 0 0)
(15.0858 0 0)
(15.7509 0 0)
(16.4161 0 0)
(17.0815 0 0)
(17.7469 0 0)
(18.4124 0 0)
(19.0781 0 0)
(19.7438 0 0)
(20.4096 0 0)
(21.0755 0 0)
(21.7416 0 0)
(22.4077 0 0)
(23.0739 0 0)
(23.7402 0 0)
(24.4066 0 0)
(25.0732 0 0)
(25.7398 0 0)
(26.4065 0 0)
(27.0733 0 0)
(27.7402 0 0)
(28.4072 0 0)
(29.0743 0 0)
(29.7415 0 0)
(30.4088 0 0)
(31.0761 0 0)
(31.7436 0 0)
(32.4112 0 0)
(33.0788 0 0)
(33.7466 0 0)
(34.4145 0 0)
(35.0824 0 0)
(35.7504 0 0)
(36.4186 0 0)
(37.0868 0 0)
(37.7551 0 0)
(38.4235 0 0)
(39.092 0 0)
(39.7606 0 0)
(40.4293 0 0)
(41.098 0 0)
(41.7669 0 0)
(42.4359 0 0)
(43.1049 0 0)
(43.774 0 0)
(44.4432 0 0)
(45.1126 0 0)
(45.782 0 0)
(46.4514 0 0)
(47.121 0 0)
(47.7907 0 0)
(48.4604 0 0)
(49.1303 0 0)
(49.8002 0 0)
(50.4702 0 0)
(51.1403 0 0)
(51.8104 0 0)
(52.4807 0 0)
(53.1511 0 0)
(53.8215 0 0)
(54.492 0 0)
(55.1626 0 0)
(55.8333 0 0)
(56.504 0 0)
(57.1749 0 0)
(57.8458 0 0)
(58.5168 0 0)
(59.1879 0 0)
(59.8591 0 0)
(60.5304 0 0)
(61.2017 0 0)
(61.8731 0 0)
(62.5446 0 0)
(63.2162 0 0)
(63.8878 0 0)
(64.5596 0 0)
(65.2314 0 0)
(65.9033 0 0)
(66.5752 0 0)
(67.2473 0 0)
(67.9194 0 0)
(68.5916 0 0)
(69.2638 0 0)
(69.9362 0 0)
(70.6086 0 0)
(71.2811 0 0)
(71.9537 0 0)
(72.6263 0 0)
(73.2991 0 0)
(73.9718 0 0)
(74.6447 0 0)
(75.3177 0 0)
(75.9907 0 0)
(76.6637 0 0)
(77.3369 0 0)
(78.0101 0 0)
(78.6834 0 0)
(79.3568 0 0)
(80.0302 0 0)
(80.7037 0 0)
(81.3773 0 0)
(82.0509 0 0)
(82.7247 0 0)
(83.3984 0 0)
(84.0723 0 0)
(84.7462 0 0)
(85.4202 0 0)
(86.0943 0 0)
(86.7684 0 0)
(87.4426 0 0)
(88.1168 0 0)
(88.7912 0 0)
(89.4656 0 0)
(90.14 0 0)
(90.8145 0 0)
(91.4891 0 0)
(92.1637 0 0)
(92.8384 0 0)
(93.5131 0 0)
(94.1879 0 0)
(94.8628 0 0)
(95.5377 0 0)
(96.2126 0 0)
(96.8876 0 0)
(97.5626 0 0)
(98.2377 0 0)
(98.9129 0 0)
(99.5881 0 0)
(100.263 0 0)
(100.939 0 0)
(101.614 0 0)
(102.289 0 0)
(102.965 0 0)
(103.64 0 0)
(104.316 0 0)
(104.992 0 0)
(105.667 0 0)
(106.343 0 0)
(107.019 0 0)
(107.695 0 0)
(108.371 0 0)
(109.047 0 0)
(109.723 0 0)
(110.399 0 0)
(111.075 0 0)
(111.751 0 0)
(112.428 0 0)
(113.104 0 0)
(113.78 0 0)
(114.457 0 0)
(115.133 0 0)
(115.809 0 0)
(116.486 0 0)
(117.162 0 0)
(117.839 0 0)
(118.515 0 0)
(119.192 0 0)
(119.869 0 0)
(120.545 0 0)
(121.222 0 0)
(121.899 0 0)
(122.576 0 0)
(123.252 0 0)
(123.929 0 0)
(124.606 0 0)
(125.283 0 0)
(125.96 0 0)
(126.637 0 0)
(127.314 0 0)
(127.991 0 0)
(128.668 0 0)
(129.345 0 0)
(130.022 0 0)
(130.699 0 0)
(131.376 0 0)
(132.053 0 0)
(132.731 0 0)
(133.408 0 0)
(134.085 0 0)
(134.762 0 0)
(135.439 0 0)
(136.117 0 0)
(136.794 0 0)
(137.471 0 0)
(138.148 0 0)
(138.826 0 0)
(139.503 0 0)
(140.18 0 0)
(140.857 0 0)
(141.535 0 0)
(142.212 0 0)
(142.889 0 0)
(143.567 0 0)
(144.244 0 0)
(144.921 0 0)
(145.598 0 0)
(146.276 0 0)
(146.953 0 0)
(147.63 0 0)
(148.307 0 0)
(148.985 0 0)
(149.662 0 0)
(150.339 0 0)
(151.016 0 0)
(151.693 0 0)
(152.371 0 0)
(153.048 0 0)
(153.725 0 0)
(154.402 0 0)
(155.079 0 0)
(155.756 0 0)
(156.433 0 0)
(157.11 0 0)
(157.787 0 0)
(158.463 0 0)
(159.14 0 0)
(159.817 0 0)
(160.494 0 0)
(161.17 0 0)
(161.847 0 0)
(162.524 0 0)
(163.2 0 0)
(163.877 0 0)
(164.553 0 0)
(165.229 0 0)
(165.906 0 0)
(166.582 0 0)
(167.258 0 0)
(167.934 0 0)
(168.61 0 0)
(169.286 0 0)
(169.962 0 0)
(170.638 0 0)
(171.313 0 0)
(171.989 0 0)
(172.664 0 0)
(173.34 0 0)
(174.015 0 0)
(174.69 0 0)
(175.365 0 0)
(176.04 0 0)
(176.715 0 0)
(177.39 0 0)
(178.064 0 0)
(178.739 0 0)
(179.413 0 0)
(180.088 0 0)
(180.762 0 0)
(181.436 0 0)
(182.109 0 0)
(182.783 0 0)
(183.457 0 0)
(184.13 0 0)
(184.803 0 0)
(185.476 0 0)
(186.149 0 0)
(186.822 0 0)
(187.494 0 0)
(188.167 0 0)
(188.839 0 0)
(189.511 0 0)
(190.182 0 0)
(190.854 0 0)
(191.525 0 0)
(192.196 0 0)
(192.867 0 0)
(193.538 0 0)
(194.208 0 0)
(194.878 0 0)
(195.548 0 0)
(196.218 0 0)
(196.887 0 0)
(197.556 0 0)
(198.225 0 0)
(198.894 0 0)
(199.562 0 0)
(200.23 0 0)
(200.897 0 0)
(201.565 0 0)
(202.231 0 0)
(202.898 0 0)
(203.564 0 0)
(204.23 0 0)
(204.896 0 0)
(205.561 0 0)
(206.226 0 0)
(206.89 0 0)
(207.554 0 0)
(208.217 0 0)
(208.881 0 0)
(209.543 0 0)
(210.205 0 0)
(210.867 0 0)
(211.528 0 0)
(212.189 0 0)
(212.849 0 0)
(213.509 0 0)
(214.168 0 0)
(214.826 0 0)
(215.484 0 0)
(216.142 0 0)
(216.798 0 0)
(217.454 0 0)
(218.11 0 0)
(218.765 0 0)
(219.419 0 0)
(220.072 0 0)
(220.725 0 0)
(221.377 0 0)
(222.028 0 0)
(222.678 0 0)
(223.328 0 0)
(223.976 0 0)
(224.624 0 0)
(225.271 0 0)
(225.917 0 0)
(226.562 0 0)
(227.206 0 0)
(227.849 0 0)
(228.491 0 0)
(229.132 0 0)
(229.772 0 0)
(230.411 0 0)
(231.048 0 0)
(231.684 0 0)
(232.319 0 0)
(232.953 0 0)
(233.586 0 0)
(234.217 0 0)
(234.847 0 0)
(235.475 0 0)
(236.102 0 0)
(236.727 0 0)
(237.351 0 0)
(237.973 0 0)
(238.594 0 0)
(239.213 0 0)
(239.83 0 0)
(240.445 0 0)
(241.059 0 0)
(241.67 0 0)
(242.28 0 0)
(242.887 0 0)
(243.493 0 0)
(244.097 0 0)
(244.698 0 0)
(245.297 0 0)
(245.894 0 0)
(246.489 0 0)
(247.081 0 0)
(247.671 0 0)
(248.258 0 0)
(248.842 0 0)
(249.425 0 0)
(250.004 0 0)
(250.581 0 0)
(251.155 0 0)
(251.726 0 0)
(252.294 0 0)
(252.859 0 0)
(253.421 0 0)
(253.98 0 0)
(254.536 0 0)
(255.089 0 0)
(255.638 0 0)
(256.184 0 0)
(256.727 0 0)
(257.267 0 0)
(257.803 0 0)
(258.335 0 0)
(258.864 0 0)
(259.389 0 0)
(259.911 0 0)
(260.429 0 0)
(260.943 0 0)
(261.454 0 0)
(261.96 0 0)
(262.463 0 0)
(262.962 0 0)
(263.457 0 0)
(263.949 0 0)
(264.436 0 0)
(264.919 0 0)
(265.399 0 0)
(265.874 0 0)
(266.346 0 0)
(266.813 0 0)
(267.277 0 0)
(267.736 0 0)
(268.192 0 0)
(268.643 0 0)
(269.091 0 0)
(269.534 0 0)
(269.974 0 0)
(270.41 0 0)
(270.841 0 0)
(271.269 0 0)
(271.693 0 0)
(272.113 0 0)
(272.53 0 0)
(272.942 0 0)
(273.351 0 0)
(273.756 0 0)
(274.157 0 0)
(274.555 0 0)
(274.949 0 0)
(275.339 0 0)
(275.725 0 0)
(276.108 0 0)
(276.488 0 0)
(276.864 0 0)
(277.236 0 0)
(277.605 0 0)
(277.97 0 0)
(278.332 0 0)
(278.69 0 0)
(279.045 0 0)
(279.396 0 0)
(279.744 0 0)
(280.088 0 0)
(280.429 0 0)
(280.766 0 0)
(281.1 0 0)
(281.431 0 0)
(281.758 0 0)
(282.081 0 0)
(282.401 0 0)
(282.717 0 0)
(283.029 0 0)
(283.337 0 0)
(283.642 0 0)
(283.943 0 0)
(284.241 0 0)
(284.534 0 0)
(284.823 0 0)
(285.108 0 0)
(285.389 0 0)
(285.666 0 0)
(285.938 0 0)
(286.207 0 0)
(286.47 0 0)
(286.729 0 0)
(286.984 0 0)
(287.234 0 0)
(287.479 0 0)
(287.719 0 0)
(287.954 0 0)
(288.184 0 0)
(288.409 0 0)
(288.629 0 0)
(288.844 0 0)
(289.053 0 0)
(289.256 0 0)
(289.454 0 0)
(289.647 0 0)
(289.834 0 0)
(290.015 0 0)
(290.19 0 0)
(290.36 0 0)
(290.524 0 0)
(290.681 0 0)
(290.834 0 0)
(290.98 0 0)
(291.12 0 0)
(291.255 0 0)
(291.383 0 0)
(291.507 0 0)
(291.624 0 0)
(291.736 0 0)
(291.842 0 0)
(291.942 0 0)
(292.038 0 0)
(292.128 0 0)
(292.213 0 0)
(292.292 0 0)
(292.368 0 0)
(292.438 0 0)
(292.504 0 0)
(292.565 0 0)
(292.622 0 0)
(292.675 0 0)
(292.724 0 0)
(292.77 0 0)
(292.812 0 0)
(292.85 0 0)
(292.886 0 0)
(292.918 0 0)
(292.948 0 0)
(292.975 0 0)
(292.999 0 0)
(293.021 0 0)
(293.042 0 0)
(293.06 0 0)
(293.076 0 0)
(293.091 0 0)
(293.104 0 0)
(293.116 0 0)
(293.126 0 0)
(293.136 0 0)
(293.144 0 0)
(293.151 0 0)
(293.158 0 0)
(293.163 0 0)
(293.168 0 0)
(293.173 0 0)
(293.176 0 0)
(293.18 0 0)
(293.183 0 0)
(293.185 0 0)
(293.187 0 0)
(293.189 0 0)
(293.191 0 0)
(293.192 0 0)
(293.194 0 0)
(293.195 0 0)
(293.196 0 0)
(293.196 0 0)
(293.197 0 0)
(293.198 0 0)
(293.198 0 0)
(293.199 0 0)
(293.199 0 0)
(293.199 0 0)
(293.2 0 0)
(293.2 0 0)
(293.2 0 0)
(293.2 0 0)
(293.2 0 0)
(293.2 0 0)
(293.201 0 0)
(293.201 0 0)
(293.201 0 0)
(293.201 0 0)
(293.201 0 0)
(293.201 0 0)
(293.201 0 0)
(293.201 0 0)
(293.201 0 0)
(293.201 0 0)
(293.201 0 0)
(293.201 0 0)
(293.201 0 0)
(293.202 0 0)
(293.202 0 0)
(293.202 0 0)
(293.202 0 0)
(293.202 0 0)
(293.202 0 0)
(293.202 0 0)
(293.202 0 0)
(293.202 0 0)
(293.202 0 0)
(293.202 0 0)
(293.202 0 0)
(293.202 0 0)
(293.202 0 0)
(293.202 0 0)
(293.202 0 0)
(293.202 0 0)
(293.202 0 0)
(293.202 0 0)
(293.203 0 0)
(293.203 0 0)
(293.203 0 0)
(293.203 0 0)
(293.203 0 0)
(293.203 0 0)
(293.203 0 0)
(293.203 0 0)
(293.203 0 0)
(293.203 0 0)
(293.203 0 0)
(293.203 0 0)
(293.203 0 0)
(293.203 0 0)
(293.203 0 0)
(293.203 0 0)
(293.203 0 0)
(293.203 0 0)
(293.203 0 0)
(293.203 0 0)
(293.203 0 0)
(293.203 0 0)
(293.203 0 0)
(293.203 0 0)
(293.203 0 0)
(293.203 0 0)
(293.203 0 0)
(293.203 0 0)
(293.203 0 0)
(293.203 0 0)
(293.203 0 0)
(293.203 0 0)
(293.203 0 0)
(293.203 0 0)
(293.203 0 0)
(293.203 0 0)
(293.203 0 0)
(293.203 0 0)
(293.203 0 0)
(293.203 0 0)
(293.203 0 0)
(293.203 0 0)
(293.203 0 0)
(293.203 0 0)
(293.203 0 0)
(293.203 0 0)
(293.203 0 0)
(293.203 0 0)
(293.203 0 0)
(293.203 0 0)
(293.204 0 0)
(293.204 0 0)
(293.204 0 0)
(293.204 0 0)
(293.204 0 0)
(293.204 0 0)
(293.204 0 0)
(293.204 0 0)
(293.204 0 0)
(293.204 0 0)
(293.204 0 0)
(293.204 0 0)
(293.204 0 0)
(293.204 0 0)
(293.204 0 0)
(293.204 0 0)
(293.204 0 0)
(293.204 0 0)
(293.204 0 0)
(293.204 0 0)
(293.204 0 0)
(293.204 0 0)
(293.204 0 0)
(293.204 0 0)
(293.204 0 0)
(293.204 0 0)
(293.204 0 0)
(293.204 0 0)
(293.204 0 0)
(293.204 0 0)
(293.204 0 0)
(293.204 0 0)
(293.204 0 0)
(293.204 0 0)
(293.204 0 0)
(293.204 0 0)
(293.204 0 0)
(293.204 0 0)
(293.204 0 0)
(293.204 0 0)
(293.204 0 0)
(293.204 0 0)
(293.204 0 0)
(293.204 0 0)
(293.204 0 0)
(293.204 0 0)
(293.204 0 0)
(293.204 0 0)
(293.204 0 0)
(293.204 0 0)
(293.204 0 0)
(293.204 0 0)
(293.204 0 0)
(293.205 0 0)
(293.205 0 0)
(293.205 0 0)
(293.205 0 0)
(293.205 0 0)
(293.205 0 0)
(293.205 0 0)
(293.205 0 0)
(293.205 0 0)
(293.205 0 0)
(293.205 0 0)
(293.205 0 0)
(293.205 0 0)
(293.205 0 0)
(293.205 0 0)
(293.205 0 0)
(293.205 0 0)
(293.205 0 0)
(293.205 0 0)
(293.205 0 0)
(293.205 0 0)
(293.205 0 0)
(293.205 0 0)
(293.205 0 0)
(293.205 0 0)
(293.205 0 0)
(293.205 0 0)
(293.205 0 0)
(293.205 0 0)
(293.205 0 0)
(293.205 0 0)
(293.205 0 0)
(293.205 0 0)
(293.205 0 0)
(293.205 0 0)
(293.205 0 0)
(293.205 0 0)
(293.205 0 0)
(293.205 0 0)
(293.205 0 0)
(293.205 0 0)
(293.205 0 0)
(293.205 0 0)
(293.205 0 0)
(293.205 0 0)
(293.205 0 0)
(293.205 0 0)
(293.205 0 0)
(293.205 0 0)
(293.205 0 0)
(293.205 0 0)
(293.205 0 0)
(293.205 0 0)
(293.205 0 0)
(293.205 0 0)
(293.205 0 0)
(293.205 0 0)
(293.205 0 0)
(293.205 0 0)
(293.205 0 0)
(293.205 0 0)
(293.205 0 0)
(293.205 0 0)
(293.205 0 0)
(293.205 0 0)
(293.205 0 0)
(293.205 0 0)
(293.205 0 0)
(293.205 0 0)
(293.205 0 0)
(293.205 0 0)
(293.205 0 0)
(293.205 0 0)
(293.205 0 0)
(293.205 0 0)
(293.205 0 0)
(293.205 0 0)
(293.205 0 0)
(293.205 0 0)
(293.205 0 0)
(293.205 0 0)
(293.205 0 0)
(293.205 0 0)
(293.205 0 0)
(293.205 0 0)
(293.205 0 0)
(293.205 0 0)
(293.205 0 0)
(293.205 0 0)
(293.205 0 0)
(293.205 0 0)
(293.205 0 0)
(293.205 0 0)
(293.205 0 0)
(293.205 0 0)
(293.205 0 0)
(293.205 0 0)
(293.205 0 0)
(293.205 0 0)
(293.205 0 0)
(293.205 0 0)
(293.205 0 0)
(293.205 0 0)
(293.205 0 0)
(293.205 0 0)
(293.205 0 0)
(293.205 0 0)
(293.205 0 0)
(293.205 0 0)
(293.205 0 0)
(293.206 0 0)
(293.206 0 0)
(293.206 0 0)
(293.206 0 0)
(293.206 0 0)
(293.206 0 0)
(293.206 0 0)
(293.206 0 0)
(293.206 0 0)
(293.206 0 0)
(293.206 0 0)
(293.206 0 0)
(293.206 0 0)
(293.206 0 0)
(293.206 0 0)
(293.206 0 0)
(293.206 0 0)
(293.206 0 0)
(293.206 0 0)
(293.206 0 0)
(293.206 0 0)
(293.206 0 0)
(293.206 0 0)
(293.206 0 0)
(293.206 0 0)
(293.206 0 0)
(293.206 0 0)
(293.206 0 0)
(293.206 0 0)
(293.206 0 0)
(293.206 0 0)
(293.206 0 0)
(293.206 0 0)
(293.206 0 0)
(293.206 0 0)
(293.206 0 0)
(293.206 0 0)
(293.206 0 0)
(293.206 0 0)
(293.206 0 0)
(293.206 0 0)
(293.206 0 0)
(293.206 0 0)
(293.206 0 0)
(293.206 0 0)
(293.206 0 0)
(293.206 0 0)
(293.206 0 0)
(293.206 0 0)
(293.206 0 0)
(293.206 0 0)
(293.206 0 0)
(293.206 0 0)
(293.206 0 0)
(293.206 0 0)
(293.206 0 0)
(293.206 0 0)
(293.206 0 0)
(293.206 0 0)
(293.206 0 0)
(293.206 0 0)
(293.206 0 0)
(293.206 0 0)
(293.206 0 0)
(293.206 0 0)
(293.206 0 0)
(293.206 0 0)
(293.206 0 0)
(293.206 0 0)
(293.206 0 0)
(293.206 0 0)
(293.206 0 0)
(293.206 0 0)
(293.206 0 0)
(293.206 0 0)
(293.206 0 0)
(293.206 0 0)
(293.206 0 0)
(293.206 0 0)
(293.206 0 0)
(293.206 0 0)
(293.206 0 0)
(293.206 0 0)
(293.206 0 0)
(293.206 0 0)
(293.206 0 0)
(293.206 0 0)
(293.206 0 0)
(293.205 0 0)
(293.205 0 0)
(293.205 0 0)
(293.205 0 0)
(293.205 0 0)
(293.205 0 0)
(293.204 0 0)
(293.204 0 0)
(293.203 0 0)
(293.202 0 0)
(293.202 0 0)
(293.201 0 0)
(293.199 0 0)
(293.198 0 0)
(293.196 0 0)
(293.194 0 0)
(293.191 0 0)
(293.188 0 0)
(293.184 0 0)
(293.179 0 0)
(293.174 0 0)
(293.168 0 0)
(293.161 0 0)
(293.152 0 0)
(293.143 0 0)
(293.132 0 0)
(293.119 0 0)
(293.105 0 0)
(293.089 0 0)
(293.071 0 0)
(293.05 0 0)
(293.028 0 0)
(293.002 0 0)
(292.975 0 0)
(292.944 0 0)
(292.911 0 0)
(292.875 0 0)
(292.837 0 0)
(292.795 0 0)
(292.751 0 0)
(292.704 0 0)
(292.654 0 0)
(292.601 0 0)
(292.547 0 0)
(292.49 0 0)
(292.431 0 0)
(292.371 0 0)
(292.309 0 0)
(292.247 0 0)
(292.184 0 0)
(292.12 0 0)
(292.057 0 0)
(291.994 0 0)
(291.932 0 0)
(291.872 0 0)
(291.812 0 0)
(291.755 0 0)
(291.7 0 0)
(291.647 0 0)
(291.596 0 0)
(291.548 0 0)
(291.503 0 0)
(291.461 0 0)
(291.422 0 0)
(291.386 0 0)
(291.353 0 0)
(291.322 0 0)
(291.295 0 0)
(291.27 0 0)
(291.248 0 0)
(291.228 0 0)
(291.21 0 0)
(291.195 0 0)
(291.181 0 0)
(291.169 0 0)
(291.159 0 0)
(291.15 0 0)
(291.142 0 0)
(291.136 0 0)
(291.13 0 0)
(291.125 0 0)
(291.121 0 0)
(291.118 0 0)
(291.115 0 0)
(291.113 0 0)
(291.111 0 0)
(291.109 0 0)
(291.107 0 0)
(291.105 0 0)
(291.104 0 0)
(291.103 0 0)
(291.102 0 0)
(291.1 0 0)
(291.099 0 0)
(291.098 0 0)
(291.097 0 0)
(291.096 0 0)
(291.096 0 0)
(291.095 0 0)
(291.095 0 0)
(291.095 0 0)
(291.095 0 0)
(291.095 0 0)
(291.096 0 0)
(291.097 0 0)
(291.099 0 0)
(291.102 0 0)
(291.105 0 0)
(291.109 0 0)
(291.114 0 0)
(291.119 0 0)
(291.125 0 0)
(291.131 0 0)
(291.138 0 0)
(291.145 0 0)
(291.152 0 0)
(291.159 0 0)
(291.165 0 0)
(291.172 0 0)
(291.178 0 0)
(291.183 0 0)
(291.188 0 0)
(291.192 0 0)
(291.195 0 0)
(291.197 0 0)
(291.199 0 0)
(291.2 0 0)
(291.201 0 0)
)
;

boundaryField
{
    sides
    {
        type            zeroGradient;
    }
    empty
    {
        type            empty;
    }
}


// ************************************************************************* //
