/*--------------------------------*- C++ -*----------------------------------*\
| =========                 |                                                 |
| \\      /  F ield         | OpenFOAM: The Open Source CFD Toolbox           |
|  \\    /   O peration     | Version:  3.0.0                                 |
|   \\  /    A nd           | Web:      www.OpenFOAM.org                      |
|    \\/     M anipulation  |                                                 |
\*---------------------------------------------------------------------------*/
FoamFile
{
    version     2.0;
    format      ascii;
    class       surfaceScalarField;
    location    "7.75";
    object      phi;
}
// * * * * * * * * * * * * * * * * * * * * * * * * * * * * * * * * * * * * * //

dimensions      [0 3 -1 0 0 0 0];

internalField   nonuniform List<scalar> 
11520
(
-0.000474923
-0.000614477
0.000113438
-0.000418035
-0.000580248
0.000237017
-0.000323412
-0.000564922
0.00035773
-0.000195698
-0.00054008
0.000471489
-4.61037e-05
-0.000495732
0.00056865
0.000102111
-0.000428882
0.000630104
0.00021294
-0.000341779
0.000627494
0.00025123
-0.000244371
0.000540832
0.000207955
-0.000159712
0.000386658
0.000104845
-0.000116064
0.000212954
-2.55084e-05
-0.000126249
6.29521e-05
-0.000157607
-0.00018063
-4.24053e-05
-0.000276256
-0.000257899
-9.74795e-05
-0.000373265
-0.00033721
-0.000104051
-0.000443166
-0.000407134
-7.06776e-05
-0.000449482
-1.90891e-05
-0.000550725
-0.000588945
-1.19907e-05
-0.000501218
-0.000571367
0.00011375
-0.000409604
-0.000567259
0.00024173
-0.000282555
-0.000547075
0.000372299
-0.00012826
-0.00050078
0.000496726
3.72851e-05
-0.000424722
0.000596547
0.000183944
-0.000320865
0.000641915
0.000270135
-0.000199316
0.000600616
0.000265901
-8.61256e-05
0.00046774
0.000176302
-1.88177e-05
0.000283256
3.40814e-05
-2.01669e-05
0.000103063
-0.000125668
-8.07151e-05
-3.64629e-05
-0.00027664
-0.000171865
-0.000122342
-0.000402354
-0.000267051
-0.000155239
-0.000493863
-0.000351468
-0.000144411
-0.000405318
-0.000108267
-0.000622504
-0.000497743
-0.000145937
-0.000577276
-0.000508953
-2.45242e-05
-0.000486271
-0.000523787
0.000101605
-0.00035766
-0.000515493
0.000237751
-0.000199146
-0.000475047
0.000376642
-2.30684e-05
-0.000398352
0.000502153
0.000146845
-0.000285694
0.000588005
0.000272253
-0.000144861
0.000598688
0.000310317
-2.38375e-07
0.000509777
0.000245369
0.000103206
0.000339785
0.000101438
0.000127971
0.000145742
-7.98982e-05
7.59628e-05
-2.08364e-05
-0.000261683
-2.1106e-05
-0.000136072
-0.000417756
-0.000130675
-0.00019683
-0.00053384
-0.000232664
-0.000211392
-0.000304213
-0.000191652
-0.000660809
-0.000356335
-0.000276574
-0.000620078
-0.000405863
-0.000173353
-0.00053131
-0.000444641
-6.40242e-05
-0.000403964
-0.000453683
6.16373e-05
-0.000246362
-0.000425663
0.000199187
-6.96526e-05
-0.00035584
0.000335476
0.000107883
-0.000243152
0.00045022
0.000255764
-9.12986e-05
0.00051192
0.000330443
8.11294e-05
0.000485428
0.00029816
0.000227903
0.00036108
0.000166087
0.000295031
0.000180009
-2.43556e-05
0.000267527
2.80773e-06
-0.000227221
0.000174186
-0.000133258
-0.000407082
5.38185e-05
-0.000219019
-0.000543919
-6.68203e-05
-0.000260052
-0.000161302
-0.000260364
-0.000651468
-0.000186717
-0.000383381
-0.000616506
-0.000278603
-0.000313064
-0.000532957
-0.000344365
-0.000235562
-0.000410687
-0.000374112
-0.000136275
-0.000258683
-0.000362668
-1.7234e-05
-8.86988e-05
-0.000305725
0.00011477
8.43994e-05
-0.000200359
0.000243497
0.00023761
-4.64341e-05
0.00034558
0.000334997
0.000144729
0.000385955
0.000335355
0.000333266
0.000332583
0.00022663
0.000453657
0.000195845
4.12602e-05
0.000466588
3.08949e-05
-0.000170033
0.0003891
-0.000112865
-0.000363852
0.000263509
-0.000216893
-0.000514455
0.000125099
-0.000282419
4.6714e-06
-0.000306079
-0.000585704
-1.77959e-05
-0.000443619
-0.000558587
-0.000149478
-0.000418718
-0.000483141
-0.000241718
-0.000383606
-0.000369695
-0.000293027
-0.000322811
-0.000228058
-0.000300048
-0.000234397
-6.96994e-05
-0.000258421
-0.00012255
9.21248e-05
-0.000164321
3.77975e-06
0.000239027
-1.45082e-05
0.000129487
0.000344516
0.000185115
0.000225777
0.0003696
0.000406461
0.000252028
0.000288866
0.000581558
0.000186076
0.000120472
0.000646648
5.89802e-05
-8.64894e-05
0.000597003
-7.57071e-05
-0.00028358
0.000473116
-0.00018815
-0.000439748
0.000319026
-0.000272767
0.000171518
-0.000321235
-0.000460584
0.000120853
-0.000440399
-0.000443137
-4.1104e-05
-0.00046645
-0.000379425
-0.000155869
-0.000477834
-0.000279307
-0.000226113
-0.000461252
-0.000152718
-0.000250064
-0.000412202
-1.05629e-05
-0.000223674
-0.000330774
0.000135105
-0.000142148
-0.000220832
0.000270191
-7.62649e-07
-9.13814e-05
0.000373903
0.000200495
3.84068e-05
0.000414617
0.00044276
0.000132252
0.000361275
0.0006648
0.000148059
0.000217798
0.000785513
8.17255e-05
2.62702e-05
0.000772624
-2.49846e-05
-0.000163673
0.000656985
-0.000133093
-0.000317151
0.000490021
-0.000228295
0.000315333
-0.0003001
-0.000284045
0.000206879
-0.000372688
-0.000278178
2.82079e-05
-0.000443648
-0.000230283
-0.000101092
-0.000497428
-0.000148708
-0.000184137
-0.000523942
-4.26335e-05
-0.000220693
-0.000516149
7.82411e-05
-0.00020742
-0.000470673
0.000203532
-0.000138827
-0.000387563
0.000321938
-8.41463e-06
-0.000271054
0.000418488
0.000187725
-0.000132638
0.000468899
0.000438799
1.54066e-06
0.000442314
0.000693998
8.76567e-05
0.000330581
0.000864811
9.29073e-05
0.000164819
0.000892304
3.19552e-05
-8.38412e-06
0.000790886
-5.72896e-05
-0.000150645
0.00061388
-0.000152405
0.000414126
-0.000241886
-8.15373e-05
0.000232189
-0.000261099
-8.95056e-05
5.00209e-05
-0.000357633
-6.13354e-05
-8.34415e-05
-0.000441164
-3.00503e-06
-0.00017038
-0.000502656
7.78049e-05
-0.000213091
-0.000531903
0.00017277
-0.000209707
-0.000521888
0.000273037
-0.000154128
-0.000469482
0.000369918
-3.80614e-05
-0.000375939
0.000453321
0.000145574
-0.000247816
0.000507236
0.000392045
-0.000102216
0.000506476
0.00066137
2.53259e-05
0.000434659
0.000867747
9.1419e-05
0.000308029
0.000932883
8.30726e-05
0.000165283
0.000850237
2.45117e-05
4.17016e-05
0.000670383
-5.8706e-05
0.000452094
-0.000155205
0.000103837
0.000201961
-0.000138056
8.13428e-05
2.61929e-05
-0.000233707
8.76667e-05
-0.00010012
-0.000327753
0.00012077
-0.000181535
-0.000409984
0.000175034
-0.000223474
-0.000466529
0.000242417
-0.000225892
-0.000486303
0.000314647
-0.000182594
-0.000463003
0.000384694
-8.37804e-05
-0.000395482
0.000446846
7.98361e-05
-0.000287611
0.000493436
0.000307409
-0.000151049
0.000510818
0.000567566
-1.36604e-05
0.000482284
0.000784766
8.49143e-05
0.000408469
0.000875643
0.000116819
0.000311336
0.000814909
9.0997e-05
0.000218407
0.000642648
2.90582e-05
0.000420794
-5.84547e-05
0.000225464
0.000124737
-2.69611e-05
0.000191535
-3.40585e-05
-0.000100366
0.000179086
-0.00014303
-0.000185225
0.000190742
-0.000211301
-0.000270689
0.000222396
-0.000246661
-0.000340657
0.000265292
-0.00025045
-0.000380823
0.000310017
-0.000216952
-0.00038204
0.000350035
-0.000135969
-0.000340842
0.000383324
2.34999e-06
-0.00025869
0.000410416
0.000198559
-0.000144519
0.000431085
0.000426799
-2.15849e-05
0.000436446
0.000625055
7.87827e-05
0.000418161
0.00072027
0.000127204
0.000377019
0.000678373
0.000125884
0.000324584
0.00052556
9.0489e-05
0.000320322
2.95402e-05
0.000254291
7.39749e-06
6.54655e-05
0.000217978
-0.000120587
2.39807e-05
0.000196648
-0.00020379
-3.74985e-05
0.000196962
-0.000253896
-0.000110013
0.000215591
-0.000278649
-0.000178376
0.000242027
-0.000279585
-0.000227948
0.000264467
-0.000251748
-0.000248473
0.000276028
-0.000186164
-0.000234468
0.000278071
-7.47551e-05
-0.000184556
0.000279208
8.15107e-05
-0.000104338
0.000289562
0.000260966
-1.14639e-05
0.000310371
0.000416484
6.87643e-05
0.000331285
0.000493015
0.000115897
0.000337915
0.000460671
0.000130143
0.000324105
0.000335157
0.000122025
0.000163743
9.78061e-05
0.000193448
-0.000138664
0.000138203
0.00016631
-0.000223772
0.000130104
0.000150356
-0.000276283
9.93045e-05
0.000153716
-0.000305721
5.16835e-05
0.000172698
-0.000317211
-1.69747e-06
0.000194591
-0.000311389
-4.98645e-05
0.000204731
-0.000284133
-8.45719e-05
0.000195307
-0.000229153
-9.94352e-05
0.000170932
-0.000142836
-8.8905e-05
0.000146577
-2.89859e-05
-5.27111e-05
0.000139248
9.4612e-05
-4.93103e-07
0.000156468
0.000195557
5.11513e-05
0.000189514
0.00023882
8.97437e-05
0.000218549
0.000206303
0.000114415
0.000227388
0.000109062
0.000130255
-2.07648e-05
0.00014013
7.1043e-05
-0.000293182
0.000185442
6.16561e-05
-0.000332677
0.000209175
6.38417e-05
-0.000355136
0.000212312
8.44187e-05
-0.000364002
0.000197383
0.000118134
-0.0003607
0.000169676
0.000149776
-0.0003444
0.000133361
0.000161536
-0.000312166
9.10018e-05
0.000143333
-0.000261537
4.78434e-05
0.00010175
-0.000194288
1.47583e-05
5.56551e-05
-0.000118538
1.2312e-06
2.61289e-05
-4.81733e-05
8.0703e-06
2.40258e-05
-1.75554e-06
2.82634e-05
4.34783e-05
4.92756e-06
5.44952e-05
6.67175e-05
-3.34663e-05
8.43906e-05
7.74059e-05
-0.000107454
0.000117451
-0.000198266
0.000150693
-7.93121e-05
-0.000434818
0.000199795
-6.83162e-05
-0.00043588
0.000253058
-4.10476e-05
-0.000435237
0.000290935
6.61456e-06
-0.00042709
0.00031293
6.67215e-05
-0.00040812
0.000318888
0.000122291
-0.000377466
0.000304544
0.000150899
-0.000333575
0.00026414
0.000138316
-0.000278191
0.000198671
8.92211e-05
-0.000219946
0.000123204
2.45167e-05
-0.000171777
5.86367e-05
-3.1933e-05
-0.000144499
1.80676e-05
-6.59816e-05
-0.000143967
3.3319e-06
-7.85449e-05
-0.000170396
1.18409e-05
-8.1305e-05
-0.000218128
3.98944e-05
-8.50731e-05
-0.000278255
8.16693e-05
-0.000340142
0.000127065
-0.000216501
0.000179793
-0.000189709
0.000258158
-0.000139851
0.000326403
-6.6452e-05
0.000382899
2.26616e-05
0.000423651
0.000109177
0.000438472
0.000166459
0.000412564
0.000172267
0.000338549
0.000124778
0.000230697
4.38547e-05
0.000119565
-4.31741e-05
3.18606e-05
-0.000116298
-1.98566e-05
-0.000168837
-3.40449e-05
-0.000204445
-1.50197e-05
-0.000228463
2.82078e-05
7.85451e-05
-0.000654216
-0.000471051
0.000128461
-0.000617888
-0.000405539
0.000202945
-0.000541458
-0.000370181
0.000279883
-0.000428543
-0.000341089
0.000350642
-0.000288301
-0.000311783
0.000410217
-0.000140671
-0.000279164
0.00044965
-1.75602e-05
-0.000241042
0.000453632
4.59958e-05
-0.000199853
0.000407873
3.31798e-05
-0.000168221
0.000315702
-4.3394e-05
-0.00016343
0.000202299
-0.000154914
-0.000191159
9.69601e-05
-0.000275292
-0.000240587
1.85384e-05
-0.000388208
-0.000293988
-2.49945e-05
-0.000485281
-0.000336761
-3.27182e-05
-0.000563268
-0.000364502
-9.87775e-06
-0.000365131
2.84782e-05
-0.000715314
-0.000401303
-5.02749e-05
-0.000685243
-0.000359027
3.71669e-05
-0.000609179
-0.000335887
0.000131373
-0.000494198
-0.000311918
0.000228147
-0.000348604
-0.000280974
0.000320325
-0.00018834
-0.000239134
0.000396253
-4.0693e-05
-0.00018433
0.000437556
5.72963e-05
-0.000120571
0.000423344
7.57747e-05
-6.459e-05
0.000345631
1.33125e-05
-4.19271e-05
0.000224215
-0.000104511
-6.52016e-05
9.49301e-05
-0.000245747
-0.000121886
-1.39271e-05
-0.000385434
-0.000188069
-8.85739e-05
-0.000507579
-0.000244336
-0.000125519
-0.000605435
-0.000283325
-0.000127733
-0.00029304
-0.000101943
-0.000753979
-0.000284435
-0.000224178
-0.000726334
-0.000275256
-0.000135941
-0.000650144
-0.00027101
-3.94619e-05
-0.000533443
-0.000258392
6.75237e-05
-0.000384011
-0.000232133
0.000178369
-0.000214793
-0.000188051
0.000281853
-4.83508e-05
-0.00012272
0.000359954
8.03176e-05
-3.89459e-05
0.000388395
0.000132274
4.63054e-05
0.000346925
8.96462e-05
9.99312e-05
0.000240554
-3.00529e-05
9.68181e-05
0.000103422
-0.000190338
4.45606e-05
-2.69983e-05
-0.000356795
-2.88354e-05
-0.000128849
-0.000505075
-9.85591e-05
-0.000194327
-0.000623282
-0.000152886
-0.000223624
-0.000178932
-0.000213691
-0.000749123
-0.0001409
-0.000376408
-0.000723855
-0.000170548
-0.000303329
-0.000648762
-0.000188489
-0.000221638
-0.000532595
-0.000190946
-0.000121977
-0.000383605
-0.000174506
-7.43008e-06
-0.000211834
-0.000133968
0.000109622
-3.61431e-05
-6.52293e-05
0.000217038
0.000113646
3.22092e-05
0.000290976
0.000196128
0.000146021
0.000303229
0.000178143
0.000240465
0.000238532
6.39376e-05
0.000273912
0.000117122
-0.000108952
0.000239557
-1.9299e-05
-0.000297067
0.000165494
-0.000139471
-0.000467658
8.28192e-05
-0.000229806
-0.00060346
9.75026e-06
-0.000286887
-3.86837e-05
-0.00029865
-0.000692564
6.08833e-06
-0.000483802
-0.000670623
-6.31236e-05
-0.000442429
-0.000598938
-0.000105106
-0.00039063
-0.000486816
-0.000124942
-0.000314401
-0.000342394
-0.000121284
-0.000214878
-0.000174839
-8.90493e-05
-9.77037e-05
7.37047e-07
-2.31104e-05
2.58026e-05
0.000160851
8.01083e-05
0.000137568
0.000267413
0.000216103
0.000209311
0.000277193
0.000354614
0.000208653
0.000177008
0.000440046
0.000129894
8.39437e-08
0.000439985
7.39021e-06
-0.000202843
0.000374408
-0.000118852
-0.000390271
0.000280733
-0.00022738
-0.000539256
0.000186329
-0.000310013
0.000110701
-0.000348723
-0.000580634
0.000133488
-0.000523353
-0.000564055
2.90044e-05
-0.000527424
-0.000499116
-3.72115e-05
-0.000516439
-0.000395328
-7.55794e-05
-0.000475963
-0.000260601
-8.64338e-05
-0.000403974
-0.000103667
-6.54424e-05
-0.000303091
6.38199e-05
-6.83655e-06
-0.000179981
0.000224414
9.5554e-05
-4.6552e-05
0.000347476
0.000244233
7.45839e-05
0.000386747
0.000421257
0.000146115
0.000310148
0.000568356
0.000134365
0.000138974
0.000621105
4.90345e-05
-7.07492e-05
0.000576386
-6.79617e-05
-0.000268955
0.000475704
-0.000184915
-0.000426433
0.000358309
-0.000287269
0.000251442
-0.00035544
-0.000414401
0.000222798
-0.000481427
-0.000406447
9.21566e-05
-0.000537557
-0.000352768
3.74912e-06
-0.000572473
-0.000262746
-5.2194e-05
-0.000574661
-0.000144072
-7.79313e-05
-0.000539379
-4.42003e-06
-6.96718e-05
-0.000466196
0.000147423
-2.12702e-05
-0.000358242
0.000299515
7.48399e-05
-0.000222759
0.000430606
0.000225973
-7.44239e-05
0.000499752
0.000428003
5.63597e-05
0.000459165
0.000634371
0.000122631
0.000307961
0.000755937
9.80975e-05
0.000101193
0.000748777
9.39162e-06
-0.000101373
0.000648137
-0.00010296
-0.000263143
0.00050755
-0.000215766
0.000365982
-0.000311663
-0.000205202
0.000264455
-0.00036316
-0.000209803
0.000118924
-0.000465815
-0.000172904
1.45507e-05
-0.000545128
-0.000102634
-5.51123e-05
-0.000591294
-6.30273e-06
-9.38305e-05
-0.000596581
0.00010952
-9.8749e-05
-0.000557418
0.000238502
-6.34346e-05
-0.000474379
0.000373099
2.09774e-05
-0.000351789
0.000501112
0.000164747
-0.000199425
0.000593968
0.000373836
-3.71487e-05
0.000600489
0.000621365
9.41426e-05
0.000491265
0.000814481
0.000143588
0.000304802
0.000863024
0.000104172
0.000107636
0.000775272
1.27412e-05
-5.40326e-05
0.000615794
-9.89797e-05
0.000439189
-0.000215109
1.83392e-05
0.000258938
-0.000196541
-2.45511e-06
0.000108236
-0.00032615
1.29069e-05
-1.77903e-06
-0.000440197
5.87893e-05
-7.76785e-05
-0.000525972
0.000128471
-0.000124799
-0.000570616
0.000216294
-0.000141945
-0.000566514
0.000317162
-0.000122079
-0.000511706
0.000426598
-5.48382e-05
-0.000409559
0.000538509
7.2595e-05
-0.000267575
0.000637763
0.000271248
-9.88807e-05
0.000686219
0.000530868
6.73663e-05
0.000638715
0.000773812
0.000179592
0.000500775
0.000883573
0.000200463
0.000329088
0.000825972
0.000145499
0.00017699
0.000660839
4.83482e-05
0.000458212
-7.46181e-05
0.000208313
0.000211145
-2.16169e-05
0.000170141
6.38637e-05
-0.000151164
0.000163503
-4.02188e-05
-0.000282676
0.00018492
-0.00011204
-0.00039704
0.000228754
-0.000160761
-0.000474402
0.000289066
-0.00018684
-0.000501721
0.000360773
-0.000182723
-0.000474066
0.000440104
-0.000136015
-0.000393636
0.000524462
-3.20773e-05
-0.000267297
0.000607931
0.000143291
-0.000106561
0.000671373
0.000386369
6.73962e-05
0.000679738
0.000638688
0.000211674
0.000612513
0.00078782
0.000279797
0.000495604
0.000768167
0.000265711
0.000373376
0.00061708
0.000195045
0.000411352
8.48218e-05
0.000311852
0.000122933
0.00013014
0.00026216
-8.60754e-06
2.17967e-05
0.000238521
-9.48456e-05
-0.00010696
0.000241894
-0.000153152
-0.000232949
0.000267179
-0.000196124
-0.000330578
0.000306553
-0.000225778
-0.000381259
0.000352834
-0.000234351
-0.000376692
0.000401512
-0.00020784
-0.000317695
0.000451124
-0.000129705
-0.000210674
0.000502251
1.38187e-05
-6.61739e-05
0.000551288
0.000219466
9.62826e-05
0.000585308
0.00044208
0.00024137
0.000581323
0.000591002
0.000328007
0.000534104
0.000597456
0.000343814
0.000461075
0.000475399
0.0003052
0.00029409
0.000227135
0.000298992
-2.45743e-06
0.000244938
0.000248815
-0.000100881
0.000166432
0.000219351
-0.000159692
5.68123e-05
0.000216499
-0.000198343
-6.19703e-05
0.00023533
-0.000229803
-0.000163529
0.000264937
-0.000256922
-0.000226413
0.000294207
-0.000272277
-0.000239817
0.000316274
-0.000261455
-0.000202921
0.0003309
-0.000208035
-0.000120852
0.000344348
-0.000100625
-3.34163e-06
0.000365388
5.51594e-05
0.000131802
0.00039732
0.000223154
0.000255758
0.000426598
0.000339279
0.000338343
0.000432658
0.000351476
0.000370063
0.000406703
0.00026246
0.000360919
0.000123161
0.000322364
0.000181263
-0.000149875
0.000317868
0.000141552
-0.000200743
0.000269677
0.00011933
-0.000227795
0.000189629
0.000123463
-0.000244864
9.40723e-05
0.000148791
-0.000261849
5.02084e-06
0.000181183
-0.000281263
-5.79153e-05
0.00020481
-0.000296492
-8.39831e-05
0.00020965
-0.000294609
-7.11208e-05
0.000196774
-0.000262074
-2.1989e-05
0.000178283
-0.000191643
5.67974e-05
0.000171431
-9.03694e-05
0.000151888
0.000187515
1.52025e-05
0.000243018
0.000219735
8.52807e-05
0.000311522
0.000245362
8.98006e-05
0.000350463
0.000244162
2.99919e-05
0.000363923
-6.37546e-05
0.000357698
3.11276e-08
-0.000291805
0.000343683
-2.26806e-05
-0.000293732
0.000324875
-2.74025e-05
-0.000291417
0.000280656
-5.59944e-06
-0.000288978
0.000219694
3.68359e-05
-0.00029121
0.000156601
8.33652e-05
-0.000299404
0.000104973
0.000113775
-0.000308122
7.22212e-05
0.000114355
-0.000307773
6.04275e-05
8.65007e-05
-0.000290077
7.06154e-05
4.64285e-05
-0.000252783
0.000102444
1.58969e-05
-0.000202327
0.00015056
8.98069e-06
-0.000154044
0.000204426
2.23059e-05
-0.000127158
0.000253608
3.7782e-05
-0.000133973
0.000292688
3.69179e-05
-0.000172066
0.000320373
-0.000226662
0.000334176
-0.000197996
-0.000402812
0.000318915
-0.000202839
-0.000365411
0.000329579
-0.000185278
-0.000342089
0.000324047
-0.000139872
-0.000325411
0.000303956
-7.34752e-05
-0.000314647
0.000275928
-4.1733e-06
-0.000309632
0.00024547
4.43082e-05
-0.000306379
0.000213915
5.36758e-05
-0.000299768
0.000181298
2.29796e-05
-0.000288426
0.00015225
-3.05004e-05
-0.000275462
0.000134796
-8.30542e-05
-0.000265434
0.000133729
-0.000118908
-0.000262689
0.000147831
-0.000137063
-0.0002701
0.000172937
-0.000148539
-0.000287377
0.000204775
-0.000165068
-0.000312129
0.000238261
-0.000338005
0.000263223
-0.000361957
0.00025208
-0.00035513
0.000289202
-0.000318552
0.000319335
-0.000251393
0.000339349
-0.000161574
0.00034916
-6.72621e-05
0.000346515
5.34456e-06
0.000325372
3.23329e-05
0.000281049
7.08078e-06
0.000219515
-5.50913e-05
0.000156933
-0.000129007
0.000109013
-0.000195327
8.37949e-05
-0.000247425
8.23731e-05
-0.000288865
0.000101544
-0.000325616
0.000134519
0.000166322
-0.000712368
-0.000257825
0.000112011
-0.000690387
-0.000167645
0.000142975
-0.000632905
-0.000107237
0.000181232
-0.000543607
-6.84019e-05
0.000213383
-0.000430262
-5.09738e-05
0.000238716
-0.000309263
-5.37988e-05
0.000256538
-0.000204428
-7.23491e-05
0.000260503
-0.000142212
-0.000101275
0.000242372
-0.000138385
-0.000138536
0.000198614
-0.000188202
-0.000184921
0.000137984
-0.000271638
-0.000237372
7.59024e-05
-0.000366926
-0.000285512
2.61423e-05
-0.000458897
-0.000316473
-2.67242e-06
-0.000539741
-0.000321803
-7.23315e-06
-0.000608116
-0.000302974
1.13384e-05
-0.000261054
4.69796e-05
-0.000772996
-0.000166025
-9.47773e-05
-0.000757647
-0.000102932
-4.28946e-05
-0.00069992
-5.55285e-05
2.19377e-05
-0.000606092
-2.18559e-05
8.77732e-05
-0.000483606
-1.9162e-06
0.000148781
-0.000346801
6.15181e-06
0.000199497
-0.000217688
5.46082e-06
0.000230633
-0.000124977
-1.14597e-06
0.000230504
-9.32635e-05
-1.69706e-05
0.000192352
-0.000128372
-4.91043e-05
0.000123507
-0.000214706
-9.81383e-05
4.20301e-05
-0.000327699
-0.000152346
-3.41001e-05
-0.000445363
-0.000194509
-9.28744e-05
-0.000552588
-0.000212392
-0.000127705
-0.000643698
-0.000204386
-0.00013521
-0.000171498
-0.000109499
-0.00078983
-4.99152e-05
-0.000287273
-0.000776078
-2.12454e-05
-0.00023138
-0.000717103
7.3973e-06
-0.000161363
-0.000620172
3.03454e-05
-8.16088e-05
-0.000491971
4.68991e-05
1.353e-06
-0.00034446
6.04985e-05
7.99947e-05
-0.000197097
7.45763e-05
0.000143476
-7.7756e-05
9.07398e-05
0.000177168
-1.81035e-05
0.000102864
0.000167438
-3.67124e-05
9.72841e-05
0.000112775
-0.000125142
6.50168e-05
2.86962e-05
-0.000256068
1.46276e-05
-6.30459e-05
-0.000399571
-3.41041e-05
-0.000145751
-0.000532621
-6.49199e-05
-0.000208749
-0.000643887
-7.20991e-05
-0.000244646
-5.56565e-05
-0.000236605
-0.000758393
7.00973e-05
-0.000441516
-0.000745153
6.18928e-05
-0.000399708
-0.000684937
6.87874e-05
-0.000343245
-0.000586018
7.78205e-05
-0.00026837
-0.000454481
8.76287e-05
-0.000179697
-0.000301503
0.000101437
-8.42951e-05
-0.000142617
0.000124814
7.91438e-06
-3.08919e-06
0.00016065
8.15387e-05
8.22308e-05
0.000203737
0.000117037
8.27924e-05
0.000235621
9.96332e-05
-3.96789e-06
0.000234852
3.4047e-05
-0.000149949
0.000199518
-5.82083e-05
-0.000316987
0.000149018
-0.000155555
-0.000473715
0.000104521
-0.00024252
-0.000602852
7.76584e-05
-0.000307508
7.16306e-05
-0.000325301
-0.000676021
0.000175415
-0.000534648
-0.000664262
0.000131635
-0.000523931
-0.000604806
0.00011488
-0.000496178
-0.000506394
0.000107303
-0.000442294
-0.000376014
0.000106414
-0.000364044
-0.000222676
0.000116345
-0.000265949
-5.94352e-05
0.000143376
-0.000156001
9.29453e-05
0.000193111
-4.72747e-05
0.000201525
0.000264923
3.95462e-05
0.000226057
0.000341722
7.80207e-05
0.000148214
0.000389127
5.34614e-05
-7.33603e-06
0.000384141
-2.16826e-05
-0.000194222
0.000339146
-0.000122093
-0.00037179
0.000281146
-0.000226437
-0.000516251
0.000230385
-0.000318279
0.000196558
-0.000368352
-0.000540319
0.000252091
-0.000546582
-0.000533206
0.000177878
-0.00058078
-0.000479072
0.00013677
-0.000592463
-0.000386677
0.000110454
-0.00057151
-0.000263267
9.59154e-05
-0.000516885
-0.000116733
9.73763e-05
-0.000430656
4.27355e-05
0.000121973
-0.000318046
0.000199998
0.000177706
-0.000188409
0.000328423
0.000269752
-5.86714e-05
0.000384411
0.000389926
4.19235e-05
0.000329211
0.000500129
7.85622e-05
0.000174094
0.00054717
4.11224e-05
-2.70127e-05
0.000520254
-4.7963e-05
-0.000221966
0.000451199
-0.000160014
-0.000379442
0.000373397
-0.000272806
0.000306403
-0.000357854
-0.000352367
0.00029263
-0.000468046
-0.000354612
0.00019668
-0.000554113
-0.000312252
0.000133235
-0.000611298
-0.000233526
8.7936e-05
-0.000630868
-0.000125505
5.77681e-05
-0.000609252
5.20565e-06
4.67724e-05
-0.000546303
0.000151262
6.26851e-05
-0.000445011
0.000302985
0.000115135
-0.00031191
0.000443437
0.000213668
-0.000158791
0.0005362
0.000362664
-9.14137e-06
0.0005251
0.000536127
9.77334e-05
0.000391413
0.000658862
0.000120093
0.00018674
0.000672845
6.14732e-05
-2.13075e-05
0.00060112
-4.48332e-05
-0.000189574
0.000494946
-0.000169049
0.000390041
-0.000286429
-0.000124419
0.00029729
-0.000308583
-0.000141187
0.000189613
-0.00044198
-0.000117333
0.000109971
-0.000545717
-6.01716e-05
4.91958e-05
-0.000609716
2.38611e-05
3.89845e-06
-0.000626744
0.000129632
-2.23066e-05
-0.00059411
0.000252507
-2.13377e-05
-0.000513232
0.000386796
1.86606e-05
-0.000389603
0.000524913
0.000108542
-0.000232416
0.000645195
0.000262319
-5.70857e-05
0.000694174
0.000476188
0.000105102
0.0006166
0.000680168
0.000199856
0.000434385
0.000764374
0.000194858
0.000225306
0.000710288
0.000112652
4.85508e-05
0.000582975
-1.02537e-05
0.000438977
-0.000150312
0.000112085
0.000271758
-9.92412e-05
7.69181e-05
0.000160471
-0.000261842
7.77001e-05
7.51446e-05
-0.000406152
0.000108228
6.93483e-06
-0.000514239
0.000163003
-4.95645e-05
-0.000571928
0.000238161
-9.14226e-05
-0.000572556
0.000330459
-0.000109302
-0.000516039
0.000437784
-9.06324e-05
-0.000407591
0.000557366
-2.18537e-05
-0.000256761
0.000680472
0.000116312
-7.598e-05
0.00077493
0.000334213
0.000114884
0.000776583
0.000588364
0.000269743
0.000658783
0.000750646
0.000331991
0.000478197
0.000742384
0.000293989
0.000306072
0.000614119
0.000189329
0.000443978
4.26014e-05
0.000304115
0.000218594
0.000116245
0.000251588
0.000111369
-4.95345e-05
0.000230112
3.3787e-05
-0.000219842
0.0002352
-3.02891e-05
-0.000364904
0.000262083
-9.07262e-05
-0.000460123
0.000307115
-0.000145459
-0.000492716
0.000367959
-0.000183792
-0.00046042
0.000443381
-0.000190839
-0.000368852
0.000532054
-0.00014946
-0.000228364
0.000632611
-3.99056e-05
-5.09006e-05
0.000732146
0.000154475
0.0001476
0.000790583
0.000408824
0.000332776
0.000759478
0.000613642
0.000447905
0.000648136
0.000658135
0.000461302
0.000511099
0.000555403
0.000390798
0.00038958
0.000261506
0.000392086
0.000132413
0.000298598
0.000330987
4.28341e-05
0.00015143
0.000295495
-1.33374e-05
-2.43429e-05
0.000284504
-6.15698e-05
-0.000190678
0.000293145
-0.000116725
-0.00031322
0.000316331
-0.000178131
-0.000371774
0.000350668
-0.000233791
-0.00036103
0.00039449
-0.000265868
-0.000286488
0.000447336
-0.000253882
-0.000159099
0.00050975
-0.000176888
8.39455e-06
0.000581252
-2.09729e-05
0.000200228
0.000649101
0.000195075
0.00038727
0.000679301
0.000388963
0.000522485
0.000649099
0.000460463
0.000571689
0.000573295
0.00039555
0.000540857
0.000265333
0.000450315
0.000345155
1.32316e-05
0.00042474
0.000288177
-3.96387e-05
0.000305883
0.000251525
-6.47306e-05
0.000144857
0.000238773
-8.96325e-05
-2.11552e-05
0.000244102
-0.000131533
-0.00015405
0.000259226
-0.000191567
-0.0002281
0.000277641
-0.000257313
-0.00023471
0.000295876
-0.000308586
-0.000178439
0.000313881
-0.000322634
-7.0105e-05
0.000335561
-0.000279212
7.73032e-05
0.000368548
-0.000169435
0.000247277
0.000416635
-1.10795e-05
0.000413826
0.000466196
0.000136069
0.000541676
0.000487989
0.000203672
0.000605061
0.000466332
0.000172675
0.00060545
9.08998e-05
0.000557353
0.000183304
-0.000119303
0.000485521
0.000139531
-0.000122244
0.000396055
0.000113359
-0.000113891
0.000264961
0.000111687
-0.000114563
0.000120675
0.00012768
-0.000139476
-3.02946e-06
0.000149089
-0.000191182
-7.97095e-05
0.000164789
-0.00025814
-9.88555e-05
0.000168373
-0.000319871
-6.3419e-05
0.000160397
-0.000353862
1.72146e-05
0.000149271
-0.000342659
0.00013137
0.000149018
-0.000281567
0.000264273
0.000171671
-0.000186226
0.000395511
0.000212204
-9.39518e-05
0.00050101
0.000246355
-4.46748e-05
0.00056466
0.000249155
-5.06374e-05
0.000584435
-8.78374e-05
0.000567168
-4.00361e-05
-0.000233353
0.000478488
-6.78825e-05
-0.00018801
0.000418488
-7.68682e-05
-0.00015172
0.000327471
-5.98899e-05
-0.000132824
0.000220976
-2.44246e-05
-0.000141679
0.00012334
1.41189e-05
-0.000181043
5.62904e-05
3.97968e-05
-0.00024134
2.97432e-05
4.23867e-05
-0.000304436
4.24022e-05
2.23353e-05
-0.000351037
8.78416e-05
-8.45576e-06
-0.000367675
0.00015825
-3.20796e-05
-0.000351286
0.000243903
-3.47295e-05
-0.00031119
0.00033204
-1.75975e-05
-0.000266326
0.00040885
1.30667e-06
-0.000235227
0.000464336
2.09083e-06
-0.000224854
0.000493806
-0.000227487
0.000495197
-0.000269647
-0.00030132
0.000406832
-0.000283284
-0.000222
0.000377206
-0.000273486
-0.000168442
0.000330972
-0.000235424
-0.00013772
0.00027079
-0.000176898
-0.000134581
0.000210304
-0.000114978
-0.00016073
0.000163237
-6.96523e-05
-0.000208884
0.000136133
-5.55887e-05
-0.000265425
0.000128224
-7.45954e-05
-0.000316552
0.000136771
-0.000114124
-0.000353184
0.000159834
-0.000154953
-0.000371764
0.000195036
-0.000182712
-0.000373568
0.000237967
-0.0001957
-0.000363172
0.000282772
-0.000204256
-0.00034565
0.000323754
-0.000220789
-0.000325606
0.000355547
-0.000304473
0.000369117
-0.000456217
0.000284311
-0.00046453
0.000281148
-0.00044061
0.00027538
-0.000383566
0.000260948
-0.000302177
0.000242321
-0.000214813
0.000224332
-0.000144842
0.00020716
-0.000111618
0.00018696
-0.000121229
0.000164372
-0.000162675
0.00014425
-0.00021642
0.000132859
-0.000266784
0.000133787
-0.000308576
0.000147115
-0.000345687
0.000170167
-0.00038491
0.000198269
0.000220683
-0.000641517
-3.91349e-05
6.99188e-05
-0.000630991
7.2353e-05
7.53318e-05
-0.000592531
0.000158279
8.75723e-05
-0.000530857
0.000207967
9.12865e-05
-0.00045347
0.000214439
9.01136e-05
-0.000373727
0.000177342
8.96116e-05
-0.000305898
0.000105167
8.89804e-05
-0.000265729
1.0763e-05
8.13107e-05
-0.000261106
-8.9551e-05
6.29932e-05
-0.000290161
-0.000184881
3.47743e-05
-0.000342132
-0.000263728
3.45933e-06
-0.000403443
-0.000314741
-2.24213e-05
-0.000463494
-0.000328438
-3.57767e-05
-0.000516786
-0.000301297
-3.24714e-05
-0.000563116
-0.000239093
-1.08915e-05
-0.000156637
2.91776e-05
-0.000706017
5.52538e-05
-0.000141384
-0.000702978
0.000139577
-0.000113158
-0.000665383
0.000212001
-6.93789e-05
-0.000597993
0.000256046
-2.76964e-05
-0.000507031
0.000265112
7.14689e-06
-0.000404449
0.000239534
3.47218e-05
-0.000306506
0.000185925
5.19319e-05
-0.000232805
0.000114018
5.35491e-05
-0.000199526
3.34551e-05
3.60658e-05
-0.000213399
-4.81356e-05
6.34242e-07
-0.000267584
-0.000122197
-4.53147e-05
-0.000346792
-0.0001768
-9.28342e-05
-0.000434532
-0.000199778
-0.000133795
-0.000517933
-0.000184595
-0.000161006
-0.000591368
-0.000133968
-0.0001669
-6.17802e-05
-0.000137488
-0.000715278
0.000151392
-0.000327877
-0.000713701
0.000204304
-0.000297684
-0.000673238
0.000258391
-0.000248216
-0.000599567
0.000292102
-0.000191336
-0.000498338
0.000299168
-0.000133932
-0.000379967
0.000281175
-8.00176e-05
-0.000260137
0.000244406
-3.48351e-05
-0.000159793
0.000196565
-5.72357e-06
-0.000101927
0.000143016
1.12525e-08
-0.000102408
8.58614e-05
-2.07406e-05
-0.000160034
2.81149e-05
-6.399e-05
-0.00025784
-2.12227e-05
-0.000120817
-0.000372708
-4.91116e-05
-0.000181548
-0.000484115
-4.60947e-05
-0.000235842
-0.000580332
-1.10147e-05
-0.000271382
4.45812e-05
-0.000263555