/*--------------------------------*- C++ -*----------------------------------*\
| =========                 |                                                 |
| \\      /  F ield         | OpenFOAM: The Open Source CFD Toolbox           |
|  \\    /   O peration     | Version:  3.0.0                                 |
|   \\  /    A nd           | Web:      www.OpenFOAM.org                      |
|    \\/     M anipulation  |                                                 |
\*---------------------------------------------------------------------------*/
FoamFile
{
    version     2.0;
    format      ascii;
    class       volVectorField;
    location    "7.75";
    object      U;
}
// * * * * * * * * * * * * * * * * * * * * * * * * * * * * * * * * * * * * * //

dimensions      [0 1 -1 0 0 0 0];

internalField   nonuniform List<vector> 
4096
(
(-0.135407 -0.165683 0.0262016)
(-0.114195 -0.154764 0.06251)
(-0.0970402 -0.150077 0.0968083)
(-0.0683028 -0.143389 0.128212)
(-0.031515 -0.131848 0.154333)
(0.00854877 -0.114746 0.170052)
(0.0440216 -0.0928957 0.167857)
(0.0645435 -0.0692991 0.142631)
(0.0634803 -0.0498039 0.0990987)
(0.0429598 -0.0404676 0.0501735)
(0.0112205 -0.0435465 0.00763683)
(-0.0236307 -0.0567929 -0.0224047)
(-0.0564481 -0.0755508 -0.0378838)
(-0.0849159 -0.0949859 -0.038993)
(-0.108861 -0.112318 -0.0281874)
(-0.114954 -0.12357 -0.0114498)
(-0.154096 -0.154662 0.00236674)
(-0.13443 -0.147487 0.0383292)
(-0.118972 -0.144645 0.0736108)
(-0.0907513 -0.138696 0.108372)
(-0.0536817 -0.127076 0.140568)
(-0.0112019 -0.108866 0.165495)
(0.0310294 -0.0845251 0.175526)
(0.0631543 -0.05671 0.162453)
(0.0745215 -0.032014 0.125039)
(0.0612738 -0.0189153 0.0736682)
(0.0293387 -0.0214526 0.0232996)
(-0.0113181 -0.0367698 -0.0156777)
(-0.052444 -0.0584127 -0.038871)
(-0.0892085 -0.0803517 -0.046256)
(-0.120013 -0.0993762 -0.0407823)
(-0.127933 -0.110801 -0.0282746)
(-0.173071 -0.142232 -0.0261033)
(-0.153205 -0.140796 0.00879114)
(-0.138698 -0.141805 0.043836)
(-0.110377 -0.137838 0.0801918)
(-0.0726857 -0.126406 0.116054)
(-0.0286865 -0.106484 0.147275)
(0.0175189 -0.0783278 0.167219)
(0.0579708 -0.044264 0.167098)
(0.0810043 -0.0111146 0.140779)
(0.0773977 0.0101129 0.0930005)
(0.0484019 0.0120702 0.038797)
(0.0040935 -0.00319479 -0.00745088)
(-0.0444409 -0.0277947 -0.0384312)
(-0.0895768 -0.0540904 -0.0529835)
(-0.127969 -0.077801 -0.0539085)
(-0.1396 -0.0933507 -0.0459835)
(-0.182438 -0.111679 -0.0564533)
(-0.163595 -0.118981 -0.0259004)
(-0.150029 -0.1256 0.00530557)
(-0.122136 -0.125465 0.0395971)
(-0.0847626 -0.116442 0.0756264)
(-0.0409987 -0.0973786 0.109881)
(0.00581736 -0.0681455 0.137071)
(0.0497934 -0.0301515 0.149476)
(0.0810515 0.0109581 0.138514)
(0.0876885 0.0429209 0.101988)
(0.0649801 0.0538412 0.0507785)
(0.0205734 0.0426787 0.00144006)
(-0.0325171 0.0176383 -0.0352401)
(-0.0839224 -0.012027 -0.056376)
(-0.128357 -0.0404995 -0.0641405)
(-0.143958 -0.0614279 -0.0616715)
(-0.178122 -0.0702578 -0.0839246)
(-0.162249 -0.088166 -0.0616074)
(-0.149805 -0.101417 -0.0382105)
(-0.12316 -0.106238 -0.0100762)
(-0.0871816 -0.101031 0.0221565)
(-0.0450985 -0.0846325 0.0558962)
(-4.12374e-05 -0.0565011 0.0871616)
(0.0434888 -0.017014 0.10989)
(0.078224 0.0300763 0.115467)
(0.0930083 0.0733828 0.0963927)
(0.0785941 0.0969851 0.0561366)
(0.0378446 0.0942141 0.00972614)
(-0.0162391 0.0716134 -0.0291236)
(-0.0709631 0.0397836 -0.0551511)
(-0.118997 0.00658721 -0.0693758)
(-0.138566 -0.0207604 -0.0730733)
(-0.157944 -0.0253426 -0.102656)
(-0.147038 -0.0541113 -0.0920703)
(-0.135955 -0.0743279 -0.0795897)
(-0.111406 -0.0846395 -0.0611032)
(-0.0779351 -0.0839941 -0.0363345)
(-0.0387417 -0.071281 -0.0067332)
(0.00318118 -0.0456307 0.0250535)
(0.0440097 -0.00664813 0.0546846)
(0.0784513 0.0438788 0.0748378)
(0.0977648 0.096914 0.0756525)
(0.0912786 0.134841 0.0529504)
(0.0568477 0.144203 0.0160979)
(0.00521643 0.127178 -0.0204341)
(-0.0496837 0.0947992 -0.0487698)
(-0.0985734 0.0572541 -0.0681442)
(-0.121814 0.0229484 -0.0782067)
(-0.121678 0.0154564 -0.107489)
(-0.116993 -0.0226202 -0.110316)
(-0.107756 -0.0493301 -0.110158)
(-0.0863515 -0.0649828 -0.103236)
(-0.0566144 -0.068968 -0.0884901)
(-0.0215173 -0.0602158 -0.0662122)
(0.0161179 -0.0376289 -0.0377048)
(0.0530569 -0.000279484 -0.00566631)
(0.0852229 0.051496 0.0244761)
(0.10611 0.111453 0.0431353)
(0.105911 0.162779 0.0409293)
(0.0790418 0.186364 0.0193008)
(0.0326688 0.177731 -0.0100296)
(-0.019452 0.146578 -0.0373571)
(-0.0665398 0.105291 -0.0596954)
(-0.092564 0.0639009 -0.0755808)
(-0.0723998 0.0451874 -0.0969224)
(-0.0738129 0.000919275 -0.111678)
(-0.0673106 -0.0308547 -0.122713)
(-0.0502873 -0.0508324 -0.127171)
(-0.0256845 -0.0587812 -0.123294)
(0.0039448 -0.0537395 -0.110295)
(0.0360937 -0.0343984 -0.0883079)
(0.0680385 0.000640739 -0.0586394)
(0.0966928 0.0519781 -0.0247555)
(0.117487 0.115896 0.00578067)
(0.122355 0.177909 0.0219566)
(0.10389 0.21561 0.0181538)
(0.0652998 0.217151 0.000267171)
(0.0188135 0.188836 -0.0223676)
(-0.0240765 0.144447 -0.0448493)
(-0.0510955 0.0962023 -0.0650635)
(-0.017713 0.0598084 -0.0751518)
(-0.0237471 0.012875 -0.0966817)
(-0.0212264 -0.021524 -0.11517)
(-0.00978224 -0.0438933 -0.128486)
(0.00849035 -0.0544582 -0.134245)
(0.0314742 -0.0525133 -0.130677)
(0.0569609 -0.0365658 -0.116909)
(0.0827149 -0.00472873 -0.0931795)
(0.106504 0.0444054 -0.0613737)
(0.125476 0.109035 -0.0266591)
(0.134129 0.177638 0.00119112)
(0.125014 0.227227 0.0128381)
(0.0973289 0.239425 0.00785155)
(0.0599192 0.215442 -0.00726826)
(0.0237362 0.169116 -0.0269941)
(-0.00128399 0.114953 -0.0489362)
(0.030969 0.0591483 -0.0497917)
(0.0223803 0.0124091 -0.0710018)
(0.0200346 -0.0216783 -0.0914095)
(0.0253055 -0.043923 -0.10924)
(0.036888 -0.0552803 -0.121566)
(0.0529017 -0.0554911 -0.125786)
(0.0711942 -0.0429525 -0.120111)
(0.0897404 -0.0153009 -0.1039)
(0.10698 0.0295816 -0.0779323)
(0.12159 0.0912024 -0.0455715)
(0.131111 0.160698 -0.0144731)
(0.130495 0.217062 0.00567309)
(0.11636 0.238406 0.0106018)
(0.0922956 0.22011 0.00331284)
(0.0661118 0.174227 -0.0113892)
(0.0466386 0.116769 -0.031336)
(0.0620647 0.0450852 -0.0262055)
(0.0527812 0.00113398 -0.041312)
(0.0461245 -0.029797 -0.0583088)
(0.0460524 -0.0495347 -0.0757557)
(0.0520013 -0.0598808 -0.0906387)
(0.0620565 -0.0610539 -0.0998548)
(0.0737264 -0.051495 -0.101)
(0.0847995 -0.0285441 -0.0926664)
(0.0941482 0.010397 -0.0746441)
(0.101865 0.0654248 -0.0490781)
(0.108454 0.129443 -0.0218194)
(0.112588 0.184748 -0.00114972)
(0.111127 0.210485 0.00799596)
(0.102646 0.198038 0.00658989)
(0.0892411 0.15578 -0.00180157)
(0.0776834 0.0997559 -0.015517)
(0.0685774 0.0193876 -0.00548908)
(0.0603727 -0.018329 -0.0117575)
(0.0519902 -0.043538 -0.0218955)
(0.0491872 -0.0590516 -0.0350135)
(0.0520645 -0.0670533 -0.0486025)
(0.0584914 -0.0679986 -0.0598338)
(0.0653234 -0.0604917 -0.0662676)
(0.0698489 -0.0419443 -0.0659408)
(0.0712298 -0.00986927 -0.0575926)
(0.0710109 0.0357403 -0.0420104)
(0.0721897 0.0888411 -0.0232637)
(0.0766142 0.135422 -0.00743947)
(0.0827907 0.158826 0.00152285)
(0.0867309 0.150146 0.00396379)
(0.0852074 0.114268 0.00235187)
(0.0809045 0.0650513 -0.00214997)
(0.0513597 -0.0155913 0.0126853)
(0.0461082 -0.0433079 0.0155175)
(0.0396045 -0.0608689 0.0136163)
(0.0378603 -0.0711748 0.00723588)
(0.0412544 -0.0760098 -0.00211267)
(0.0473146 -0.0756947 -0.0127248)
(0.052149 -0.0690354 -0.0229632)
(0.0523997 -0.0539602 -0.030723)
(0.0474353 -0.0288329 -0.0334685)
(0.0401143 0.00576716 -0.0300045)
(0.0352764 0.044718 -0.0220551)
(0.0366466 0.0778429 -0.0132671)
(0.0440318 0.0936679 -0.00624117)
(0.0530511 0.0858633 -0.000986292)
(0.0580273 0.0575468 0.00377101)
(0.0578491 0.0187778 0.00848699)
(0.0176755 -0.0560582 0.0270152)
(0.0169364 -0.0717373 0.0381499)
(0.0151196 -0.0809898 0.0446012)
(0.0180057 -0.0857142 0.046163)
(0.0256334 -0.0867866 0.0431668)
(0.0350186 -0.0841714 0.0355858)
(0.0414925 -0.0769244 0.0234313)
(0.0408796 -0.0638733 0.00830435)
(0.0324252 -0.044715 -0.00592806)
(0.0198314 -0.02094 -0.0154091)
(0.00908528 0.00339652 -0.0189668)
(0.00488703 0.021886 -0.0178371)
(0.00789622 0.028092 -0.0135212)
(0.0144443 0.0191372 -0.00647089)
(0.0190713 -0.00235684 0.00319819)
(0.019715 -0.0301799 0.0146382)
(-0.0238913 -0.0977675 0.0350633)
(-0.0191229 -0.10209 0.0534763)
(-0.0151496 -0.104143 0.0679285)
(-0.00550916 -0.103681 0.0779469)
(0.0091497 -0.100432 0.0828246)
(0.0252696 -0.0941743 0.0806569)
(0.0372427 -0.084363 0.069218)
(0.0396902 -0.0709945 0.048815)
(0.0309922 -0.0554685 0.0241966)
(0.0148929 -0.0404148 0.00198955)
(-0.00189938 -0.0288506 -0.0133502)
(-0.0138894 -0.0237034 -0.0205949)
(-0.0194239 -0.0268971 -0.0202404)
(-0.0207203 -0.0381635 -0.0131639)
(-0.0217131 -0.0550639 -0.000816633)
(-0.0222927 -0.0741677 0.0142257)
(-0.0628185 -0.119509 0.0350411)
(-0.0522925 -0.115096 0.0592037)
(-0.0435865 -0.112939 0.0801502)
(-0.02768 -0.10969 0.0974903)
(-0.00594947 -0.104059 0.110155)
(0.01795 -0.0956486 0.115134)
(0.0379167 -0.0841412 0.108099)
(0.0468698 -0.0701816 0.0868684)
(0.0410458 -0.0565716 0.0552714)
(0.0230227 -0.0473742 0.0219384)
(-0.000101907 -0.0452322 -0.00513799)
(-0.021469 -0.0501546 -0.0217118)
(-0.0376021 -0.060198 -0.0268603)
(-0.0487459 -0.0726637 -0.0216305)
(-0.0572602 -0.085519 -0.00863876)
(-0.0594302 -0.0971852 0.00763209)
(-0.182055 -0.132852 0.033306)
(-0.161392 -0.112503 0.0589758)
(-0.150654 -0.102496 0.0849845)
(-0.1264 -0.0949116 0.109486)
(-0.092891 -0.0877977 0.130479)
(-0.0544347 -0.0803159 0.144192)
(-0.0174984 -0.0718345 0.144886)
(0.00839283 -0.0629583 0.1279)
(0.015077 -0.0567163 0.0955755)
(0.00206189 -0.0567924 0.0577116)
(-0.02392 -0.0640564 0.0241824)
(-0.0549183 -0.0759622 0.000213042)
(-0.0854782 -0.0885337 -0.0126319)
(-0.113293 -0.0983854 -0.014731)
(-0.13909 -0.1046 -0.00797035)
(-0.143528 -0.104885 0.00303153)
(-0.197119 -0.112359 -0.00670792)
(-0.177815 -0.0981269 0.0206645)
(-0.168234 -0.0903725 0.0495698)
(-0.143734 -0.0833643 0.0794166)
(-0.109367 -0.0755044 0.108131)
(-0.0688471 -0.0659015 0.131666)
(-0.0272934 -0.0540425 0.143607)
(0.00664204 -0.0408581 0.136836)
(0.0227668 -0.0302497 0.109408)
(0.016118 -0.0276303 0.0692449)
(-0.0090851 -0.0349343 0.0287548)
(-0.0440961 -0.0489278 -0.00351632)
(-0.0812616 -0.0642477 -0.0243105)
(-0.116195 -0.0766135 -0.0335514)
(-0.148205 -0.0846184 -0.0329432)
(-0.154009 -0.0852868 -0.0255657)
(-0.207153 -0.0896272 -0.0473122)
(-0.188018 -0.0825723 -0.0205738)
(-0.17888 -0.0787763 0.00807626)
(-0.154146 -0.0738187 0.0396842)
(-0.11916 -0.0662023 0.0725223)
(-0.0772484 -0.0548744 0.102968)
(-0.0324597 -0.0391654 0.12511)
(0.00795373 -0.0200583 0.130927)
(0.033324 -0.00213892 0.114255)
(0.0344819 0.00688435 0.0780891)
(0.0115841 0.00256971 0.0347652)
(-0.0266958 -0.0120631 -0.00382084)
(-0.0703318 -0.0302294 -0.0319043)
(-0.112514 -0.0463117 -0.0483663)
(-0.150871 -0.057998 -0.0544585)
(-0.159866 -0.0620648 -0.0511583)
(-0.204807 -0.0552824 -0.0846387)
(-0.187377 -0.0576096 -0.0622084)
(-0.178427 -0.0591551 -0.0378627)
(-0.153875 -0.0576496 -0.0088376)
(-0.119088 -0.0519522 0.0238347)
(-0.0771054 -0.0408262 0.0574069)
(-0.0311911 -0.023313 0.0870987)
(0.0128532 0.000256957 0.105667)
(0.0454988 0.0259059 0.10445)
(0.0549892 0.0443714 0.079863)
(0.0363479 0.0472156 0.0402253)
(-0.00336866 0.0352287 -0.000605796)
(-0.0520383 0.0159115 -0.0337879)
(-0.100281 -0.00362778 -0.0566153)
(-0.143821 -0.0197143 -0.0695719)
(-0.156966 -0.028882 -0.0714885)
(-0.187705 -0.0167459 -0.112893)
(-0.174001 -0.0293375 -0.0986971)
(-0.165206 -0.0368516 -0.0823954)
(-0.141527 -0.0395177 -0.0600151)
(-0.107921 -0.0367382 -0.0317246)
(-0.0672182 -0.0271952 0.000700365)
(-0.0221968 -0.00968515 0.0340153)
(0.0226541 0.0163946 0.062722)
(0.0597832 0.0487758 0.0782129)
(0.077164 0.0785155 0.0715231)
(0.0647891 0.0927491 0.0432036)
(0.026019 0.0871956 0.00558389)
(-0.0257286 0.068675 -0.0294782)
(-0.0783818 0.0459606 -0.0569725)
(-0.125501 0.024707 -0.0762258)
(-0.143535 0.009063 -0.0844172)
(-0.15512 0.0193778 -0.126077)
(-0.14699 -0.003023 -0.123398)
(-0.138695 -0.0168222 -0.117727)
(-0.116838 -0.0241267 -0.104983)
(-0.0856331 -0.0248651 -0.0845293)
(-0.0476639 -0.0178343 -0.057097)
(-0.00531452 -0.00164448 -0.0245401)
(0.0380182 0.0250755 0.00961677)
(0.0768786 0.0621014 0.0387589)
(0.101007 0.102985 0.0521373)
(0.096876 0.132191 0.0418923)
(0.0619426 0.137542 0.0138081)
(0.00938445 0.12242 -0.0190585)
(-0.0458717 0.0972043 -0.048746)
(-0.0949032 0.0701969 -0.072857)
(-0.118199 0.0469695 -0.0878207)
(-0.108019 0.0477849 -0.120319)
(-0.106503 0.0172937 -0.130656)
(-0.0996253 -0.00263568 -0.136634)
(-0.0808741 -0.014769 -0.13496)
(-0.0536008 -0.019378 -0.124369)
(-0.0200319 -0.015453 -0.104707)
(0.0178704 -0.00147746 -0.0767302)
(0.0576331 0.0243579 -0.0423437)
(0.0956695 0.0634403 -0.00577214)
(0.124772 0.113033 0.0241218)
(0.130879 0.158764 0.0349019)
(0.103962 0.179927 0.0225006)
(0.0536819 0.1718 -0.00329895)
(-0.00217754 0.145306 -0.0319307)
(-0.0516514 0.112199 -0.0586636)
(-0.0798727 0.0804466 -0.080015)
(-0.0503969 0.0649116 -0.0963249)
(-0.0551465 0.0289987 -0.118196)
(-0.0512004 0.00392791 -0.13502)
(-0.0370811 -0.0125499 -0.144305)
(-0.0153251 -0.0209515 -0.144131)
(0.0122076 -0.0204723 -0.13354)
(0.0439512 -0.00950869 -0.112509)
(0.0781791 0.0140251 -0.0819738)
(0.112774 0.0524647 -0.0443963)
(0.143735 0.106378 -0.005536)
(0.160237 0.166222 0.0229278)
(0.146826 0.206875 0.0294497)
(0.104444 0.210804 0.0157239)
(0.0511971 0.185389 -0.00790299)
(0.00277562 0.146394 -0.0344762)
(-0.0288824 0.105457 -0.0606199)
(0.00939809 0.069793 -0.0605088)
(3.3817e-05 0.0311755 -0.0889932)
(-0.00065411 0.00303161 -0.113839)
(0.00758409 -0.0162776 -0.132449)
(0.0227385 -0.0276851 -0.141896)
(0.0431853 -0.030672 -0.140264)
(0.0676015 -0.0235186 -0.126844)
(0.0947748 -0.00378082 -0.102124)
(0.123511 0.0314283 -0.0676785)
(0.152009 0.0846179 -0.027069)
(0.174455 0.151651 0.0111501)
(0.176736 0.209946 0.0337782)
(0.150039 0.230712 0.0344839)
(0.105876 0.210964 0.0193082)
(0.0616698 0.168152 -0.00394969)
(0.0298957 0.118691 -0.0319114)
(0.0588872 0.0632954 -0.0222239)
(0.0471239 0.0241601 -0.0505605)
(0.0410194 -0.00413947 -0.0788487)
(0.0431337 -0.0238219 -0.103605)
(0.0518378 -0.0366721 -0.120579)
(0.0654466 -0.0425762 -0.12665)
(0.0825625 -0.0396625 -0.120326)
(0.102041 -0.0250025 -0.10169)
(0.12309 0.00486554 -0.0719826)
(0.145083 0.0533292 -0.0338948)
(0.165999 0.119314 0.00635804)
(0.178036 0.185857 0.0372089)
(0.170141 0.221778 0.0491192)
(0.143123 0.212298 0.0432021)
(0.109345 0.170555 0.0258985)
(0.0827335 0.116583 0.000591722)
(0.0851321 0.0458719 0.0116281)
(0.0729004 0.00890158 -0.011187)
(0.062599 -0.01633 -0.0379302)
(0.0600686 -0.0336158 -0.0645087)
(0.0641563 -0.0458783 -0.0856995)
(0.0728177 -0.0534719 -0.0972536)
(0.0840802 -0.0544099 -0.0968681)
(0.0963709 -0.0452605 -0.0841737)
(0.108881 -0.0219115 -0.0601209)
(0.121693 0.0193104 -0.0270553)
(0.135209 0.0779094 0.00970866)
(0.14768 0.141025 0.0406194)
(0.152671 0.182139 0.0570074)
(0.14492 0.182061 0.0579819)
(0.126977 0.146568 0.0480579)
(0.109853 0.0953555 0.0301497)
(0.081088 0.0175636 0.0386048)
(0.0699554 -0.0129674 0.0236502)
(0.058565 -0.0321215 0.00227371)
(0.0543739 -0.0448412 -0.0217392)
(0.0569387 -0.0546771 -0.0431913)
(0.0637361 -0.0623481 -0.0574343)
(0.0717749 -0.0658689 -0.0616856)
(0.0785551 -0.061473 -0.0551182)
(0.083016 -0.044749 -0.0382253)
(0.0860531 -0.0123279 -0.0129411)
(0.0901834 0.034636 0.01617)
(0.0976189 0.0856885 0.0417595)
(0.106748 0.121082 0.0575207)
(0.111865 0.124706 0.0626134)
(0.108273 0.0977944 0.0599692)
(0.100016 0.0559027 0.0518046)
(0.0496375 -0.0190686 0.0580067)
(0.0411736 -0.038587 0.0511858)
(0.032085 -0.0496604 0.0374507)
(0.0296717 -0.0567777 0.0195394)
(0.0340602 -0.0630692 0.0015997)
(0.0423024 -0.0693125 -0.012424)
(0.050261 -0.0736718 -0.0200289)
(0.0542328 -0.0724897 -0.020132)
(0.0527838 -0.0617365 -0.0124272)
(0.0477837 -0.0389683 0.00223785)
(0.0436666 -0.0060073 0.0208556)
(0.0448325 0.028949 0.0386184)
(0.0520379 0.0528307 0.0516427)
(0.0607148 0.0553384 0.0591793)
(0.063962 0.0366965 0.062581)
(0.060306 0.0068924 0.0629623)
(0.00107536 -0.058284 0.0683319)
(-0.00307427 -0.0646263 0.0693762)
(-0.00777499 -0.0673183 0.0645446)
(-0.00566076 -0.0688745 0.0552135)
(0.00328135 -0.0712201 0.0438827)
(0.0157623 -0.0748768 0.0328392)
(0.0267119 -0.0782831 0.0234134)
(0.0311786 -0.0784505 0.0165089)
(0.027142 -0.0724575 0.0135736)
(0.0171567 -0.059088 0.0157655)
(0.00693653 -0.0402258 0.0225152)
(0.00180263 -0.0212834 0.0315764)
(0.00335537 -0.00951493 0.040744)
(0.00823935 -0.0099227 0.0491418)
(0.0103964 -0.021968 0.0566219)
(0.00772102 -0.0403791 0.062542)
(-0.0529636 -0.0938416 0.0680169)
(-0.0514385 -0.0880607 0.0766514)
(-0.0512259 -0.0838956 0.0812746)
(-0.0431713 -0.0808521 0.0819585)
(-0.0280306 -0.0793786 0.0794747)
(-0.00937969 -0.0796037 0.0739708)
(0.00711855 -0.0803346 0.0648928)
(0.0153012 -0.079708 0.0523209)
(0.012057 -0.0764907 0.038736)
(-0.000164624 -0.0707992 0.0279256)
(-0.0150852 -0.0640502 0.0222778)
(-0.0269195 -0.0586507 0.0219219)
(-0.0334511 -0.0570884 0.0259065)
(-0.0366109 -0.0605035 0.0332164)
(-0.040603 -0.0681695 0.0425479)
(-0.0436506 -0.0777742 0.0513635)
(-0.0989424 -0.108484 0.0575825)
(-0.091688 -0.0950055 0.0728825)
(-0.0880396 -0.0879045 0.0861192)
(-0.0747351 -0.0830885 0.0965298)
(-0.0537307 -0.0797471 0.103481)
(-0.0287754 -0.0775598 0.105284)
(-0.00568997 -0.0756099 0.0992626)
(0.00826468 -0.0731508 0.0838497)
(0.00823033 -0.0707615 0.0616877)
(-0.00444843 -0.0699602 0.0389548)
(-0.023421 -0.0716318 0.0212442)
(-0.0421738 -0.0754579 0.0111634)
(-0.0573381 -0.080396 0.00894313)
(-0.0692676 -0.0852521 0.0135604)
(-0.0806787 -0.0896056 0.0229829)
(-0.0841482 -0.0929928 0.033204)
(-0.196043 -0.0783848 0.0323825)
(-0.177315 -0.0514822 0.0451593)
(-0.171261 -0.0353641 0.059372)
(-0.15253 -0.0257909 0.0721166)
(-0.125635 -0.0223412 0.0826661)
(-0.0944324 -0.024653 0.0899041)
(-0.0638983 -0.0314 0.0913097)
(-0.0409506 -0.0409169 0.0841403)
(-0.0319998 -0.0523981 0.0680778)
(-0.0387455 -0.0655963 0.0468603)
(-0.0572412 -0.0793507 0.0259397)
(-0.0813089 -0.0910036 0.00959289)
(-0.105977 -0.0975245 0.00013857)
(-0.129045 -0.0970784 -0.00181909)
(-0.151728 -0.0904614 0.00294942)
(-0.152571 -0.0788039 0.0117223)
(-0.211216 -0.0548871 -0.0182464)
(-0.193727 -0.0348444 -0.000831501)
(-0.18888 -0.0207537 0.0191863)
(-0.169521 -0.0111989 0.0397687)
(-0.140879 -0.00621232 0.0592565)
(-0.106519 -0.00543087 0.0754873)
(-0.0708209 -0.00785615 0.0850349)
(-0.0405284 -0.0126227 0.0839037)
(-0.0234597 -0.0199057 0.070144)
(-0.0242793 -0.0305808 0.0467835)
(-0.0412664 -0.0441142 0.0203411)
(-0.0682962 -0.0575266 -0.00326644)
(-0.0989444 -0.0669633 -0.0205726)
(-0.129185 -0.0698255 -0.0301586)
(-0.158694 -0.0661208 -0.0318987)
(-0.161915 -0.0561456 -0.0258089)
(-0.21516 -0.028206 -0.0666861)
(-0.198436 -0.0161608 -0.0483727)
(-0.193625 -0.00617314 -0.0273212)
(-0.17371 0.00132335 -0.00356151)
(-0.144014 0.00624785 0.0212433)
(-0.107702 0.00926565 0.0447152)
(-0.0684475 0.0112459 0.0631738)
(-0.0322507 0.0125021 0.071741)
(-0.00747204 0.0116786 0.0661102)
(-0.00184259 0.0061155 0.046439)
(-0.0168722 -0.00511936 0.0186679)
(-0.0468952 -0.0190888 -0.00972247)
(-0.0836913 -0.0309503 -0.0336219)
(-0.121022 -0.037101 -0.0504926)
(-0.156712 -0.0367013 -0.059317)
(-0.163588 -0.0299569 -0.0573469)
(-0.205559 0.00302013 -0.10728)
(-0.191036 0.00578919 -0.0925042)
(-0.18564 0.0105321 -0.0749965)
(-0.165251 0.0148363 -0.0527388)
(-0.134959 0.0184525 -0.0268404)
(-0.0976803 0.0222307 0.000751846)
(-0.0564875 0.0273041 0.026713)
(-0.0163481 0.0341506 0.0462136)
(0.0148385 0.0410828 0.053169)
(0.0271869 0.0437349 0.0435403)
(0.0151695 0.0384572 0.0201231)
(-0.0169954 0.0266825 -0.00914933)
(-0.0593263 0.0136495 -0.0373237)
(-0.103115 0.00407714 -0.060472)
(-0.144072 4.22618e-05 -0.0765581)
(-0.15588 0.00173158 -0.0805445)
(-0.181557 0.0326954 -0.133899)
(-0.171085 0.0260437 -0.127081)
(-0.165054 0.0249747 -0.117037)
(-0.144728 0.0254147 -0.10045)
(-0.114726 0.0268285 -0.0776308)
(-0.0776933 0.0301721 -0.0498523)
(-0.0361753 0.0369641 -0.0195639)
(0.00584809 0.0482815 0.00930871)
(0.0418235 0.0632106 0.0304693)
(0.0612928 0.0767081 0.0362154)
(0.0542692 0.0814365 0.0234944)
(0.0216663 0.075063 -0.00188087)
(-0.0251143 0.0622573 -0.0313166)
(-0.0744767 0.0490928 -0.0590569)
(-0.119682 0.0394387 -0.0818349)
(-0.137555 0.0346003 -0.0933348)
(-0.142735 0.0563286 -0.140842)
(-0.138076 0.0410558 -0.145638)
(-0.132142 0.0337371 -0.145857)
(-0.113147 0.029618 -0.138087)
(-0.0849064 0.0279354 -0.121872)
(-0.0497765 0.0297519 -0.0977671)
(-0.00988181 0.0368047 -0.0672639)
(0.0318032 0.0508808 -0.0330431)
(0.0705956 0.0725744 -6.3874e-05)
(0.0975445 0.098207 0.0230135)
(0.0989973 0.117455 0.0268309)
(0.0693412 0.121 0.0109707)
(0.0199216 0.11062 -0.0159549)
(-0.0339091 0.0940572 -0.045818)
(-0.0823883 0.0777772 -0.0737747)
(-0.107029 0.0650792 -0.0935061)
(-0.0901078 0.071342 -0.125142)
(-0.0921602 0.0492009 -0.143354)
(-0.0877897 0.0356489 -0.15528)
(-0.0719572 0.0264958 -0.158197)
(-0.0475614 0.0209405 -0.150981)
(-0.0165742 0.0200455 -0.133516)
(0.0193336 0.0257217 -0.106555)
(0.0581089 0.0402645 -0.0718119)
(0.0969213 0.0657065 -0.0325594)
(0.130139 0.101604 0.00450797)
(0.144191 0.138567 0.0275137)
(0.124184 0.158618 0.0271856)
(0.0760279 0.154773 0.00764529)
(0.0193842 0.135765 -0.0209686)
(-0.0315611 0.11212 -0.0516901)
(-0.0628331 0.0902551 -0.0791195)
(-0.0280088 0.0770426 -0.0888273)
(-0.0361284 0.0504751 -0.119137)
(-0.0352777 0.0316577 -0.142704)
(-0.024548 0.0177462 -0.15698)
(-0.0061127 0.00799397 -0.159983)
(0.0184646 0.00340151 -0.150858)
(0.0480043 0.00602764 -0.129835)
(0.0812261 0.0184144 -0.0981544)
(0.11667 0.0434832 -0.0581591)
(0.151914 0.0838783 -0.0141078)
(0.178399 0.135855 0.0245518)
(0.176614 0.178463 0.0433282)
(0.138656 0.188956 0.0369046)
(0.083371 0.17077 0.0139505)
(0.0311427 0.139972 -0.016378)
(-0.00516213 0.107883 -0.0493752)
(0.0344898 0.074625 -0.039759)
(0.0223705 0.0459049 -0.0772129)
(0.0179228 0.0239784 -0.11038)
(0.022219 0.00676483 -0.13541)
(0.0334145 -0.00668141 -0.14874)
(0.0502007 -0.0154899 -0.148448)
(0.0717484 -0.0174118 -0.13424)
(0.0974052 -0.00956288 -0.10722)
(0.126565 0.0114452 -0.069556)
(0.158397 0.0497053 -0.0243324)
(0.18983 0.107236 0.0223241)
(0.206913 0.169307 0.0571807)
(0.190479 0.201991 0.0672465)
(0.14647 0.19238 0.0544712)
(0.0973673 0.157796 0.0282216)
(0.0601084 0.116312 -0.0064518)
(0.0837552 0.0653014 0.011058)
(0.0701808 0.036247 -0.0266244)
(0.0601276 0.0143874 -0.0652598)
(0.0581776 -0.00345081 -0.0986885)
(0.0625307 -0.0190817 -0.121087)
(0.0718268 -0.0318302 -0.128989)
(0.0854073 -0.0391519 -0.121393)
(0.10286 -0.0375826 -0.0993124)
(0.123836 -0.023173 -0.0649872)
(0.148109 0.0088641 -0.0213231)
(0.175287 0.0628259 0.0270449)
(0.199831 0.131198 0.0699137)
(0.205399 0.182249 0.0930258)
(0.183424 0.188107 0.0919626)
(0.14681 0.157134 0.0732843)
(0.115935 0.111961 0.0424168)
(0.105484 0.0477521 0.0545362)
(0.0924223 0.0212116 0.0220676)
(0.0789198 0.00315802 -0.0168093)
(0.0730162 -0.0119592 -0.054397)
(0.0730372 -0.0274102 -0.0829143)
(0.0772372 -0.0428215 -0.097178)
(0.0846456 -0.0552633 -0.0952955)
(0.0946608 -0.0605456 -0.0780639)
(0.106952 -0.0538248 -0.0477719)
(0.121493 -0.0297429 -0.00740679)
(0.138949 0.0157938 0.0385398)
(0.159025 0.0779594 0.081567)
(0.174395 0.132412 0.109675)
(0.173791 0.149893 0.117042)
(0.156563 0.128423 0.107385)
(0.138044 0.0888984 0.085497)
(0.0927028 0.0203182 0.0861172)
(0.0812145 0.00106956 0.0610116)
(0.067931 -0.00982999 0.0264674)
(0.0616401 -0.0194667 -0.0100867)
(0.0611329 -0.0322663 -0.0403921)
(0.0640394 -0.0483204 -0.0581887)
(0.0685164 -0.0644165 -0.0607766)
(0.0732863 -0.0755786 -0.0485858)
(0.0777785 -0.0761213 -0.0237525)
(0.0824152 -0.0606003 0.0107151)
(0.0890452 -0.0261 0.0503285)
(0.100096 0.022502 0.0878252)
(0.114491 0.0674653 0.114433)
(0.12477 0.0867129 0.125783)
(0.123415 0.0749995 0.123917)
(0.115652 0.0474369 0.112445)
(0.0503531 -0.0139802 0.104024)
(0.0412997 -0.021311 0.0863447)
(0.0311966 -0.0233284 0.059286)
(0.0276898 -0.0264153 0.0284852)
(0.030112 -0.0349968 0.00102399)
(0.0354527 -0.0496334 -0.0170454)
(0.0406398 -0.0671625 -0.0227576)
(0.0433067 -0.0821835 -0.0161529)
(0.042491 -0.0886898 0.00109365)
(0.0393107 -0.0817613 0.0264491)
(0.0370596 -0.0598614 0.0561465)
(0.0398414 -0.0277167 0.0847874)
(0.049027 0.00266359 0.106757)
(0.0601021 0.017722 0.119252)
(0.0649756 0.0135072 0.122861)
(0.0620082 -0.00137446 0.119398)
(-0.00867972 -0.0476758 0.107127)
(-0.0139561 -0.0415851 0.0967412)
(-0.0198315 -0.035212 0.0792271)
(-0.01874 -0.0323849 0.0576183)
(-0.0113091 -0.0364636 0.036851)
(-0.000997127 -0.048217 0.0215527)
(0.0079831 -0.0649004 0.0141551)
(0.0119759 -0.0813975 0.0148338)
(0.00940614 -0.0921738 0.0227302)
(0.00192113 -0.0932592 0.0365354)
(-0.0060758 -0.0838763 0.0541331)
(-0.00980444 -0.0674155 0.0724393)
(-0.00728519 -0.0508127 0.0883342)
(-0.00143566 -0.0409135 0.0999547)
(0.0013669 -0.039919 0.106692)
(-0.00076081 -0.044306 0.108069)
(-0.0705491 -0.0730402 0.0952926)
(-0.0706966 -0.0557129 0.0923874)
(-0.0728033 -0.0433144 0.0854365)
(-0.0666183 -0.0363686 0.0749075)
(-0.0534235 -0.0367141 0.0633768)
(-0.0369348 -0.0449499 0.0533876)
(-0.0221151 -0.0589535 0.0461291)
(-0.0138761 -0.0746352 0.0415777)
(-0.0147961 -0.0876954 0.0397965)
(-0.0233634 -0.0952588 0.0412604)
(-0.0347805 -0.0965453 0.046087)
(-0.0440659 -0.092842 0.0535129)
(-0.0489518 -0.0867955 0.0622913)
(-0.0511155 -0.0809378 0.0712192)
(-0.0548938 -0.0765916 0.0790362)
(-0.0571855 -0.0733123 0.0833219)
(-0.121565 -0.078355 0.0713208)
(-0.117374 -0.0551667 0.0752774)
(-0.117805 -0.0408456 0.0781683)
(-0.107396 -0.0328181 0.0786997)
(-0.0887043 -0.0315923 0.0773832)
(-0.0658172 -0.037283 0.0745856)
(-0.0442602 -0.0481841 0.0697197)
(-0.0300885 -0.0614065 0.0618771)
(-0.0271836 -0.0743666 0.0518039)
(-0.0347905 -0.0853723 0.0419142)
(-0.0481738 -0.0933499 0.0347817)
(-0.0621456 -0.0975972 0.0318257)
(-0.0739194 -0.0978424 0.0332341)
(-0.0840387 -0.0942815 0.0383176)
(-0.0955054 -0.0880158 0.0456727)
(-0.0983419 -0.080359 0.0520258)
(-0.174484 -0.0212142 0.024492)
(-0.160873 0.0102724 0.0279289)
(-0.157943 0.032242 0.0333261)
(-0.145107 0.0440011 0.037053)
(-0.126504 0.0442962 0.0394998)
(-0.105585 0.0331327 0.0414518)
(-0.0857968 0.0126554 0.0422492)
(-0.0711457 -0.0133636 0.0401096)
(-0.0650309 -0.0411758 0.033862)
(-0.0684923 -0.0672174 0.0241368)
(-0.0796649 -0.0881437 0.013299)
(-0.0949749 -0.100739 0.00412458)
(-0.111052 -0.102587 -0.0012437)
(-0.126345 -0.0931337 -0.00168292)
(-0.142069 -0.0745113 0.00300658)
(-0.139983 -0.0513355 0.0120407)
(-0.190639 0.00208707 -0.0303022)
(-0.178396 0.0277065 -0.0207914)
(-0.177066 0.0485019 -0.00767171)
(-0.163657 0.0609189 0.005441)
(-0.142559 0.0631388 0.0172012)
(-0.116878 0.0551313 0.0269164)
(-0.090078 0.0388443 0.0332318)
(-0.0668809 0.0172766 0.0341741)
(-0.0523337 -0.00640523 0.0283991)
(-0.0498153 -0.0295174 0.0165404)
(-0.0592619 -0.0494561 0.00131523)
(-0.0773678 -0.0632361 -0.0140117)
(-0.0996602 -0.0681167 -0.0267533)
(-0.122865 -0.0628159 -0.0349276)
(-0.146493 -0.0483552 -0.0369528)
(-0.148315 -0.0283532 -0.0302452)
(-0.192252 0.0269833 -0.0803368)
(-0.181286 0.0447947 -0.069659)
(-0.179725 0.061286 -0.0549133)
(-0.165159 0.0715194 -0.037889)
(-0.142007 0.0738359 -0.0203077)
(-0.113035 0.0684691 -0.00357274)
(-0.081379 0.0570012 0.0103623)
(-0.0517312 0.0415438 0.0188901)
(-0.030091 0.0239327 0.0194305)
(-0.0221533 0.00546254 0.0111185)
(-0.0301843 -0.012154 -0.00407337)
(-0.051429 -0.0259986 -0.0225789)
(-0.0800732 -0.0327395 -0.0409415)
(-0.110824 -0.0303482 -0.0562098)
(-0.141231 -0.0190997 -0.0656396)
(-0.147567 -0.00240253 -0.0637676)
(-0.180878 0.0504715 -0.118841)
(-0.172122 0.0599649 -0.111833)
(-0.169384 0.0713254 -0.100455)
(-0.15335 0.0784959 -0.0844249)
(-0.128341 0.0798796 -0.065056)
(-0.0969717 0.0760109 -0.0438086)
(-0.0620352 0.0685555 -0.0226983)
(-0.0277846 0.0593597 -0.00470937)
(-0.000305867 0.0494123 0.00631891)
(0.0130355 0.0384861 0.00700352)
(0.0070937 0.0264422 -0.00305819)
(-0.0167579 0.0150016 -0.0209303)
(-0.0514496 0.00746429 -0.0424862)
(-0.0893661 0.00663253 -0.0637294)
(-0.125797 0.0133536 -0.08077)
(-0.1378 0.0250804 -0.0861117)
(-0.156389 0.0681501 -0.14008)
(-0.151294 0.0693866 -0.141083)
(-0.147527 0.0749772 -0.136922)
(-0.130726 0.0783935 -0.125944)
(-0.104839 0.0780582 -0.108757)
(-0.0723666 0.0747511 -0.0863807)
(-0.0357943 0.0704014 -0.0605307)
(0.00128232 0.0670765 -0.0339352)
(0.0335453 0.0657394 -0.0108612)
(0.0530973 0.0650883 0.00299189)
(0.0514776 0.0622611 0.00321743)
(0.0268903 0.056138 -0.00975561)
(-0.0128874 0.0490552 -0.0316107)
(-0.0573792 0.0446855 -0.0571505)
(-0.099148 0.0455062 -0.0812515)
(-0.117962 0.0507392 -0.0955312)
(-0.117808 0.0781567 -0.139434)
(-0.11797 0.0717466 -0.15191)
(-0.114396 0.0708994 -0.157675)
(-0.0986398 0.069601 -0.154737)
(-0.0739409 0.0664425 -0.143021)
(-0.0425715 0.0624329 -0.123046)
(-0.00667542 0.059754 -0.0960203)
(0.0309793 0.0609054 -0.0640566)
(0.0665114 0.0675914 -0.0308087)
(0.0932423 0.0789211 -0.00251756)
(0.100218 0.089651 0.012463)
(0.0793939 0.0933304 0.00929749)
(0.0369063 0.0890468 -0.00925064)
(-0.0131006 0.0813556 -0.0366285)
(-0.0595365 0.0752031 -0.066277)
(-0.0859252 0.0724915 -0.090164)
(-0.0656012 0.0806732 -0.11508)
(-0.0717975 0.0680817 -0.140808)
(-0.0703631 0.0606921 -0.15817)
(-0.0581067 0.0539524 -0.165301)
(-0.0374236 0.0468119 -0.161484)
(-0.0101724 0.0404691 -0.146777)
(0.0219944 0.0373183 -0.12197)
(0.0572106 0.0402131 -0.0887055)
(0.0931922 0.0517888 -0.049758)
(0.125972 0.0732563 -0.0100167)
(0.145784 0.100443 0.0213577)
(0.137122 0.120745 0.0332783)
(0.0977486 0.124289 0.0229397)
(0.0445229 0.114755 -0.00272915)
(-0.00589694 0.101125 -0.035448)
(-0.039718 0.0890386 -0.0681427)
(-0.00414988 0.0773829 -0.069846)
(-0.0155028 0.0607868 -0.107816)
(-0.0183855 0.047862 -0.137392)
(-0.0119571 0.0358233 -0.155905)
(0.00202968 0.02405 -0.161656)
(0.0222208 0.0138789 -0.154123)
(0.047595 0.007878 -0.133812)