/*--------------------------------*- C++ -*----------------------------------*\
| =========                 |                                                 |
| \\      /  F ield         | OpenFOAM: The Open Source CFD Toolbox           |
|  \\    /   O peration     | Version:  3.0.0                                 |
|   \\  /    A nd           | Web:      www.OpenFOAM.org                      |
|    \\/     M anipulation  |                                                 |
\*---------------------------------------------------------------------------*/
FoamFile
{
    version     2.0;
    format      ascii;
    class       volScalarField;
    location    "0.012";
    object      p;
}
// * * * * * * * * * * * * * * * * * * * * * * * * * * * * * * * * * * * * * //

dimensions      [1 -1 -2 0 0 0 0];

internalField   nonuniform List<scalar> 
1000
(
99997.1
99996.7
99996.2
99995.5
99994.6
99993.4
99991.9
99990
99987.7
99984.9
99981.6
99977.5
99972.7
99966.9
99960.1
99952
99942.6
99931.6
99918.9
99904.2
99887.4
99868.1
99846.1
99821.3
99793.3
99762
99726.9
99688
99645
99597.7
99545.8
99489.1
99427.6
99361
99289.3
99212.3
99129.9
99042.2
98949
98850.4
98746.4
98637.1
98522.6
98402.8
98278
98148.2
98013.6
97874.4
97730.6
97582.5
97430.2
97273.9
97113.7
96949.9
96782.6
96612
96438.2
96261.5
96081.9
95899.6
95714.9
95527.7
95338.3
95146.9
94953.4
94758.1
94561.1
94362.4
94162.3
93960.7
93757.8
93553.6
93348.4
93142
92934.7
92726.4
92517.4
92307.5
92096.9
91885.6
91673.7
91461.2
91248.3
91034.8
90821
90606.7
90392.1
90177.2
89962
89746.5
89530.9
89315
89099
88882.8
88666.6
88450.3
88233.9
88017.4
87800.9
87584.5
87368
87151.6
86935.3
86719
86502.8
86286.7
86070.7
85854.8
85639.1
85423.5
85208.1
84992.8
84777.7
84562.9
84348.2
84133.8
83919.6
83705.6
83491.8
83278.3
83065.1
82852.1
82639.4
82427
82214.8
82003
81791.4
81580.2
81369.2
81158.6
80948.3
80738.3
80528.6
80319.3
80110.2
79901.6
79693.2
79485.3
79277.6
79070.4
78863.4
78656.9
78450.7
78244.8
78039.3
77834.2
77629.5
77425.1
77221.1
77017.5
76814.3
76611.5
76409
76206.9
76005.2
75803.9
75603
75402.5
75202.3
75002.6
74803.3
74604.3
74405.7
74207.6
74009.8
73812.5
73615.5
73418.9
73222.8
73027
72831.7
72636.7
72442.2
72248
72054.3
71861
71668
71475.5
71283.4
71091.7
70900.4
70709.5
70519
70328.9
70139.2
69950
69761.1
69572.7
69384.6
69197
69009.8
68823
68636.5
68450.5
68265
68079.8
67895
67710.6
67526.7
67343.1
67160
66977.2
66794.9
66612.9
66431.4
66250.3
66069.6
65889.3
65709.4
65529.9
65350.8
65172.1
64993.8
64816
64638.5
64461.4
64284.8
64108.5
63932.6
63757.2
63582.1
63407.5
63233.2
63059.3
62885.9
62712.8
62540.2
62367.9
62196
62024.6
61853.5
61682.8
61512.6
61342.7
61173.2
61004.1
60835.4
60667.1
60499.2
60331.7
60164.6
59997.8
59831.5
59665.6
59500
59334.8
59170
59005.7
58841.7
58678
58514.8
58352
58189.5
58027.4
57865.8
57704.5
57543.5
57383
57222.9
57063.1
56903.7
56744.7
56586.1
56427.8
56270
56112.5
55955.4
55798.7
55642.3
55486.3
55330.7
55175.5
55020.7
54866.2
54712.1
54558.4
54405
54252
54099.4
53947.2
53795.3
53643.8
53492.7
53341.9
53191.6
53041.5
52891.9
52742.6
52593.7
52445.1
52296.9
52149.1
52001.6
51854.5
51707.8
51561.4
51415.4
51269.7
51124.5
50979.5
50834.9
50690.7
50546.9
50403.4
50260.2
50117.5
49975
49833
49691.2
49549.9
49408.9
49268.2
49127.9
48988
48848.4
48709.1
48570.2
48431.7
48293.5
48155.6
48018.1
47881
47744.2
47607.7
47471.6
47335.9
47200.5
47065.4
46930.7
46796.3
46662.3
46528.6
46395.2
46262.2
46129.6
45997.3
45865.3
45733.7
45602.4
45471.4
45340.8
45210.6
45080.6
44951
44821.8
44692.9
44564.3
44436.1
44308.2
44180.6
44053.4
43926.5
43800
43673.7
43547.9
43422.3
43297.1
43172.3
43047.7
42923.5
42799.7
42676.2
42553
42430.1
42307.6
42185.4
42063.6
41942.1
41820.9
41700
41579.5
41459.4
41339.5
41220
41100.9
40982
40863.6
40745.4
40627.6
40510.1
40393
40276.2
40159.7
40043.6
39927.8
39812.3
39697.2
39582.5
39468
39354
39240.2
39126.8
39013.8
38901.1
38788.7
38676.7
38565.1
38453.8
38342.8
38232.2
38122
38012.1
37902.6
37793.4
37684.7
37576.2
37468.2
37360.5
37253.1
37146.2
37039.6
36933.4
36827.6
36722.2
36617.2
36512.5
36408.3
36304.5
36201
36098
35995.4
35893.2
35791.4
35690.1
35589.2
35488.7
35388.7
35289.1
35190
35091.4
34993.2
34895.6
34798.4
34701.7
34605.5
34509.9
34414.7
34320.1
34226.1
34132.7
34039.8
33947.5
33855.8
33764.7
33674.3
33584.5
33495.4
33407
33319.3
33232.3
33146
33060.6
32975.9
32892
32809
32726.9
32645.6
32565.3
32485.9
32407.6
32330.2
32253.9
32178.7
32104.5
32031.6
31959.8
31889.3
31820.1
31752.1
31685.6
31620.4
31556.6
31494.3
31433.6
31374.4
31316.8
31260.8
31206.6
31154
31103.2
31054.2
31006.9
30961.5
30918
30876.3
30836.5
30798.6
30762.6
30728.5
30696.3
30665.9
30637.3
30610.6
30585.7
30562.5
30540.9
30521.1
30502.8
30486
30470.6
30456.7
30444
30432.6
30422.3
30413.1
30404.9
30397.6
30391.1
30385.4
30380.4
30376.1
30372.3
30369
30366.2
30363.8
30361.7
30359.9
30358.4
30357.1
30356
30355.1
30354.4
30353.7
30353.2
30352.8
30352.4
30352.1
30351.9
30351.6
30351.5
30351.3
30351.2
30351.1
30351
30351
30350.9
30350.9
30350.8
30350.8
30350.8
30350.7
30350.7
30350.7
30350.7
30350.7
30350.6
30350.6
30350.6
30350.6
30350.6
30350.6
30350.6
30350.6
30350.6
30350.6
30350.5
30350.5
30350.5
30350.5
30350.5
30350.5
30350.5
30350.5
30350.5
30350.5
30350.5
30350.5
30350.5
30350.5
30350.5
30350.4
30350.4
30350.4
30350.4
30350.4
30350.4
30350.4
30350.4
30350.4
30350.4
30350.4
30350.4
30350.4
30350.3
30350.3
30350.3
30350.3
30350.3
30350.3
30350.3
30350.3
30350.3
30350.3
30350.3
30350.2
30350.2
30350.2
30350.2
30350.2
30350.2
30350.2
30350.2
30350.2
30350.2
30350.2
30350.2
30350.2
30350.2
30350.2
30350.1
30350.1
30350.1
30350.1
30350.1
30350.1
30350.1
30350.1
30350.1
30350.1
30350.1
30350.1
30350.1
30350.1
30350.1
30350.1
30350.1
30350.1
30350.1
30350.1
30350.1
30350.1
30350.1
30350.1
30350.1
30350.1
30350.1
30350.1
30350.1
30350.1
30350.1
30350.1
30350.1
30350.1
30350.1
30350.1
30350.1
30350.1
30350.1
30350.1
30350.1
30350.1
30350.1
30350.1
30350.1
30350.1
30350.1
30350.1
30350.1
30350
30350
30350
30350
30350
30350
30350
30350
30350
30350
30350
30350
30350
30350
30350
30350
30350
30350
30350
30350
30350
30350
30350
30350
30350
30350
30350
30350
30350
30349.9
30349.9
30349.9
30349.9
30349.9
30349.9
30349.9
30349.9
30349.9
30349.9
30349.9
30349.9
30349.9
30349.9
30349.9
30349.9
30349.9
30349.9
30349.9
30349.9
30349.9
30349.9
30349.9
30349.9
30349.9
30349.9
30349.9
30349.9
30349.9
30349.9
30349.9
30349.9
30349.9
30349.8
30349.8
30349.8
30349.8
30349.8
30349.8
30349.8
30349.8
30349.8
30349.8
30349.8
30349.8
30349.8
30349.8
30349.8
30349.8
30349.8
30349.8
30349.8
30349.8
30349.8
30349.8
30349.8
30349.8
30349.8
30349.8
30349.8
30349.8
30349.8
30349.8
30349.8
30349.8
30349.8
30349.8
30349.8
30349.8
30349.8
30349.8
30349.8
30349.7
30349.7
30349.7
30349.7
30349.7
30349.7
30349.7
30349.7
30349.7
30349.7
30349.7
30349.7
30349.7
30349.7
30349.7
30349.7
30349.7
30349.7
30349.7
30349.7
30349.7
30349.7
30349.7
30349.7
30349.7
30349.7
30349.7
30349.7
30349.7
30349.7
30349.7
30349.7
30349.7
30349.7
30349.7
30349.7
30349.7
30349.7
30349.7
30349.7
30349.7
30349.7
30349.7
30349.7
30349.7
30349.6
30349.6
30349.6
30349.6
30349.6
30349.6
30349.6
30349.6
30349.6
30349.6
30349.6
30349.6
30349.6
30349.6
30349.6
30349.6
30349.6
30349.6
30349.6
30349.6
30349.6
30349.6
30349.6
30349.5
30349.5
30349.5
30349.5
30349.5
30349.4
30349.4
30349.4
30349.3
30349.3
30349.3
30349.2
30349.2
30349.2
30349.1
30349.1
30349.1
30349.1
30349.1
30349.1
30349.2
30349.2
30349.2
30349.3
30349.3
30349.4
30349.4
30349.5
30349.5
30349.6
30349.6
30349.6
30349.6
30349.7
30349.7
30349.7
30349.7
30349.7
30349.7
30349.7
30349.6
30349.6
30349.6
30349.6
30349.6
30349.6
30349.6
30349.5
30349.5
30349.5
30349.5
30349.5
30349.5
30349.5
30349.5
30349.5
30349.5
30349.5
30349.4
30349.4
30349.4
30349.4
30349.4
30349.4
30349.4
30349.4
30349.4
30349.4
30349.4
30349.4
30349.4
30349.4
30349.4
30349.4
30349.4
30349.4
30349.4
30349.4
30349.4
30349.4
30349.4
30349.4
30349.4
30349.4
30349.4
30349.4
30349.4
30349.4
30349.4
30349.4
30349.4
30349.4
30349.4
30349.4
30349.4
30349.4
30349.3
30349.3
30349.3
30349.3
30349.3
30349.3
30349.3
30349.3
30349.3
30349.3
30349.3
30349.3
30349.3
30349.3
30349.3
30349.3
30349.3
30349.3
30349.3
30349.3
30349.3
30349.3
30349.4
30349.4
30349.6
30349.8
30350.1
30350.6
30351.3
30352.3
30353.7
30355.5
30357.9
30361
30364.9
30369.8
30375.6
30382.5
30390.6
30399.9
30410.4
30421.9
30434.3
30447.6
30461.4
30475.5
30489.7
30503.6
30517.1
30529.8
30541.6
30552.3
30561.9
30570.2
30577.3
30583.2
30588
30591.9
30594.9
30597.1
30598.8
30600
30600.8
30601.3
30601.7
30601.9
30602
30602.1
30602.1
30602.1
30602.1
30602.1
30602.1
30602.1
30602.1
30602.1
30602.1
)
;

boundaryField
{
    sides
    {
        type            zeroGradient;
    }
    empty
    {
        type            empty;
    }
}


// ************************************************************************* //
