/*--------------------------------*- C++ -*----------------------------------*\
| =========                 |                                                 |
| \\      /  F ield         | OpenFOAM: The Open Source CFD Toolbox           |
|  \\    /   O peration     | Version:  3.0.0                                 |
|   \\  /    A nd           | Web:      www.OpenFOAM.org                      |
|    \\/     M anipulation  |                                                 |
\*---------------------------------------------------------------------------*/
FoamFile
{
    version     2.0;
    format      ascii;
    class       surfaceScalarField;
    location    "0.012";
    object      phi;
}
// * * * * * * * * * * * * * * * * * * * * * * * * * * * * * * * * * * * * * //

dimensions      [1 0 -1 0 0 0 0];

internalField   nonuniform List<scalar> 
999
(
0.0148534
0.0233307
0.0329511
0.0441542
0.0574232
0.0733004
0.0923988
0.115414
0.143137
0.176465
0.21641
0.264114
0.320854
0.38805
0.467269
0.560233
0.668813
0.795025
0.941032
1.10912
1.3017
1.52126
1.7704
2.05172
2.36787
2.72148
3.11515
3.55136
4.03252
4.56086
5.13847
5.7672
6.44869
7.18432
7.97522
8.82224
9.72595
10.6866
11.7043
12.7787
13.9094
15.0956
16.3363
17.6304
18.9766
20.3734
21.8191
23.3121
24.8505
26.4325
28.0562
29.7196
31.4208
33.1579
34.9289
36.7318
38.565
40.4265
42.3146
44.2276
46.1639
48.1218
50.0998
52.0965
54.1106
56.1406
58.1854
60.2436
62.3143
64.3964
66.4887
68.5904
70.7005
72.8183
74.9428
77.0734
79.2093
81.3498
83.4943
85.6422
87.793
89.946
92.1008
94.257
96.414
98.5715
100.729
102.886
105.043
107.198
109.352
111.505
113.655
115.804
117.95
120.093
122.233
124.37
126.504
128.634
130.761
132.883
135.001
137.116
139.225
141.33
143.431
145.526
147.617
149.702
151.783
153.858
155.927
157.991
160.05
162.102
164.149
166.19
168.225
170.254
172.277
174.293
176.304
178.308
180.305
182.296
184.281
186.259
188.231
190.196
192.155
194.106
196.051
197.989
199.921
201.845
203.763
205.673
207.577
209.474
211.364
213.247
215.123
216.992
218.853
220.708
222.556
224.396
226.23
228.056
229.875
231.687
233.492
235.289
237.08
238.863
240.64
242.409
244.17
245.925
247.672
249.413
251.146
252.871
254.59
256.302
258.006
259.703
261.393
263.075
264.751
266.419
268.08
269.734
271.381
273.021
274.653
276.279
277.897
279.508
281.112
282.709
284.298
285.881
287.456
289.025
290.586
292.14
293.687
295.227
296.76
298.286
299.805
301.317
302.822
304.32
305.811
307.295
308.772
310.242
311.705
313.161
314.61
316.052
317.488
318.916
320.338
321.753
323.161
324.562
325.956
327.343
328.724
330.098
331.465
332.825
334.179
335.526
336.866
338.199
339.526
340.846
342.159
343.466
344.766
346.059
347.346
348.626
349.9
351.167
352.427
353.681
354.928
356.169
357.403
358.631
359.853
361.067
362.276
363.478
364.673
365.863
367.045
368.222
369.392
370.556
371.713
372.864
374.009
375.147
376.279
377.405
378.525
379.638
380.745
381.846
382.941
384.03
385.112
386.189
387.259
388.323
389.381
390.433
391.479
392.518
393.552
394.58
395.601
396.617
397.627
398.631
399.628
400.62
401.606
402.586
403.56
404.528
405.491
406.447
407.398
408.343
409.282
410.215
411.143
412.064
412.981
413.89
414.796
415.692
416.589
417.472
418.36
419.229
420.107
420.965
421.83
422.68
423.529
424.374
425.205
426.046
426.861
427.693
428.497
429.315
430.114
430.914
431.709
432.494
433.28
434.054
434.827
435.594
436.354
437.111
437.86
438.605
439.346
440.08
440.809
441.533
442.252
442.966
443.674
444.377
445.075
445.768
446.456
447.139
447.816
448.489
449.156
449.818
450.476
451.128
451.775
452.417
453.054
453.686
454.314
454.936
455.553
456.166
456.773
457.376
457.973
458.566
459.154
459.737
460.315
460.889
461.457
462.021
462.58
463.134
463.684
464.229
464.769
465.304
465.835
466.361
466.882
467.398
467.91
468.418
468.92
469.418
469.912
470.401
470.885
471.365
471.84
472.311
472.777
473.239
473.696
474.148
474.597
475.04
475.48
475.915
476.345
476.771
477.193
477.61
478.023
478.432
478.836
479.236
479.631
480.022
480.409
480.792
481.17
481.545
481.914
482.28
482.641
482.999
483.351
483.7
484.045
484.385
484.721
485.054
485.381
485.705
486.025
486.341
486.652
486.959
487.263
487.562
487.857
488.148
488.435
488.719
488.998
489.273
489.544
489.811
490.074
490.333
490.588
490.839
491.086
491.33
491.569
491.804
492.036
492.264
492.487
492.707
492.923
493.135
493.343
493.548
493.748
493.945
494.138
494.327
494.512
494.693
494.871
495.044
495.214
495.38
495.542
495.701
495.856
496.007
496.154
496.297
496.437
496.573
496.705
496.834
496.959
497.08
497.197
497.311
497.421
497.528
497.63
497.73
497.825
497.917
498.006
498.091
498.172
498.25
498.324
498.395
498.463
498.528
498.589
498.647
498.701
498.753
498.802
498.847
498.89
498.93
498.967
499.002
499.033
499.063
499.09
499.115
499.137
499.158
499.176
499.193
499.208
499.222
499.234
499.244
499.253
499.261
499.268
499.274
499.28
499.284
499.288
499.291
499.293
499.295
499.297
499.298
499.299
499.299
499.3
499.3
499.3
499.3
499.299
499.299
499.299
499.298
499.298
499.297
499.296
499.296
499.295
499.294
499.294
499.293
499.292
499.291
499.291
499.29
499.289
499.288
499.288
499.287
499.286
499.285
499.285
499.284
499.283
499.282
499.281
499.28
499.28
499.279
499.278
499.277
499.276
499.275
499.274
499.274
499.273
499.272
499.271
499.27
499.269
499.268
499.267
499.266
499.265
499.264
499.264
499.263
499.262
499.261
499.26
499.259
499.258
499.257
499.256
499.255
499.254
499.253
499.252
499.251
499.25
499.249
499.248
499.247
499.245
499.244
499.243
499.242
499.241
499.24
499.239
499.238
499.237
499.235
499.234
499.233
499.232
499.231
499.23
499.228
499.227
499.226
499.225
499.224
499.222
499.221
499.22
499.219
499.217
499.216
499.215
499.213
499.212
499.211
499.209
499.208
499.207
499.205
499.204
499.202
499.201
499.2
499.198
499.197
499.195
499.194
499.192
499.191
499.189
499.188
499.186
499.185
499.183
499.181
499.18
499.178
499.177
499.175
499.173
499.172
499.17
499.168
499.167
499.165
499.163
499.161
499.16
499.158
499.156
499.154
499.152
499.15
499.149
499.147
499.145
499.143
499.141
499.139
499.137
499.135
499.133
499.131
499.129
499.127
499.124
499.122
499.12
499.118
499.116
499.113
499.111
499.109
499.107
499.104
499.102
499.099
499.097
499.095
499.092
499.09
499.087
499.085
499.082
499.079
499.077
499.074
499.071
499.069
499.066
499.063
499.06
499.057
499.055
499.052
499.049
499.046
499.043
499.04
499.036
499.033
499.03
499.027
499.024
499.02
499.017
499.014
499.01
499.007
499.003
498.999
498.996
498.992
498.988
498.985
498.981
498.977
498.973
498.969
498.965
498.961
498.956
498.952
498.948
498.944
498.939
498.935
498.93
498.925
498.921
498.916
498.911
498.906
498.901
498.896
498.891
498.885
498.88
498.875
498.869
498.863
498.858
498.852
498.846
498.84
498.834
498.827
498.821
498.815
498.808
498.801
498.794
498.787
498.78
498.773
498.765
498.758
498.75
498.742
498.734
498.726
498.718
498.709
498.7
498.691
498.682
498.673
498.663
498.654
498.644
498.633
498.623
498.612
498.601
498.59
498.579
498.567
498.555
498.542
498.53
498.516
498.503
498.489
498.475
498.46
498.445
498.43
498.414
498.398
498.381
498.363
498.345
498.327
498.308
498.288
498.267
498.246
498.224
498.201
498.178
498.153
498.128
498.101
498.074
498.045
498.015
497.984
497.952
497.918
497.882
497.845
497.806
497.765
497.721
497.674
497.625
497.573
497.517
497.459
497.398
497.335
497.271
497.206
497.14
497.071
496.999
496.917
496.819
496.694
496.528
496.302
495.992
495.57
495.004
494.255
493.284
492.048
490.504
488.611
486.328
483.621
480.462
476.831
472.717
468.119
463.049
457.529
451.592
445.284
438.656
431.769
424.69
417.488
410.234
403
395.853
388.856
382.067
375.536
369.307
363.412
357.878
352.723
347.956
343.58
339.591
335.98
332.733
329.832
327.257
324.986
322.995
321.261
319.759
318.465
317.358
316.415
315.617
314.945
314.382
313.913
313.525
313.204
312.942
312.727
312.553
312.411
312.298
312.206
312.134
312.075
312.029
311.993
311.964
311.941
311.923
311.909
311.898
311.889
311.882
311.877
311.872
311.869
311.866
311.864
311.862
311.861
311.859
311.858
311.857
311.857
311.856
311.855
311.855
311.854
311.854
311.854
311.853
311.853
311.853
311.852
311.852
311.852
311.852
311.851
311.851
311.851
311.851
311.851
311.851
311.85
311.85
311.85
311.85
311.85
311.85
311.849
311.849
311.849
311.849
311.849
311.848
311.848
311.848
311.848
311.848
311.848
311.847
311.847
311.847
311.846
311.846
311.845
311.844
311.842
311.84
311.837
311.833
311.828
311.821
311.812
311.801
311.787
311.77
311.751
311.728
311.702
311.673
311.641
311.607
311.57
311.533
311.494
311.456
311.418
311.382
311.348
311.316
311.288
311.262
311.241
311.222
311.207
311.194
311.184
311.177
311.171
311.167
311.164
311.161
311.16
311.159
311.158
311.158
311.158
311.157
311.157
311.157
311.157
311.157
311.157
311.157
311.156
311.156
)
;

boundaryField
{
    sides
    {
        type            calculated;
        value           nonuniform List<scalar> 2(311.156 -0.00717613);
    }
    empty
    {
        type            empty;
        value           nonuniform 0();
    }
}


// ************************************************************************* //
