/*--------------------------------*- C++ -*----------------------------------*\
| =========                 |                                                 |
| \\      /  F ield         | OpenFOAM: The Open Source CFD Toolbox           |
|  \\    /   O peration     | Version:  3.0.0                                 |
|   \\  /    A nd           | Web:      www.OpenFOAM.org                      |
|    \\/     M anipulation  |                                                 |
\*---------------------------------------------------------------------------*/
FoamFile
{
    version     2.0;
    format      ascii;
    class       volScalarField;
    location    "0.012";
    object      T;
}
// * * * * * * * * * * * * * * * * * * * * * * * * * * * * * * * * * * * * * //

dimensions      [0 0 0 1 0 0 0];

internalField   nonuniform List<scalar> 
1000
(
348.429
348.429
348.428
348.428
348.427
348.425
348.424
348.422
348.42
348.417
348.414
348.41
348.405
348.399
348.392
348.384
348.375
348.364
348.351
348.336
348.32
348.3
348.278
348.254
348.226
348.194
348.159
348.121
348.078
348.03
347.978
347.922
347.86
347.793
347.721
347.644
347.562
347.473
347.38
347.281
347.176
347.066
346.951
346.83
346.704
346.573
346.437
346.296
346.15
346
345.846
345.687
345.524
345.357
345.186
345.012
344.834
344.653
344.469
344.282
344.092
343.9
343.704
343.507
343.307
343.105
342.9
342.694
342.486
342.276
342.064
341.851
341.636
341.42
341.202
340.984
340.763
340.542
340.32
340.096
339.871
339.646
339.419
339.192
338.964
338.735
338.505
338.275
338.043
337.812
337.579
337.346
337.112
336.878
336.644
336.408
336.173
335.937
335.7
335.463
335.226
334.988
334.75
334.511
334.272
334.033
333.794
333.554
333.314
333.074
332.833
332.592
332.351
332.11
331.869
331.627
331.385
331.143
330.901
330.659
330.416
330.174
329.931
329.688
329.445
329.202
328.958
328.715
328.472
328.228
327.985
327.741
327.497
327.253
327.009
326.765
326.521
326.277
326.033
325.789
325.545
325.301
325.056
324.812
324.568
324.324
324.079
323.835
323.59
323.346
323.102
322.857
322.613
322.369
322.124
321.88
321.635
321.391
321.147
320.902
320.658
320.414
320.17
319.925
319.681
319.437
319.193
318.949
318.705
318.461
318.217
317.973
317.729
317.485
317.241
316.997
316.753
316.51
316.266
316.022
315.779
315.535
315.292
315.048
314.805
314.561
314.318
314.075
313.832
313.589
313.346
313.103
312.86
312.617
312.374
312.131
311.889
311.646
311.403
311.161
310.919
310.676
310.434
310.192
309.95
309.707
309.465
309.224
308.982
308.74
308.498
308.257
308.015
307.773
307.532
307.291
307.049
306.808
306.567
306.326
306.085
305.844
305.604
305.363
305.122
304.882
304.641
304.401
304.16
303.92
303.68
303.44
303.2
302.96
302.72
302.481
302.241
302.001
301.762
301.523
301.283
301.044
300.805
300.566
300.327
300.088
299.849
299.611
299.372
299.134
298.895
298.657
298.419
298.181
297.943
297.705
297.467
297.229
296.991
296.754
296.516
296.279
296.042
295.805
295.567
295.33
295.094
294.857
294.62
294.383
294.147
293.91
293.674
293.438
293.202
292.966
292.73
292.494
292.258
292.023
291.787
291.551
291.316
291.081
290.847
290.61
290.378
290.139
289.91
289.666
289.445
289.192
288.983
288.716
288.523
288.238
288.065
287.763
287.602
287.294
287.132
286.835
286.654
286.383
286.172
285.932
285.695
285.472
285.228
285.005
284.768
284.536
284.306
284.071
283.842
283.609
283.376
283.146
282.913
282.682
282.452
282.22
281.989
281.758
281.527
281.297
281.066
280.836
280.605
280.375
280.145
279.915
279.685
279.455
279.226
278.996
278.767
278.538
278.309
278.08
277.851
277.622
277.393
277.165
276.937
276.708
276.48
276.252
276.024
275.797
275.569
275.342
275.114
274.887
274.66
274.433
274.207
273.98
273.754
273.527
273.301
273.075
272.849
272.624
272.398
272.173
271.948
271.722
271.497
271.273
271.048
270.824
270.599
270.375
270.151
269.927
269.704
269.48
269.257
269.034
268.811
268.588
268.366
268.144
267.921
267.699
267.478
267.256
267.035
266.814
266.593
266.372
266.152
265.931
265.711
265.492
265.272
265.053
264.834
264.615
264.396
264.178
263.96
263.742
263.524
263.307
263.09
262.874
262.657
262.442
262.226
262.011
261.795
261.581
261.367
261.153
260.939
260.726
260.513
260.301
260.089
259.878
259.667
259.456
259.246
259.036
258.827
258.619
258.411
258.204
257.997
257.791
257.585
257.38
257.176
256.973
256.77
256.568
256.367
256.167
255.967
255.769
255.571
255.375
255.179
254.985
254.791
254.599
254.408
254.218
254.029
253.842
253.657
253.473
253.29
253.109
252.929
252.752
252.576
252.402
252.231
252.061
251.893
251.728
251.565
251.405
251.247
251.092
250.94
250.79
250.644
250.5
250.36
250.223
250.09
249.96
249.834
249.711
249.592
249.478
249.367
249.26
249.158
249.059
248.965
248.875
248.79
248.708
248.631
248.559
248.49
248.426
248.366
248.31
248.258
248.21
248.166
248.125
248.088
248.054
248.023
247.995
247.97
247.947
247.927
247.909
247.893
247.879
247.867
247.857
247.847
247.839
247.833
247.827
247.822
247.818
247.814
247.811
247.809
247.807
247.805
247.804
247.803
247.802
247.802
247.801
247.801
247.801
247.801
247.801
247.801
247.801
247.801
247.801
247.801
247.802
247.802
247.802
247.803
247.803
247.803
247.804
247.804
247.804
247.805
247.805
247.806
247.806
247.806
247.807
247.807
247.808
247.808
247.808
247.809
247.809
247.81
247.81
247.81
247.811
247.811
247.812
247.812
247.813
247.813
247.814
247.814
247.815
247.815
247.816
247.816
247.816
247.817
247.817
247.818
247.818
247.819
247.819
247.82
247.82
247.821
247.821
247.822
247.822
247.823
247.823
247.824
247.825
247.825
247.826
247.826
247.827
247.827
247.828
247.828
247.829
247.829
247.83
247.831
247.831
247.832
247.832
247.833
247.834
247.834
247.835
247.835
247.836
247.837
247.837
247.838
247.839
247.839
247.84
247.841
247.841
247.842
247.843
247.844
247.844
247.845
247.846
247.846
247.847
247.848
247.849
247.849
247.85
247.851
247.852
247.853
247.853
247.854
247.855
247.856
247.857
247.857
247.858
247.859
247.86
247.861
247.862
247.862
247.863
247.864
247.865
247.866
247.867
247.868
247.869
247.87
247.871
247.872
247.872
247.873
247.874
247.875
247.876
247.877
247.878
247.879
247.881
247.882
247.883
247.884
247.885
247.886
247.887
247.888
247.889
247.89
247.892
247.893
247.894
247.895
247.896
247.898
247.899
247.9
247.901
247.903
247.904
247.905
247.907
247.908
247.909
247.911
247.912
247.914
247.915
247.916
247.918
247.919
247.921
247.922
247.924
247.925
247.927
247.929
247.93
247.932
247.934
247.935
247.937
247.939
247.94
247.942
247.944
247.946
247.948
247.95
247.952
247.953
247.955
247.957
247.959
247.961
247.964
247.966
247.968
247.97
247.972
247.974
247.977
247.979
247.981
247.984
247.986
247.989
247.991
247.994
247.996
247.999
248.002
248.004
248.007
248.01
248.013
248.016
248.019
248.022
248.025
248.028
248.031
248.034
248.038
248.041
248.044
248.048
248.051
248.055
248.059
248.063
248.066
248.07
248.074
248.078
248.083
248.087
248.091
248.096
248.1
248.105
248.11
248.115
248.12
248.125
248.13
248.135
248.141
248.147
248.152
248.158
248.164
248.171
248.177
248.184
248.19
248.197
248.204
248.212
248.219
248.227
248.235
248.243
248.252
248.261
248.27
248.279
248.289
248.299
248.309
248.32
248.331
248.343
248.355
248.367
248.38
248.393
248.407
248.422
248.437
248.453
248.469
248.487
248.505
248.524
248.544
248.565
248.588
248.611
248.637
248.664
248.692
248.722
248.753
248.785
248.817
248.85
248.883
248.918
248.956
249
249.054
249.125
249.221
249.352
249.532
249.776
250.103
250.533
251.088
251.793
252.671
253.747
255.048
256.595
258.411
260.517
262.928
265.658
268.716
272.106
275.826
279.87
284.224
288.869
293.778
298.921
304.259
309.75
315.346
320.998
326.654
332.261
337.769
343.129
348.297
353.234
357.907
362.29
366.366
370.121
373.552
376.661
379.454
381.944
384.146
386.079
387.764
389.222
390.474
391.544
392.451
393.216
393.857
394.391
394.834
395.198
395.497
395.74
395.938
396.098
396.226
396.329
396.411
396.477
396.528
396.569
396.602
396.627
396.647
396.663
396.675
396.685
396.693
396.699
396.704
396.708
396.711
396.713
396.715
396.717
396.718
396.72
396.721
396.722
396.722
396.723
396.723
396.724
396.724
396.725
396.725
396.725
396.726
396.726
396.726
396.727
396.727
396.727
396.727
396.727
396.728
396.728
396.728
396.728
396.728
396.728
396.728
396.729
396.729
396.729
396.729
396.729
396.729
396.73
396.73
396.73
396.73
396.73
396.73
396.731
396.731
396.731
396.731
396.732
396.732
396.734
396.735
396.737
396.74
396.745
396.75
396.758
396.767
396.78
396.795
396.815
396.838
396.865
396.896
396.932
396.973
397.017
397.064
397.115
397.167
397.22
397.273
397.324
397.374
397.421
397.464
397.503
397.537
397.567
397.592
397.613
397.63
397.644
397.654
397.662
397.668
397.672
397.675
397.677
397.678
397.679
397.679
397.679
397.68
397.68
397.68
397.68
397.68
397.68
397.68
397.68
397.68
)
;

boundaryField
{
    sides
    {
        type            zeroGradient;
    }
    empty
    {
        type            empty;
    }
}


// ************************************************************************* //
