/*--------------------------------*- C++ -*----------------------------------*\
| =========                 |                                                 |
| \\      /  F ield         | OpenFOAM: The Open Source CFD Toolbox           |
|  \\    /   O peration     | Version:  3.0.0                                 |
|   \\  /    A nd           | Web:      www.OpenFOAM.org                      |
|    \\/     M anipulation  |                                                 |
\*---------------------------------------------------------------------------*/
FoamFile
{
    version     2.0;
    format      ascii;
    class       volVectorField;
    location    "0.012";
    object      U;
}
// * * * * * * * * * * * * * * * * * * * * * * * * * * * * * * * * * * * * * //

dimensions      [0 1 -1 0 0 0 0];

internalField   nonuniform List<vector> 
1000
(
(0.00197186 0 0)
(0.00488356 0 0)
(0.0070348 0 0)
(0.00964773 0 0)
(0.01271 0 0)
(0.016358 0 0)
(0.020736 0 0)
(0.0260081 0 0)
(0.0323605 0 0)
(0.0400046 0 0)
(0.0491801 0 0)
(0.0601571 0 0)
(0.0732389 0 0)
(0.0887641 0 0)
(0.107108 0 0)
(0.128683 0 0)
(0.153941 0 0)
(0.183372 0 0)
(0.217501 0 0)
(0.256888 0 0)
(0.302128 0 0)
(0.353839 0 0)
(0.412664 0 0)
(0.479263 0 0)
(0.554306 0 0)
(0.638466 0 0)
(0.732411 0 0)
(0.836795 0 0)
(0.952253 0 0)
(1.07939 0 0)
(1.21877 0 0)
(1.37092 0 0)
(1.5363 0 0)
(1.71535 0 0)
(1.90841 0 0)
(2.11577 0 0)
(2.33767 0 0)
(2.57426 0 0)
(2.82564 0 0)
(3.09183 0 0)
(3.37281 0 0)
(3.66847 0 0)
(3.97868 0 0)
(4.30324 0 0)
(4.64189 0 0)
(4.99437 0 0)
(5.36033 0 0)
(5.73945 0 0)
(6.13133 0 0)
(6.53559 0 0)
(6.95181 0 0)
(7.37957 0 0)
(7.81846 0 0)
(8.26802 0 0)
(8.72785 0 0)
(9.19751 0 0)
(9.67659 0 0)
(10.1647 0 0)
(10.6613 0 0)
(11.1662 0 0)
(11.6789 0 0)
(12.1991 0 0)
(12.7263 0 0)
(13.2604 0 0)
(13.8009 0 0)
(14.3475 0 0)
(14.8999 0 0)
(15.4579 0 0)
(16.0212 0 0)
(16.5895 0 0)
(17.1626 0 0)
(17.7403 0 0)
(18.3223 0 0)
(18.9085 0 0)
(19.4985 0 0)
(20.0924 0 0)
(20.6898 0 0)
(21.2906 0 0)
(21.8947 0 0)
(22.502 0 0)
(23.1121 0 0)
(23.7252 0 0)
(24.341 0 0)
(24.9593 0 0)
(25.5802 0 0)
(26.2035 0 0)
(26.829 0 0)
(27.4568 0 0)
(28.0866 0 0)
(28.7185 0 0)
(29.3523 0 0)
(29.988 0 0)
(30.6255 0 0)
(31.2647 0 0)
(31.9056 0 0)
(32.5481 0 0)
(33.1921 0 0)
(33.8376 0 0)
(34.4845 0 0)
(35.1328 0 0)
(35.7824 0 0)
(36.4332 0 0)
(37.0854 0 0)
(37.7387 0 0)
(38.3931 0 0)
(39.0486 0 0)
(39.7053 0 0)
(40.3629 0 0)
(41.0215 0 0)
(41.6811 0 0)
(42.3417 0 0)
(43.0031 0 0)
(43.6654 0 0)
(44.3285 0 0)
(44.9924 0 0)
(45.6571 0 0)
(46.3226 0 0)
(46.9888 0 0)
(47.6557 0 0)
(48.3233 0 0)
(48.9915 0 0)
(49.6604 0 0)
(50.3299 0 0)
(51 0 0)
(51.6707 0 0)
(52.342 0 0)
(53.0138 0 0)
(53.6861 0 0)
(54.3589 0 0)
(55.0323 0 0)
(55.7061 0 0)
(56.3804 0 0)
(57.0551 0 0)
(57.7303 0 0)
(58.4059 0 0)
(59.0819 0 0)
(59.7583 0 0)
(60.4351 0 0)
(61.1123 0 0)
(61.7899 0 0)
(62.4678 0 0)
(63.146 0 0)
(63.8246 0 0)
(64.5035 0 0)
(65.1828 0 0)
(65.8623 0 0)
(66.5422 0 0)
(67.2223 0 0)
(67.9027 0 0)
(68.5834 0 0)
(69.2644 0 0)
(69.9457 0 0)
(70.6272 0 0)
(71.3089 0 0)
(71.9909 0 0)
(72.6731 0 0)
(73.3556 0 0)
(74.0382 0 0)
(74.7211 0 0)
(75.4042 0 0)
(76.0875 0 0)
(76.771 0 0)
(77.4548 0 0)
(78.1387 0 0)
(78.8228 0 0)
(79.507 0 0)
(80.1915 0 0)
(80.8761 0 0)
(81.5609 0 0)
(82.2458 0 0)
(82.931 0 0)
(83.6162 0 0)
(84.3017 0 0)
(84.9872 0 0)
(85.673 0 0)
(86.3588 0 0)
(87.0448 0 0)
(87.731 0 0)
(88.4173 0 0)
(89.1037 0 0)
(89.7902 0 0)
(90.4768 0 0)
(91.1636 0 0)
(91.8505 0 0)
(92.5375 0 0)
(93.2246 0 0)
(93.9118 0 0)
(94.5991 0 0)
(95.2866 0 0)
(95.9741 0 0)
(96.6617 0 0)
(97.3495 0 0)
(98.0373 0 0)
(98.7252 0 0)
(99.4132 0 0)
(100.101 0 0)
(100.789 0 0)
(101.478 0 0)
(102.166 0 0)
(102.854 0 0)
(103.543 0 0)
(104.232 0 0)
(104.92 0 0)
(105.609 0 0)
(106.298 0 0)
(106.986 0 0)
(107.675 0 0)
(108.364 0 0)
(109.053 0 0)
(109.743 0 0)
(110.432 0 0)
(111.121 0 0)
(111.81 0 0)
(112.5 0 0)
(113.189 0 0)
(113.878 0 0)
(114.568 0 0)
(115.257 0 0)
(115.947 0 0)
(116.637 0 0)
(117.326 0 0)
(118.016 0 0)
(118.706 0 0)
(119.396 0 0)
(120.085 0 0)
(120.775 0 0)
(121.465 0 0)
(122.155 0 0)
(122.845 0 0)
(123.535 0 0)
(124.225 0 0)
(124.915 0 0)
(125.605 0 0)
(126.295 0 0)
(126.986 0 0)
(127.676 0 0)
(128.366 0 0)
(129.056 0 0)
(129.747 0 0)
(130.437 0 0)
(131.127 0 0)
(131.817 0 0)
(132.508 0 0)
(133.198 0 0)
(133.889 0 0)
(134.579 0 0)
(135.269 0 0)
(135.96 0 0)
(136.65 0 0)
(137.341 0 0)
(138.031 0 0)
(138.722 0 0)
(139.412 0 0)
(140.103 0 0)
(140.793 0 0)
(141.484 0 0)
(142.174 0 0)
(142.865 0 0)
(143.555 0 0)
(144.246 0 0)
(144.936 0 0)
(145.627 0 0)
(146.317 0 0)
(147.008 0 0)
(147.698 0 0)
(148.389 0 0)
(149.079 0 0)
(149.77 0 0)
(150.461 0 0)
(151.151 0 0)
(151.842 0 0)
(152.532 0 0)
(153.223 0 0)
(153.913 0 0)
(154.603 0 0)
(155.294 0 0)
(155.984 0 0)
(156.675 0 0)
(157.365 0 0)
(158.056 0 0)
(158.746 0 0)
(159.436 0 0)
(160.127 0 0)
(160.817 0 0)
(161.507 0 0)
(162.198 0 0)
(162.888 0 0)
(163.578 0 0)
(164.268 0 0)
(164.959 0 0)
(165.649 0 0)
(166.339 0 0)
(167.029 0 0)
(167.719 0 0)
(168.409 0 0)
(169.099 0 0)
(169.789 0 0)
(170.479 0 0)
(171.169 0 0)
(171.859 0 0)
(172.549 0 0)
(173.239 0 0)
(173.929 0 0)
(174.618 0 0)
(175.308 0 0)
(175.998 0 0)
(176.688 0 0)
(177.377 0 0)
(178.067 0 0)
(178.756 0 0)
(179.446 0 0)
(180.135 0 0)
(180.825 0 0)
(181.514 0 0)
(182.203 0 0)
(182.892 0 0)
(183.581 0 0)
(184.271 0 0)
(184.96 0 0)
(185.649 0 0)
(186.338 0 0)
(187.026 0 0)
(187.715 0 0)
(188.404 0 0)
(189.093 0 0)
(189.781 0 0)
(190.47 0 0)
(191.158 0 0)
(191.847 0 0)
(192.535 0 0)
(193.223 0 0)
(193.912 0 0)
(194.6 0 0)
(195.288 0 0)
(195.976 0 0)
(196.663 0 0)
(197.351 0 0)
(198.039 0 0)
(198.726 0 0)
(199.414 0 0)
(200.101 0 0)
(200.789 0 0)
(201.476 0 0)
(202.163 0 0)
(202.85 0 0)
(203.537 0 0)
(204.223 0 0)
(204.91 0 0)
(205.597 0 0)
(206.283 0 0)
(206.969 0 0)
(207.655 0 0)
(208.341 0 0)
(209.027 0 0)
(209.713 0 0)
(210.399 0 0)
(211.084 0 0)
(211.769 0 0)
(212.455 0 0)
(213.14 0 0)
(213.825 0 0)
(214.509 0 0)
(215.194 0 0)
(215.878 0 0)
(216.562 0 0)
(217.246 0 0)
(217.93 0 0)
(218.614 0 0)
(219.297 0 0)
(219.981 0 0)
(220.664 0 0)
(221.346 0 0)
(222.029 0 0)
(222.711 0 0)
(223.394 0 0)
(224.075 0 0)
(224.757 0 0)
(225.439 0 0)
(226.12 0 0)
(226.801 0 0)
(227.481 0 0)
(228.162 0 0)
(228.842 0 0)
(229.522 0 0)
(230.201 0 0)
(230.88 0 0)
(231.559 0 0)
(232.237 0 0)
(232.916 0 0)
(233.593 0 0)
(234.271 0 0)
(234.948 0 0)
(235.625 0 0)
(236.301 0 0)
(236.977 0 0)
(237.652 0 0)
(238.327 0 0)
(239.002 0 0)
(239.676 0 0)
(240.349 0 0)
(241.022 0 0)
(241.695 0 0)
(242.367 0 0)
(243.038 0 0)
(243.709 0 0)
(244.379 0 0)
(245.049 0 0)
(245.718 0 0)
(246.386 0 0)
(247.053 0 0)
(247.72 0 0)
(248.386 0 0)
(249.052 0 0)
(249.716 0 0)
(250.38 0 0)
(251.043 0 0)
(251.705 0 0)
(252.366 0 0)
(253.026 0 0)
(253.685 0 0)
(254.343 0 0)
(255 0 0)
(255.656 0 0)
(256.31 0 0)
(256.964 0 0)
(257.616 0 0)
(258.266 0 0)
(258.916 0 0)
(259.564 0 0)
(260.21 0 0)
(260.855 0 0)
(261.498 0 0)
(262.139 0 0)
(262.779 0 0)
(263.417 0 0)
(264.053 0 0)
(264.686 0 0)
(265.318 0 0)
(265.948 0 0)
(266.575 0 0)
(267.199 0 0)
(267.821 0 0)
(268.441 0 0)
(269.058 0 0)
(269.671 0 0)
(270.282 0 0)
(270.889 0 0)
(271.494 0 0)
(272.094 0 0)
(272.691 0 0)
(273.284 0 0)
(273.873 0 0)
(274.458 0 0)
(275.039 0 0)
(275.615 0 0)
(276.186 0 0)
(276.752 0 0)
(277.312 0 0)
(277.867 0 0)
(278.417 0 0)
(278.96 0 0)
(279.497 0 0)
(280.027 0 0)
(280.551 0 0)
(281.067 0 0)
(281.575 0 0)
(282.076 0 0)
(282.569 0 0)
(283.053 0 0)
(283.528 0 0)
(283.994 0 0)
(284.451 0 0)
(284.897 0 0)
(285.334 0 0)
(285.759 0 0)
(286.174 0 0)
(286.578 0 0)
(286.97 0 0)
(287.35 0 0)
(287.717 0 0)
(288.073 0 0)
(288.415 0 0)
(288.745 0 0)
(289.061 0 0)
(289.364 0 0)
(289.654 0 0)
(289.93 0 0)
(290.193 0 0)
(290.441 0 0)
(290.677 0 0)
(290.898 0 0)
(291.107 0 0)
(291.302 0 0)
(291.484 0 0)
(291.654 0 0)
(291.811 0 0)
(291.956 0 0)
(292.09 0 0)
(292.213 0 0)
(292.325 0 0)
(292.427 0 0)
(292.519 0 0)
(292.603 0 0)
(292.678 0 0)
(292.745 0 0)
(292.805 0 0)
(292.858 0 0)
(292.905 0 0)
(292.947 0 0)
(292.983 0 0)
(293.015 0 0)
(293.042 0 0)
(293.066 0 0)
(293.087 0 0)
(293.104 0 0)
(293.119 0 0)
(293.132 0 0)
(293.143 0 0)
(293.152 0 0)
(293.16 0 0)
(293.167 0 0)
(293.172 0 0)
(293.177 0 0)
(293.181 0 0)
(293.184 0 0)
(293.186 0 0)
(293.189 0 0)
(293.19 0 0)
(293.192 0 0)
(293.193 0 0)
(293.194 0 0)
(293.195 0 0)
(293.196 0 0)
(293.196 0 0)
(293.197 0 0)
(293.197 0 0)
(293.198 0 0)
(293.198 0 0)
(293.198 0 0)
(293.198 0 0)
(293.198 0 0)
(293.199 0 0)
(293.199 0 0)
(293.199 0 0)
(293.199 0 0)
(293.199 0 0)
(293.199 0 0)
(293.199 0 0)
(293.199 0 0)
(293.199 0 0)
(293.199 0 0)
(293.2 0 0)
(293.2 0 0)
(293.2 0 0)
(293.2 0 0)
(293.2 0 0)
(293.2 0 0)
(293.2 0 0)
(293.2 0 0)
(293.2 0 0)
(293.2 0 0)
(293.2 0 0)
(293.2 0 0)
(293.2 0 0)
(293.2 0 0)
(293.2 0 0)
(293.2 0 0)
(293.2 0 0)
(293.2 0 0)
(293.2 0 0)
(293.2 0 0)
(293.2 0 0)
(293.2 0 0)
(293.201 0 0)
(293.201 0 0)
(293.201 0 0)
(293.201 0 0)
(293.201 0 0)
(293.201 0 0)
(293.201 0 0)
(293.201 0 0)
(293.201 0 0)
(293.201 0 0)
(293.201 0 0)
(293.201 0 0)
(293.201 0 0)
(293.201 0 0)
(293.201 0 0)
(293.201 0 0)
(293.201 0 0)
(293.201 0 0)
(293.201 0 0)
(293.202 0 0)
(293.202 0 0)
(293.202 0 0)
(293.202 0 0)
(293.202 0 0)
(293.202 0 0)
(293.202 0 0)
(293.202 0 0)
(293.202 0 0)
(293.202 0 0)
(293.202 0 0)
(293.202 0 0)
(293.202 0 0)
(293.202 0 0)
(293.202 0 0)
(293.202 0 0)
(293.202 0 0)
(293.202 0 0)
(293.202 0 0)
(293.202 0 0)
(293.202 0 0)
(293.202 0 0)
(293.202 0 0)
(293.202 0 0)
(293.202 0 0)
(293.202 0 0)
(293.202 0 0)
(293.202 0 0)
(293.202 0 0)
(293.202 0 0)
(293.202 0 0)
(293.202 0 0)
(293.202 0 0)
(293.202 0 0)
(293.202 0 0)
(293.202 0 0)
(293.202 0 0)
(293.202 0 0)
(293.202 0 0)
(293.202 0 0)
(293.202 0 0)
(293.202 0 0)
(293.202 0 0)
(293.202 0 0)
(293.202 0 0)
(293.202 0 0)
(293.202 0 0)
(293.202 0 0)
(293.202 0 0)
(293.202 0 0)
(293.202 0 0)
(293.202 0 0)
(293.202 0 0)
(293.202 0 0)
(293.202 0 0)
(293.202 0 0)
(293.202 0 0)
(293.202 0 0)
(293.202 0 0)
(293.202 0 0)
(293.202 0 0)
(293.202 0 0)
(293.202 0 0)
(293.202 0 0)
(293.203 0 0)
(293.203 0 0)
(293.203 0 0)
(293.203 0 0)
(293.203 0 0)
(293.203 0 0)
(293.203 0 0)
(293.203 0 0)
(293.203 0 0)
(293.203 0 0)
(293.203 0 0)
(293.203 0 0)
(293.203 0 0)
(293.203 0 0)
(293.203 0 0)
(293.203 0 0)
(293.203 0 0)
(293.203 0 0)
(293.203 0 0)
(293.203 0 0)
(293.203 0 0)
(293.203 0 0)
(293.203 0 0)
(293.203 0 0)
(293.203 0 0)
(293.203 0 0)
(293.203 0 0)
(293.203 0 0)
(293.203 0 0)
(293.203 0 0)
(293.203 0 0)
(293.203 0 0)
(293.203 0 0)
(293.203 0 0)
(293.203 0 0)
(293.203 0 0)
(293.203 0 0)
(293.203 0 0)
(293.203 0 0)
(293.203 0 0)
(293.203 0 0)
(293.203 0 0)
(293.203 0 0)
(293.203 0 0)
(293.203 0 0)
(293.203 0 0)
(293.203 0 0)
(293.203 0 0)
(293.203 0 0)
(293.203 0 0)
(293.203 0 0)
(293.203 0 0)
(293.203 0 0)
(293.203 0 0)
(293.203 0 0)
(293.203 0 0)
(293.203 0 0)
(293.203 0 0)
(293.203 0 0)
(293.203 0 0)
(293.203 0 0)
(293.203 0 0)
(293.203 0 0)
(293.203 0 0)
(293.203 0 0)
(293.203 0 0)
(293.203 0 0)
(293.203 0 0)
(293.203 0 0)
(293.203 0 0)
(293.203 0 0)
(293.203 0 0)
(293.203 0 0)
(293.203 0 0)
(293.203 0 0)
(293.203 0 0)
(293.203 0 0)
(293.203 0 0)
(293.203 0 0)
(293.203 0 0)
(293.203 0 0)
(293.203 0 0)
(293.203 0 0)
(293.203 0 0)
(293.203 0 0)
(293.203 0 0)
(293.203 0 0)
(293.203 0 0)
(293.203 0 0)
(293.203 0 0)
(293.203 0 0)
(293.203 0 0)
(293.203 0 0)
(293.203 0 0)
(293.203 0 0)
(293.203 0 0)
(293.203 0 0)
(293.203 0 0)
(293.203 0 0)
(293.203 0 0)
(293.203 0 0)
(293.203 0 0)
(293.203 0 0)
(293.203 0 0)
(293.203 0 0)
(293.203 0 0)
(293.203 0 0)
(293.203 0 0)
(293.203 0 0)
(293.203 0 0)
(293.203 0 0)
(293.203 0 0)
(293.203 0 0)
(293.203 0 0)
(293.203 0 0)
(293.203 0 0)
(293.203 0 0)
(293.203 0 0)
(293.203 0 0)
(293.203 0 0)
(293.203 0 0)
(293.203 0 0)
(293.203 0 0)
(293.203 0 0)
(293.203 0 0)
(293.203 0 0)
(293.203 0 0)
(293.203 0 0)
(293.203 0 0)
(293.203 0 0)
(293.203 0 0)
(293.203 0 0)
(293.203 0 0)
(293.203 0 0)
(293.203 0 0)
(293.203 0 0)
(293.203 0 0)
(293.203 0 0)
(293.203 0 0)
(293.203 0 0)
(293.203 0 0)
(293.203 0 0)
(293.203 0 0)
(293.203 0 0)
(293.203 0 0)
(293.203 0 0)
(293.203 0 0)
(293.203 0 0)
(293.203 0 0)
(293.203 0 0)
(293.203 0 0)
(293.203 0 0)
(293.203 0 0)
(293.203 0 0)
(293.203 0 0)
(293.203 0 0)
(293.203 0 0)
(293.203 0 0)
(293.203 0 0)
(293.203 0 0)
(293.203 0 0)
(293.203 0 0)
(293.203 0 0)
(293.203 0 0)
(293.203 0 0)
(293.203 0 0)
(293.203 0 0)
(293.203 0 0)
(293.203 0 0)
(293.203 0 0)
(293.203 0 0)
(293.203 0 0)
(293.203 0 0)
(293.203 0 0)
(293.203 0 0)
(293.203 0 0)
(293.203 0 0)
(293.202 0 0)
(293.202 0 0)
(293.202 0 0)
(293.201 0 0)
(293.2 0 0)
(293.199 0 0)
(293.198 0 0)
(293.197 0 0)
(293.196 0 0)
(293.194 0 0)
(293.193 0 0)
(293.191 0 0)
(293.19 0 0)
(293.189 0 0)
(293.188 0 0)
(293.187 0 0)
(293.186 0 0)
(293.186 0 0)
(293.186 0 0)
(293.186 0 0)
(293.187 0 0)
(293.188 0 0)
(293.189 0 0)
(293.19 0 0)
(293.192 0 0)
(293.193 0 0)
(293.194 0 0)
(293.195 0 0)
(293.197 0 0)
(293.198 0 0)
(293.199 0 0)
(293.199 0 0)
(293.2 0 0)
(293.201 0 0)
(293.201 0 0)
(293.201 0 0)
(293.202 0 0)
(293.202 0 0)
(293.202 0 0)
(293.202 0 0)
(293.202 0 0)
(293.202 0 0)
(293.202 0 0)
(293.202 0 0)
(293.202 0 0)
(293.202 0 0)
(293.202 0 0)
(293.202 0 0)
(293.202 0 0)
(293.202 0 0)
(293.202 0 0)
(293.202 0 0)
(293.202 0 0)
(293.202 0 0)
(293.202 0 0)
(293.202 0 0)
(293.202 0 0)
(293.202 0 0)
(293.202 0 0)
(293.202 0 0)
(293.202 0 0)
(293.202 0 0)
(293.202 0 0)
(293.202 0 0)
(293.202 0 0)
(293.202 0 0)
(293.202 0 0)
(293.202 0 0)
(293.202 0 0)
(293.202 0 0)
(293.202 0 0)
(293.202 0 0)
(293.202 0 0)
(293.202 0 0)
(293.202 0 0)
(293.202 0 0)
(293.202 0 0)
(293.202 0 0)
(293.202 0 0)
(293.202 0 0)
(293.202 0 0)
(293.202 0 0)
(293.202 0 0)
(293.202 0 0)
(293.202 0 0)
(293.202 0 0)
(293.202 0 0)
(293.202 0 0)
(293.202 0 0)
(293.202 0 0)
(293.202 0 0)
(293.202 0 0)
(293.202 0 0)
(293.202 0 0)
(293.202 0 0)
(293.202 0 0)
(293.202 0 0)
(293.202 0 0)
(293.202 0 0)
(293.202 0 0)
(293.202 0 0)
(293.202 0 0)
(293.202 0 0)
(293.202 0 0)
(293.202 0 0)
(293.202 0 0)
(293.202 0 0)
(293.202 0 0)
(293.202 0 0)
(293.201 0 0)
(293.201 0 0)
(293.201 0 0)
(293.201 0 0)
(293.2 0 0)
(293.198 0 0)
(293.196 0 0)
(293.193 0 0)
(293.188 0 0)
(293.181 0 0)
(293.171 0 0)
(293.158 0 0)
(293.14 0 0)
(293.116 0 0)
(293.086 0 0)
(293.048 0 0)
(293.002 0 0)
(292.945 0 0)
(292.879 0 0)
(292.801 0 0)
(292.713 0 0)
(292.613 0 0)
(292.504 0 0)
(292.386 0 0)
(292.261 0 0)
(292.131 0 0)
(291.998 0 0)
(291.866 0 0)
(291.735 0 0)
(291.61 0 0)
(291.492 0 0)
(291.383 0 0)
(291.284 0 0)
(291.196 0 0)
(291.119 0 0)
(291.054 0 0)
(291 0 0)
(290.956 0 0)
(290.922 0 0)
(290.895 0 0)
(290.874 0 0)
(290.859 0 0)
(290.849 0 0)
(290.841 0 0)
(290.837 0 0)
(290.834 0 0)
(290.832 0 0)
(290.831 0 0)
(290.83 0 0)
(290.83 0 0)
(290.829 0 0)
(290.829 0 0)
(290.829 0 0)
(290.829 0 0)
(290.829 0 0)
(290.829 0 0)
(290.829 0 0)
(290.829 0 0)
)
;

boundaryField
{
    sides
    {
        type            zeroGradient;
    }
    empty
    {
        type            empty;
    }
}


// ************************************************************************* //
