/*--------------------------------*- C++ -*----------------------------------*\
| =========                 |                                                 |
| \\      /  F ield         | OpenFOAM: The Open Source CFD Toolbox           |
|  \\    /   O peration     | Version:  3.0.0                                 |
|   \\  /    A nd           | Web:      www.OpenFOAM.org                      |
|    \\/     M anipulation  |                                                 |
\*---------------------------------------------------------------------------*/
FoamFile
{
    version     2.0;
    format      ascii;
    class       volScalarField;
    location    "200";
    object      nuTilda;
}
// * * * * * * * * * * * * * * * * * * * * * * * * * * * * * * * * * * * * * //

dimensions      [0 2 -1 0 0 0 0];

internalField   nonuniform List<scalar> 
10720
(
0.0967226
0.101393
0.106713
0.112551
0.119211
0.126704
0.135166
0.144401
0.154366
0.164621
0.174675
0.183618
0.190862
0.196226
0.199705
0.201505
0.201839
0.200994
0.199087
0.196311
0.192639
0.188153
0.18289
0.177092
0.171188
0.165455
0.159868
0.154274
0.148568
0.142745
0.136798
0.130694
0.124394
0.117845
0.110854
0.1033
0.0940305
0.0837129
0.0603105
0.0922796
0.0875714
0.082507
0.0764465
0.069452
0.0609745
0.050245
0.0377607
0.0346337
0.0324957
0.0394894
0.0460753
0.0513385
0.0558693
0.0601356
0.064346
0.0685497
0.0727161
0.0767913
0.0807438
0.0845653
0.0882629
0.0918521
0.0953244
0.0984961
0.10115
0.103259
0.104869
0.106034
0.106786
0.107172
0.107279
0.107169
0.106808
0.106105
0.105037
0.103162
0.100982
0.0918628
0.100364
0.0999805
0.0993227
0.0984198
0.0974586
0.0963792
0.095274
0.0942534
0.094285
0.0953496
0.0971223
0.0999787
0.103916
0.10877
0.114562
0.121006
0.127985
0.135232
0.142596
0.149717
0.156464
0.162424
0.167264
0.170555
0.171862
0.171268
0.16917
0.165903
0.161815
0.157191
0.152247
0.147135
0.141969
0.136846
0.131872
0.127145
0.122887
0.119048
0.113795
0.100756
0.100837
0.101051
0.100796
0.100287
0.099471
0.0981851
0.09625
0.0933095
0.0899318
0.0858265
0.0815547
0.0773652
0.0732996
0.0694649
0.0659157
0.0627247
0.0599171
0.057514
0.0555055
0.0538854
0.0526342
0.0517286
0.0511264
0.0508008
0.0507194
0.0508213
0.0510412
0.0513233
0.0516784
0.0527664
0.0551676
0.058404
0.0617902
0.0648912
0.0676747
0.0700335
0.0741298
0.0778017
0.121924
0.121752
0.121371
0.120782
0.1201
0.119218
0.118134
0.116912
0.115485
0.114065
0.112842
0.11191
0.11124
0.11081
0.110473
0.110276
0.110302
0.110609
0.110901
0.110483
0.110613
0.111478
0.112917
0.117767
0.124857
0.132271
0.139077
0.14485
0.149408
0.152697
0.154782
0.15582
0.15602
0.155585
0.154713
0.15345
0.152196
0.149506
0.149803
0.122095
0.122043
0.12205
0.12179
0.121341
0.120665
0.119685
0.118363
0.116723
0.114714
0.112339
0.109663
0.106739
0.10358
0.100276
0.096868
0.0934214
0.089983
0.0866063
0.0833059
0.0801101
0.0770167
0.0740296
0.071059
0.0680555
0.0650819
0.062179
0.0593888
0.056742
0.0542743
0.0519825
0.0503789
0.0502674
0.0512728
0.0529543
0.0551154
0.057685
0.0605885
0.0656253
0.129065
0.128958
0.128749
0.128436
0.128058
0.127572
0.126972
0.126281
0.125464
0.124532
0.123485
0.122326
0.121119
0.119969
0.118791
0.117246
0.115432
0.113464
0.111364
0.109109
0.106824
0.10466
0.102672
0.101355
0.101122
0.102068
0.104115
0.109914
0.117346
0.125271
0.133139
0.140557
0.147281
0.153214
0.158415
0.162914
0.16714
0.169534
0.173051
0.129146
0.129144
0.12913
0.128997
0.128763
0.128404
0.127881
0.127171
0.126263
0.125136
0.123783
0.122218
0.12045
0.118469
0.116307
0.113975
0.111502
0.108915
0.106248
0.103519
0.100756
0.0979649
0.0951449
0.0922129
0.089104
0.0858643
0.0825237
0.0791184
0.0756811
0.0722441
0.0688352
0.0654908
0.0623182
0.0594718
0.0569185
0.0556306
0.0559661
0.0567285
0.0594331
0.132674
0.1326
0.132459
0.132257
0.132014
0.131702
0.13132
0.130877
0.130355
0.129756
0.129079
0.128311
0.127446
0.126482
0.125411
0.124216
0.122853
0.121294
0.119499
0.11746
0.115154
0.112615
0.109859
0.107118
0.104974
0.103323
0.101902
0.10054
0.100419
0.101754
0.10721
0.114903
0.123981
0.133881
0.144182
0.154611
0.16528
0.175553
0.185192
0.132729
0.132724
0.132717
0.132626
0.132477
0.132243
0.131908
0.131461
0.130894
0.130199
0.12937
0.128411
0.127319
0.126083
0.124714
0.123208
0.121572
0.119812
0.117945
0.115973
0.11391
0.111759
0.10951
0.107097
0.104463
0.101631
0.0986156
0.0954373
0.0921175
0.0886795
0.0851471
0.0815473
0.0779022
0.0742504
0.0706084
0.0670453
0.0638652
0.0605991
0.0591555
0.134735
0.134681
0.134587
0.134451
0.134283
0.134069
0.133809
0.133505
0.133148
0.132738
0.132274
0.131745
0.131149
0.130478
0.129721
0.128867
0.127898
0.126793
0.125518
0.124049
0.12234
0.120367
0.118095
0.115557
0.112923
0.110315
0.107701
0.105359
0.103448
0.101619
0.100277
0.100364
0.104421
0.111751
0.121906
0.134663
0.149793
0.167875
0.186504
0.134769
0.134767
0.134761
0.134699
0.134599
0.134437
0.134204
0.133896
0.133512
0.133048
0.132497
0.131864
0.131146
0.130333
0.129431
0.128433
0.127339
0.126148
0.124865
0.123488
0.12202
0.120455
0.118783
0.11695
0.114905
0.112653
0.110194
0.107532
0.104674
0.10163
0.0984108
0.095035
0.0915175
0.0878744
0.0841192
0.080211
0.0761642
0.0716663
0.0648259
0.13605
0.136012
0.135943
0.135843
0.135722
0.135567
0.135378
0.13516
0.134903
0.134609
0.134276
0.133896
0.133468
0.132985
0.132438
0.131821
0.131118
0.130317
0.129396
0.128335
0.127102
0.125673
0.124013
0.122105
0.119977
0.117662
0.115158
0.112533
0.10989
0.107165
0.104773
0.102648
0.100877
0.100691
0.104997
0.113952
0.128002
0.149793
0.177567
0.136075
0.136072
0.136066
0.136021
0.135949
0.13583
0.135658
0.135433
0.135157
0.134826
0.134438
0.133995
0.133495
0.132933
0.13231
0.13162
0.13086
0.130031
0.129132
0.128159
0.12711
0.12598
0.124755
0.123397
0.12186
0.12014
0.118229
0.116121
0.113808
0.111289
0.108562
0.10563
0.1025
0.0991753
0.0956575
0.0919111
0.087831
0.0834194
0.0746159
0.136953
0.136924
0.136873
0.136799
0.136707
0.136591
0.13645
0.136285
0.136093
0.135872
0.135623
0.135339
0.135018
0.134656
0.134245
0.133781
0.133252
0.132649
0.131957
0.131163
0.130243
0.129183
0.12796
0.126555
0.124973
0.123208
0.121227
0.119013
0.116572
0.113911
0.111134
0.108283
0.105501
0.103046
0.101292
0.102134
0.109561
0.12783
0.160647
0.13697
0.136967
0.136961
0.136925
0.136872
0.136782
0.13665
0.136478
0.13627
0.136023
0.135736
0.135412
0.135049
0.134643
0.134195
0.133699
0.133154
0.132557
0.131908
0.131202
0.130437
0.129607
0.1287
0.127687
0.126535
0.125234
0.123773
0.122141
0.120325
0.118314
0.116098
0.113671
0.111024
0.108152
0.105042
0.101663
0.0978529
0.0938149
0.0849651
0.137607
0.137585
0.137545
0.137488
0.137417
0.137326
0.137215
0.137088
0.136939
0.136769
0.136577
0.136359
0.136114
0.135837
0.135522
0.135167
0.134763
0.134304
0.133775
0.133167
0.132464
0.131653
0.130717
0.129647
0.128447
0.127104
0.125584
0.123864
0.121915
0.119709
0.117228
0.114484
0.111535
0.108412
0.10542
0.102664
0.101677
0.110165
0.140408
0.137619
0.137615
0.137608
0.137579
0.137539
0.137468
0.137363
0.137228
0.137066
0.136875
0.136654
0.136408
0.136135
0.135832
0.135498
0.135131
0.134728
0.134287
0.133805
0.13328
0.132709
0.132086
0.131402
0.130635
0.129759
0.128767
0.127646
0.126386
0.124972
0.123389
0.121625
0.119664
0.117494
0.115098
0.112455
0.109532
0.10614
0.102557
0.0943994
0.1381
0.138083
0.138052
0.138006
0.137949
0.137876
0.137788
0.137686
0.137568
0.137433
0.137281
0.137108
0.136914
0.136696
0.136448
0.136168
0.135849
0.135487
0.135072
0.134597
0.134049
0.133419
0.132693
0.131862
0.13093
0.129888
0.128709
0.127371
0.125843
0.124097
0.122095
0.1198
0.117185
0.114215
0.110979
0.107342
0.103984
0.101907
0.12261
0.138109
0.138104
0.138096
0.138072
0.13804
0.137984
0.137898
0.137789
0.137658
0.137507
0.137333
0.137141
0.136929
0.136696
0.136441
0.136161
0.135855
0.13552
0.135155
0.134756
0.134321
0.133844
0.133319
0.132728
0.132052
0.131284
0.130414
0.129433
0.128326
0.127081
0.125683
0.124115
0.122361
0.120401
0.118208
0.115748
0.112829
0.109736
0.102534
0.138484
0.13847
0.138445
0.138407
0.138361
0.138301
0.138229
0.138146
0.138049
0.13794
0.137817
0.137677
0.137521
0.137346
0.137148
0.136925
0.136671
0.136382
0.136053
0.135675
0.135238
0.134736
0.13416
0.133503
0.132766
0.13194
0.131008
0.12995
0.128742
0.127358
0.125761
0.123913
0.121769
0.119257
0.116331
0.112806
0.108971
0.103019
0.11184
0.13849
0.138485
0.138476
0.138454
0.138429
0.138383
0.138313
0.138222
0.138115
0.137992
0.137852
0.137698
0.13753
0.137346
0.137147
0.136929
0.136691
0.136432
0.13615
0.13584
0.135502
0.135131
0.134721
0.134258
0.133728
0.133125
0.132441
0.131668
0.130794
0.129807
0.128694
0.12744
0.126028
0.124437
0.122639
0.120602
0.118142
0.115531
0.109356
0.13879
0.138779
0.138758
0.138726
0.138687
0.138637
0.138576
0.138507
0.138426
0.138335
0.138234
0.13812
0.137992
0.137848
0.137686
0.137505
0.137299
0.137064
0.136796
0.136491
0.13614
0.135736
0.135273
0.134746
0.134155
0.133493
0.132744
0.131894
0.130925
0.129814
0.128533
0.127045
0.125307
0.123254
0.120816
0.117754
0.114214
0.108097
0.10802
0.138795
0.138788
0.138779
0.138759
0.138738
0.1387
0.138641
0.138565
0.138476
0.138374
0.138259
0.138134
0.137998
0.13785
0.137691
0.137518
0.137331
0.137126
0.136903
0.13666
0.136393
0.1361
0.135774
0.135406
0.134985
0.134505
0.133961
0.133344
0.132646
0.131856
0.130963
0.129954
0.128813
0.127523
0.126054
0.124379
0.122331
0.120158
0.114976
0.139039
0.13903
0.139012
0.138985
0.138951
0.138907
0.138855
0.138796
0.138729
0.138652
0.138566
0.138471
0.138365
0.138246
0.138112
0.137961
0.137792
0.1376
0.137379
0.137128
0.136841
0.136512
0.136135
0.135706
0.135227
0.13469
0.134082
0.133391
0.132604
0.131701
0.13066
0.129453
0.128041
0.126366
0.124364
0.121823
0.118805
0.11351
0.108692
0.139043
0.139036
0.139025
0.139007
0.138989
0.138957
0.138907
0.138843
0.138768
0.138682
0.138586
0.138482
0.13837
0.13825
0.13812
0.137981
0.137831
0.137667
0.137488
0.137294
0.137081
0.136846
0.136584
0.136287
0.135948
0.135562
0.135123
0.134626
0.134063
0.133425
0.132702
0.131883
0.130956
0.129904
0.128702
0.127325
0.125629
0.123831
0.119548
0.139246
0.139237
0.139221
0.139197
0.139167
0.139129
0.139084
0.139033
0.138974
0.13891
0.138837
0.138756
0.138666
0.138567
0.138455
0.138328
0.138186
0.138026
0.137844
0.137635
0.137396
0.137125
0.136815
0.136463
0.136069
0.135628
0.13513
0.134564
0.133917
0.133176
0.132323
0.131332
0.130175
0.128803
0.127159
0.125071
0.122525
0.118389
0.111874
0.139249
0.139241
0.13923
0.139212
0.139197
0.13917
0.139127
0.139072
0.139008
0.138935
0.138853
0.138766
0.138672
0.138573
0.138467
0.138352
0.138229
0.138097
0.137953
0.137795
0.137622
0.137431
0.137219
0.136978
0.136701
0.136387
0.13603
0.135625
0.135165
0.134645
0.134055
0.133387
0.132627
0.131764
0.130775
0.12964
0.128236
0.126747
0.123239
0.139419
0.139411
0.139396
0.139374
0.139347
0.139313
0.139273
0.139228
0.139178
0.139122
0.13906
0.138991
0.138914
0.138829
0.138735
0.138628
0.138508
0.138372
0.13822
0.138045
0.137845
0.137618
0.13736
0.137068
0.136742
0.136377
0.135964
0.135496
0.134961
0.134348
0.133641
0.132822
0.131864
0.13073
0.129372
0.12766
0.125494
0.122379
0.115877
0.139421
0.139413
0.139401
0.139384
0.139371
0.139348
0.139311
0.139263
0.139207
0.139145
0.139075
0.139001
0.138922
0.138838
0.13875
0.138655
0.138554
0.138444
0.138327
0.138198
0.138056
0.137899
0.137725
0.137527
0.1373
0.137041
0.136748
0.136416
0.136038
0.13561
0.135124
0.134574
0.133948
0.133235
0.132417
0.131476
0.130311
0.129072
0.126212
0.139565
0.139558
0.139543
0.139523
0.139498
0.139467
0.139432
0.139393
0.139348
0.139299
0.139246
0.139187
0.139121
0.139048
0.138966
0.138877
0.138775
0.138659
0.138529
0.138382
0.138214
0.138022
0.137804
0.13756
0.137287
0.136982
0.136638
0.136247
0.135801
0.13529
0.134701
0.134018
0.13322
0.132275
0.131143
0.129733
0.127891
0.125512
0.119763
0.139567
0.13956
0.139547
0.13953
0.139519
0.139499
0.139467
0.139425
0.139376
0.139322
0.139262
0.139198
0.139131
0.139059
0.138985
0.138906
0.138821
0.13873
0.138632
0.138526
0.138409
0.138279
0.138135
0.137971
0.137783
0.137569
0.137325
0.13705
0.136738
0.136383
0.13598
0.135523
0.135004
0.134412
0.133731
0.132948
0.131977
0.130941
0.12861
0.139691
0.139684
0.139669
0.13965
0.139627
0.139599
0.139567
0.139532
0.139493
0.13945
0.139403
0.139352
0.139296
0.139233
0.139163
0.139085
0.138998
0.1389
0.138788
0.138661
0.138519
0.138357
0.138172
0.137965
0.137735
0.137479
0.137189
0.13686
0.136485
0.136056
0.135562
0.134989
0.134319
0.133528
0.132577
0.131406
0.129845
0.127965
0.123156
0.139693
0.139685
0.139673
0.139655
0.139645
0.139628
0.1396
0.139563
0.139521
0.139473
0.13942
0.139365
0.139307
0.139246
0.139182
0.139115
0.139045
0.138968
0.138886
0.138797
0.1387
0.138592
0.138472
0.138334
0.138177
0.137999
0.137796
0.137566
0.137305
0.13701
0.136674
0.136292
0.135859
0.135364
0.134795
0.134139
0.133326
0.132455
0.130553
0.139799
0.139791
0.139776
0.139758
0.139737
0.139711
0.139683
0.139651
0.139617
0.13958
0.139539
0.139494
0.139445
0.139391
0.139331
0.139263
0.139188
0.139104
0.139008
0.138899
0.138776
0.138637
0.138481
0.138304
0.138108
0.137891
0.137646
0.137367
0.13705
0.136687
0.13627
0.135786
0.135221
0.134554
0.133752
0.132771
0.13145
0.129915
0.125984
0.139801
0.139794
0.139781
0.139764
0.139755
0.13974
0.139715
0.139683
0.139645
0.139603
0.139556
0.139508
0.139457
0.139405
0.13935
0.139293
0.139232
0.139168
0.139099
0.139024
0.138942
0.138852
0.138751
0.138636
0.138503
0.138354
0.138184
0.13799
0.137771
0.137523
0.137242
0.136922
0.136557
0.136142
0.135664
0.135112
0.134428
0.133692
0.132135
0.139893
0.139884
0.139869
0.139852
0.139832
0.139809
0.139783
0.139755
0.139725
0.139692
0.139657
0.139618
0.139575
0.139528
0.139476
0.139418
0.139352
0.139279
0.139197
0.139103
0.138996
0.138876
0.138742
0.138591
0.138424
0.138237
0.138028
0.137791
0.137521
0.137212
0.136857
0.136446
0.135967
0.135402
0.134722
0.133894
0.132778
0.131496
0.128301
0.139895
0.139889
0.139876
0.139858
0.13985
0.139837
0.139816
0.139786
0.139753
0.139715
0.139674
0.139631
0.139587
0.139541
0.139494
0.139445
0.139393
0.139338
0.13928
0.139217
0.139147
0.139071
0.138985
0.138888
0.138776
0.138649
0.138506
0.138343
0.138159
0.137949
0.137711
0.137442
0.137134
0.136783
0.136379
0.135913
0.135337
0.134712
0.133433
0.139974
0.139965
0.13995
0.139933
0.139915
0.139893
0.139871
0.139847
0.13982
0.139791
0.139761
0.139727
0.13969
0.139649
0.139603
0.139554
0.139497
0.139432
0.13936
0.139279
0.139188
0.139083
0.138966
0.138836
0.138693
0.138532
0.138352
0.138149
0.137918
0.137653
0.13735
0.136999
0.136591
0.136109
0.135531
0.134828
0.133883
0.132798
0.130195
0.139978
0.139972
0.139959
0.139941
0.139934
0.139923
0.139904
0.139878
0.139847
0.139813
0.139776
0.139738
0.139699
0.139659
0.139618
0.139576
0.139531
0.139484
0.139434
0.13938
0.139322
0.139256
0.139184
0.139101
0.139007
0.138899
0.138777
0.138639
0.138483
0.138305
0.138103
0.137875
0.137614
0.137317
0.136974
0.136578
0.136091
0.135558
0.134504
0.140046
0.140036
0.140021
0.140005
0.139988
0.139968
0.139948
0.139927
0.139904
0.139879
0.139853
0.139824
0.139792
0.139757
0.139717
0.139673
0.139624
0.139568
0.139505
0.139433
0.139353
0.139263
0.139161
0.139048
0.138924
0.138786
0.13863
0.138455
0.138255
0.138028
0.137767
0.137466
0.137116
0.136703
0.136209
0.135609
0.134809
0.133884
0.131751
0.14005
0.140046
0.140033
0.140015
0.140008
0.139998
0.139981
0.139958
0.13993
0.139899
0.139866
0.139832
0.139797
0.139762
0.139725
0.139689
0.139651
0.13961
0.139567
0.139521
0.139471
0.139416
0.139354
0.139283
0.139202
0.139111
0.139007
0.138889
0.138756
0.138606
0.138434
0.138239
0.138017
0.137764
0.137473
0.137135
0.136721
0.136265
0.135394
0.140109
0.140098
0.140083
0.140068
0.140052
0.140035
0.140017
0.139999
0.13998
0.139959
0.139936
0.139911
0.139884
0.139853
0.139819
0.139779
0.139736
0.139687
0.139633
0.13957
0.139499
0.13942
0.139332
0.139233
0.139124
0.139005
0.138871
0.138718
0.138545
0.138349
0.138124
0.137864
0.137562
0.137207
0.136783
0.136269
0.135588
0.134795
0.133056
0.140114
0.140111
0.140098
0.14008
0.140073
0.140065
0.140049
0.140028
0.140003
0.139975
0.139945
0.139914
0.139883
0.139852
0.13982
0.139788
0.139755
0.13972
0.139683
0.139643
0.1396
0.139553
0.139501
0.13944
0.13937
0.139292
0.139204
0.139103
0.138989
0.13886
0.138714
0.138548
0.138358
0.138142
0.137893
0.137605
0.137251
0.13686
0.136137
0.140164
0.140153
0.140138
0.140124
0.140109
0.140095
0.14008
0.140065
0.140049
0.140031
0.140012
0.139991
0.139966
0.139939
0.139909
0.139875
0.139836
0.139793
0.139745
0.13969
0.139628
0.139558
0.139481
0.139395
0.139301
0.139196
0.139079
0.138947
0.138797
0.138626
0.138431
0.138206
0.137944
0.137638
0.137272
0.13683
0.136248
0.135563
0.134169
0.140171
0.140169
0.140156
0.140138
0.140132
0.140125
0.140111
0.140091
0.140068
0.140042
0.140015
0.139987
0.139959
0.139932
0.139904
0.139875
0.139846
0.139816
0.139785
0.139751
0.139713
0.139673
0.139628
0.139576
0.139516
0.139448
0.139373
0.139287
0.139189
0.139078
0.138953
0.138811
0.138649
0.138463
0.138249
0.138003
0.137701
0.137364
0.136761
0.140213
0.140201
0.140187
0.140174
0.140161
0.140149
0.140137
0.140125
0.140112
0.140097
0.140081
0.140062
0.140041
0.140017
0.13999
0.13996
0.139926
0.139888
0.139844
0.139797
0.139743
0.139681
0.139612
0.139537
0.139455
0.139364
0.139261
0.139146
0.139015
0.138866
0.138696
0.138501
0.138274
0.138009
0.137692
0.137309
0.136813
0.136214
0.135103
0.140221
0.14022
0.140208
0.140189
0.140184
0.140178
0.140166
0.140147
0.140125
0.140101
0.140077
0.140052
0.140026
0.140002
0.139978
0.139953
0.139928
0.139901
0.139874
0.139845
0.139813
0.139778
0.139739
0.139695
0.139644
0.139585
0.139519
0.139446
0.139362
0.139267
0.139159
0.139036
0.138898
0.138738
0.138554
0.138342
0.138084
0.137794
0.137289
0.140256
0.140244
0.140231
0.140219
0.140208
0.140199
0.14019
0.140181
0.14017
0.140158
0.140143
0.140127
0.140108
0.140087
0.140063
0.140036
0.140007
0.139973
0.139935
0.139892
0.139844
0.13979
0.139729
0.139663
0.139591
0.139511
0.139421
0.13932
0.139206
0.139076
0.138928
0.138757
0.13856
0.138329
0.138054
0.137723
0.137297
0.136771
0.135881
0.140265
0.140267
0.140255
0.140236
0.140231
0.140226
0.140214
0.140197
0.140177
0.140154
0.140131
0.140109
0.140087
0.140065
0.140044
0.140022
0.140001
0.139978
0.139954
0.139929
0.139902
0.139871
0.139837
0.139799
0.139755
0.139705
0.139648
0.139583
0.139512
0.139431
0.139337
0.139231
0.139112
0.138975
0.138817
0.138634
0.138412
0.138162
0.137738
0.140295
0.140283
0.14027
0.14026
0.140252
0.140245
0.140239
0.140232
0.140223
0.140213
0.1402
0.140185
0.140169
0.140151
0.14013
0.140106
0.14008
0.140051
0.140017
0.139978
0.139935
0.139888
0.139835
0.139776
0.139712
0.139642
0.139563
0.139474
0.139374
0.13926
0.139131
0.138982
0.138809
0.138608
0.138369
0.13808
0.137716
0.137253
0.13653
0.140305
0.140308
0.140297
0.140278
0.140273
0.140269
0.140258
0.140242
0.140222
0.140202
0.140181
0.140161
0.140142
0.140122
0.140103
0.140084
0.140066
0.140046
0.140025
0.140003
0.13998
0.139954
0.139925
0.139891
0.139853
0.13981
0.139761
0.139706
0.139643
0.139573
0.139494
0.139402
0.139298
0.13918
0.139045
0.138887
0.138695
0.138479
0.138121
0.140329
0.140318
0.140306
0.140297
0.140292
0.140288
0.140285
0.140279
0.140271
0.140262
0.140252
0.140239
0.140225
0.140209
0.140191
0.140171
0.140147
0.140121
0.140091
0.140058
0.140019
0.139976
0.13993
0.139878
0.139821
0.139759
0.139689
0.139611
0.139523
0.139423
0.139309
0.139178
0.139028
0.138852
0.138644
0.138391
0.138086
0.137677
0.137078
0.14034
0.140345
0.140335
0.140315
0.140312
0.140308
0.140298
0.140282
0.140263
0.140244
0.140226
0.140208
0.14019
0.140174
0.140158
0.140141
0.140124
0.140107
0.14009
0.14007
0.14005
0.140028
0.140003
0.139974
0.13994
0.139903
0.139861
0.139814
0.13976
0.139699
0.139631
0.139554
0.139464
0.139361
0.139244
0.139108
0.138943
0.138755
0.138451
0.14036
0.140349
0.140338
0.140332
0.14033
0.140329
0.140326
0.140322
0.140315
0.140308
0.140299
0.140289
0.140277
0.140263
0.140248
0.14023
0.14021
0.140186
0.140159
0.14013
0.140096
0.140058
0.140015
0.13997
0.13992
0.139865
0.139803
0.139734
0.139656
0.139568
0.139467
0.139352
0.13922
0.139066
0.138885
0.138662
0.138416
0.138056
0.137551
0.140371
0.140379
0.140369
0.140349
0.140346
0.140343
0.140333
0.140317
0.1403
0.140283
0.140266
0.140251
0.140235
0.140221
0.140207
0.140192
0.140178
0.140163
0.140148
0.140132
0.140114
0.140094
0.140073
0.140049
0.14002
0.139988
0.139952
0.139913
0.139868
0.139816
0.139757
0.13969
0.139614
0.139526
0.139423
0.139305
0.139163
0.138999
0.13874
0.140388
0.140378
0.140368
0.140365
0.140366
0.140366
0.140364
0.140361
0.140357
0.140351
0.140344
0.140336
0.140326
0.140314
0.1403
0.140285
0.140267
0.140247
0.140223
0.140196
0.140166
0.140133
0.140095
0.140053
0.14001
0.139961
0.139906
0.139845
0.139776
0.139698
0.139609
0.139507
0.139391
0.139257
0.139104
0.138911
0.138711
0.138395
0.137966
0.140399
0.140409
0.1404
0.140379
0.140378
0.140376
0.140365
0.140349
0.140333
0.140318
0.140303
0.14029
0.140277
0.140264
0.140251
0.140239
0.140227
0.140214
0.1402
0.140187
0.140172
0.140156
0.140138
0.140118
0.140095
0.140069
0.14004
0.140007
0.13997
0.139928
0.139878
0.139821
0.139755
0.13968
0.139591
0.139487
0.139363
0.13922
0.138996
0.140414
0.140404
0.140395
0.140397
0.1404
0.1404
0.140399
0.140397
0.140395
0.140391
0.140386
0.140379
0.140371
0.140362
0.14035
0.140336
0.14032
0.140303
0.140282
0.140258
0.140231
0.140201
0.140168
0.140131
0.140091
0.140048
0.14
0.139945
0.139884
0.139815
0.139736
0.139648
0.139549
0.139436
0.13931
0.139149
0.138979
0.1387
0.138332
0.140424
0.140435
0.140428
0.140407
0.140406
0.140404
0.140394
0.140378
0.140363
0.14035
0.140337
0.140326
0.140314
0.140303
0.140292
0.140282
0.140272
0.140261
0.14025
0.140239
0.140227
0.140215
0.140201
0.140186
0.14017
0.140151
0.140129
0.140104
0.140074
0.14004
0.139999
0.139951
0.139894
0.139829
0.139753
0.139662
0.139552
0.139426
0.13923
0.140437
0.140427
0.140421
0.140427
0.14043
0.14043
0.140431
0.140432
0.14043
0.140429
0.140425
0.14042
0.140413
0.140406
0.140396
0.140384
0.140371
0.140355
0.140338
0.140317
0.140292
0.140265
0.140236
0.140204
0.140168
0.140129
0.140086
0.140037
0.139983
0.139922
0.139855
0.139782
0.1397
0.139607
0.139501
0.139367
0.139223
0.138979
0.138659
0.140446
0.140458
0.140451
0.140432
0.140432
0.14043
0.140419
0.140404
0.140391
0.140379
0.140369
0.140359
0.140349
0.14034
0.140331
0.140323
0.140314
0.140306
0.140298
0.14029
0.140281
0.140274
0.140267
0.140259
0.140249
0.140238
0.140223
0.140204
0.140181
0.140153
0.14012
0.140081
0.140033
0.139976
0.139909
0.139831
0.139734
0.139622
0.139449
0.140458
0.140448
0.140445
0.140455
0.140457
0.140457
0.14046
0.140462
0.140462
0.140462
0.14046
0.140456
0.140452
0.140446
0.140438
0.14043
0.14042
0.140407
0.140392
0.140376
0.140355
0.140331
0.140305
0.140276
0.140244
0.140208
0.140169
0.140126
0.140079
0.140028
0.139973
0.139912
0.139844
0.139765
0.139676
0.139564
0.139441
0.139237
0.138958
0.140465
0.140474
0.140469
0.140454
0.140454
0.140452
0.140441
0.140427
0.140416
0.140407
0.140398
0.14039
0.140382
0.140375
0.140368
0.140362
0.140356
0.14035
0.140346
0.140341
0.140337
0.140335
0.140335
0.140334
0.140329
0.140322
0.140313
0.1403
0.140284
0.140264
0.140239
0.140208
0.14017
0.140122
0.140064
0.139995
0.139911
0.13981
0.139666
0.140475
0.140467
0.140466
0.140475
0.140477
0.140478
0.140481
0.140483
0.140484
0.140485
0.140484
0.140483
0.140481
0.140479
0.140475
0.14047
0.140464
0.140457
0.140446
0.140435
0.140423
0.140406
0.140386
0.140364
0.140339
0.140309
0.140275
0.140237
0.140195
0.140149
0.140098
0.140043
0.139982
0.139914
0.139836
0.139741
0.139635
0.139468
0.139229
0.140479
0.140483
0.14048
0.14047
0.140469
0.140467
0.140459
0.140447
0.140439
0.140432
0.140424
0.140418
0.140412
0.140407
0.140403
0.1404
0.140396
0.140394
0.140392
0.140391
0.140391
0.140391
0.140392
0.140393
0.140391
0.140386
0.14038
0.140373
0.140364
0.140352
0.140337
0.140318
0.140293
0.140261
0.140216
0.140156
0.140084
0.139992
0.139881
0.140485
0.140481
0.140482
0.140487
0.140489
0.14049
0.140493
0.140495
0.140497
0.140498
0.140499
0.140499
0.140499
0.140498
0.140497
0.140495
0.140492
0.140489
0.140484
0.140478
0.140471
0.140463
0.140452
0.140439
0.140423
0.140404
0.14038
0.140351
0.140317
0.140277
0.140232
0.14018
0.140123
0.140059
0.139987
0.139902
0.139807
0.139671
0.139471
0.140487
0.140489
0.140487
0.14048
0.140478
0.140475
0.14047
0.140463
0.140456
0.140452
0.140447
0.140442
0.140439
0.140436
0.140434
0.140432
0.140431
0.14043
0.140429
0.140428
0.140428
0.140428
0.140428
0.140427
0.140426
0.140424
0.14042
0.140415
0.14041
0.140404
0.140396
0.140385
0.140371
0.140353
0.140329
0.140293
0.140242
0.140163
0.140078
0.140491
0.140489
0.14049
0.140494
0.140496
0.140498
0.140501
0.140503
0.140505
0.140507
0.140509
0.14051
0.140511
0.140511
0.140511
0.140511
0.140509
0.140508
0.140506
0.140503
0.140499
0.140495
0.14049
0.140483
0.140474
0.140464
0.140451
0.140434
0.140413
0.140386
0.140352
0.14031
0.140261
0.140202
0.140136
0.140056
0.139968
0.13985
0.139684
0.140491
0.140493
0.14049
0.140485
0.140483
0.14048
0.140476
0.140471
0.140466
0.140463
0.14046
0.140457
0.140455
0.140454
0.140452
0.140451
0.14045
0.14045
0.140449
0.140448
0.140448
0.140448
0.140448
0.140448
0.140447
0.140446
0.140444
0.140442
0.140439
0.140435
0.140431
0.140425
0.140418
0.140408
0.140395
0.140376
0.140352
0.140297
0.140239
0.140494
0.140494
0.140495
0.140498
0.1405
0.140503
0.140506
0.140509
0.140511
0.140513
0.140516
0.140517
0.140519
0.14052
0.140521
0.140522
0.140522
0.140521
0.140521
0.14052
0.140518
0.140516
0.140513
0.140509
0.140505
0.140499
0.140492
0.140483
0.140472
0.140457
0.140437
0.140411
0.140376
0.140331
0.140275
0.140205
0.140123
0.140016
0.139872
0.140494
0.140495
0.140493
0.140488
0.140486
0.140483
0.140479
0.140475
0.140471
0.140469
0.140467
0.140465
0.140464
0.140463
0.140462
0.140462
0.140461
0.140461
0.140461
0.140461
0.140461
0.140461
0.140461
0.140462
0.140461
0.140461
0.14046
0.14046
0.140458
0.140456
0.140454
0.140452
0.140448
0.140442
0.140435
0.140424
0.140413
0.140385
0.140352
0.140496
0.140496
0.140498
0.140501
0.140503
0.140506
0.140509
0.140512
0.140515
0.140518
0.140521
0.140523
0.140525
0.140527
0.140528
0.14053
0.140531
0.140531
0.140532
0.140532
0.140532
0.140531
0.140529
0.140527
0.140525
0.140522
0.140518
0.140513
0.140507
0.140499
0.140489
0.140475
0.140455
0.140427
0.140389
0.140335
0.140267
0.140172
0.140045
0.140496
0.140496
0.140494
0.14049
0.140487
0.140484
0.14048
0.140477
0.140474
0.140472
0.140471
0.14047
0.140469
0.140469
0.140469
0.140468
0.140468
0.140468
0.140468
0.140469
0.140469
0.140469
0.14047
0.14047
0.140471
0.140471
0.140471
0.140471
0.140471
0.140471
0.14047
0.140469
0.140468
0.140465
0.140461
0.140455
0.140449
0.140435
0.14042
0.140497
0.140497
0.140499
0.140502
0.140505
0.140508
0.140512
0.140515
0.140518
0.140521
0.140524
0.140527
0.140529
0.140532
0.140534
0.140536
0.140537
0.140539
0.14054
0.140541
0.140542
0.140542
0.140542
0.140541
0.14054
0.140539
0.140536
0.140533
0.14053
0.140526
0.14052
0.140513
0.140503
0.140489
0.140468
0.140434
0.140387
0.140311
0.140205
0.140496
0.140495
0.140494
0.14049
0.140487
0.140484
0.14048
0.140477
0.140475
0.140474
0.140473
0.140472
0.140472
0.140472
0.140472
0.140472
0.140472
0.140473
0.140473
0.140473
0.140474
0.140475
0.140475
0.140476
0.140477
0.140478
0.140479
0.140479
0.14048
0.140481
0.140481
0.140481
0.140481
0.140481
0.14048
0.140477
0.140474
0.140466
0.14046
0.140497
0.140498
0.140499
0.140503
0.140506
0.140509
0.140513
0.140517
0.14052
0.140524
0.140527
0.14053
0.140533
0.140536
0.140538
0.140541
0.140543
0.140545
0.140547
0.140548
0.14055
0.140551
0.140552
0.140552
0.140552
0.140551
0.140551
0.140549
0.140547
0.140545
0.140542
0.140538
0.140533
0.140526
0.140516
0.140499
0.140472
0.140422
0.140343
0.140495
0.140495
0.140493
0.140489
0.140486
0.140483
0.140479
0.140477
0.140475
0.140474
0.140473
0.140473
0.140473
0.140473
0.140474
0.140474
0.140475
0.140475
0.140476
0.140476
0.140477
0.140478
0.140479
0.14048
0.140481
0.140482
0.140484
0.140485
0.140486
0.140487
0.140489
0.14049
0.14049
0.140491
0.140492
0.140492
0.140491
0.140487
0.140486
0.140496
0.140497
0.140499
0.140503
0.140506
0.14051
0.140514
0.140518
0.140522
0.140525
0.140529
0.140532
0.140535
0.140539
0.140542
0.140544
0.140547
0.14055
0.140552
0.140554
0.140556
0.140558
0.140559
0.140561
0.140562
0.140562
0.140562
0.140562
0.140562
0.14056
0.140559
0.140557
0.140554
0.14055
0.140545
0.140537
0.140526
0.140498
0.14045
0.140494
0.140493
0.140491
0.140488
0.140484
0.140481
0.140478
0.140475
0.140474
0.140473
0.140473
0.140473
0.140473
0.140474
0.140474
0.140475
0.140475
0.140476
0.140477
0.140478
0.140478
0.14048
0.140481
0.140482
0.140484
0.140485
0.140487
0.140488
0.14049
0.140491
0.140493
0.140495
0.140497
0.140499
0.1405
0.140502
0.140504
0.140502
0.140504
0.140494
0.140496
0.140498
0.140502
0.140506
0.14051
0.140514
0.140518
0.140522
0.140526
0.14053
0.140534
0.140537
0.140541
0.140544
0.140547
0.14055
0.140553
0.140556
0.140559
0.140562
0.140564
0.140566
0.140568
0.140569
0.140571
0.140572
0.140572
0.140573
0.140573
0.140573
0.140572
0.140571
0.140569
0.140566
0.140562
0.140559
0.140545
0.140524
0.140493
0.140491
0.140489
0.140486
0.140482
0.140479
0.140475
0.140473
0.140472
0.140471
0.140471
0.140472
0.140472
0.140473
0.140474
0.140474
0.140475
0.140476
0.140477
0.140478
0.140479
0.14048
0.140481
0.140483
0.140484
0.140486
0.140488
0.14049
0.140492
0.140494
0.140496
0.140499
0.140501
0.140504
0.140506
0.140508
0.140512
0.140512
0.140516
0.140492
0.140494
0.140497
0.140501
0.140505
0.140509
0.140513
0.140518
0.140522
0.140526
0.140531
0.140535
0.140538
0.140542
0.140546
0.140549
0.140553
0.140556
0.140559
0.140563
0.140566
0.140569
0.140571
0.140574
0.140576
0.140578
0.140579
0.140581
0.140582
0.140583
0.140584
0.140585
0.140585
0.140584
0.140584
0.140582
0.140581
0.140573
0.140571
0.14049
0.140489
0.140487
0.140483
0.140479
0.140476
0.140472
0.14047
0.140469
0.140469
0.140469
0.14047
0.14047
0.140471
0.140472
0.140473
0.140474
0.140475
0.140476
0.140477
0.140478
0.140479
0.14048