/*--------------------------------*- C++ -*----------------------------------*\
| =========                 |                                                 |
| \\      /  F ield         | OpenFOAM: The Open Source CFD Toolbox           |
|  \\    /   O peration     | Version:  3.0.0                                 |
|   \\  /    A nd           | Web:      www.OpenFOAM.org                      |
|    \\/     M anipulation  |                                                 |
\*---------------------------------------------------------------------------*/
FoamFile
{
    version     2.0;
    format      ascii;
    class       volScalarField;
    location    "200";
    object      p;
}
// * * * * * * * * * * * * * * * * * * * * * * * * * * * * * * * * * * * * * //

dimensions      [0 2 -2 0 0 0 0];

internalField   nonuniform List<scalar> 
10720
(
0.00502825
-80.4086
-174.67
-264.913
-345.425
-426.545
-496.198
-552.305
-599.563
-634.346
-658.785
-675.082
-684.475
-687.556
-684.759
-675.601
-661.279
-640.488
-614.465
-581.835
-543.696
-499.25
-450.802
-399.298
-348.274
-302.837
-261.902
-221.782
-182.166
-143.257
-104.852
-66.7886
-28.9431
8.93522
47.1067
86.7085
127.905
176.614
222.886
83.2401
159.419
244.173
325.937
398.845
458.629
501.354
524.566
531.577
528.074
515.018
495.673
474.3
452.81
431.959
411.799
392.611
374.158
356.249
338.45
320.72
302.764
284.66
266.776
250.892
238.056
227.319
218.337
211.12
205.733
202.098
200.103
199.663
200.776
203.443
208.048
215.086
228.125
250.873
146.605
84.7262
16.5102
-54.6436
-126.59
-199.214
-268.523
-332.396
-390.356
-440.647
-483.344
-518.524
-546.035
-566.05
-578.473
-583.459
-581.666
-572.62
-556.927
-533.995
-504.469
-468.119
-426.737
-381.536
-335.685
-293.573
-254.691
-216.147
-177.743
-139.779
-102.138
-64.6929
-27.3469
10.1341
47.9983
87.3655
128.383
177.021
222.552
202.941
257.362
312.726
367.819
418.393
461.73
494.617
514.604
522.426
520.126
509.42
493.344
474.691
455.036
435.228
415.65
396.622
378.129
360.066
342.168
324.364
306.468
288.558
271.016
255.236
242.117
231.017
221.651
214.052
208.282
204.279
201.953
201.218
202.07
204.517
208.949
215.851
228.811
250.566
169.76
114.27
52.8249
-14.179
-82.5866
-151.587
-219.589
-283.715
-342.357
-394.636
-439.395
-476.213
-505.15
-526.653
-540.86
-548.071
-548.461
-541.911
-528.689
-508.614
-482.058
-449.122
-411.138
-369.438
-326.636
-286.334
-248.609
-211.215
-173.812
-136.669
-99.7072
-62.8126
-25.9056
11.2277
48.8219
87.9757
128.821
177.286
222.406
220.532
270.914
322.102
371.914
416.629
454.569
483.474
501.699
509.944
509.427
501.42
488.153
471.675
453.517
434.694
415.774
397.127
378.872
360.973
343.257
325.635
307.992
290.391
273.185
257.483
244.161
232.871
223.338
215.579
209.646
205.486
203.012
202.143
202.872
205.217
209.568
216.411
229.259
250.082
206.46
159.76
107.138
49.9635
-9.32465
-70.5485
-131.924
-191.533
-247.97
-300.117
-346.865
-387.568
-421.905
-449.753
-470.981
-485.426
-492.837
-493.098
-486.252
-472.259
-451.368
-423.862
-390.837
-353.692
-314.689
-276.908
-240.913
-205.053
-168.931
-132.823
-96.7154
-60.518
-24.1719
12.515
49.7605
88.632
129.24
177.408
222.151
248.735
290.007
332.141
373.892
411.81
444.628
470.315
487.306
495.944
496.962
491.292
480.626
466.551
450.397
433.14
415.389
397.55
379.843
362.311
344.877
327.488
310.092
292.766
275.845
260.245
246.793
235.329
225.608
217.637
211.475
207.086
204.389
203.312
203.857
206.048
210.275
217.016
229.68
249.583
220.988
179.383
132.267
80.663
26.9626
-29.1856
-86.2845
-142.562
-196.919
-248.182
-295.188
-337.157
-373.476
-403.705
-427.535
-444.639
-454.85
-458.085
-454.324
-443.615
-426.128
-402.208
-372.76
-339.11
-303.209
-267.626
-233.167
-198.672
-163.736
-128.624
-93.3726
-57.9039
-22.1679
14.0139
50.8474
89.37
129.669
177.435
221.654
258.775
295.468
332.982
370.058
403.661
432.994
456.348
472.427
481.365
483.62
479.965
471.651
459.887
445.769
430.182
413.731
396.858
379.847
362.821
345.788
328.74
311.674
294.686
278.092
262.66
249.147
237.546
227.664
219.513
213.157
208.57
205.683
204.433
204.82
206.877
210.993
217.629
230.083
249.054
232.13
195.253
153.218
107.187
59.2085
8.59995
-43.2243
-94.8558
-145.477
-193.99
-239.391
-280.907
-317.827
-349.566
-375.683
-395.789
-409.608
-416.875
-417.364
-411.018
-397.906
-378.339
-353.069
-323.32
-290.804
-257.698
-224.979
-191.949
-158.267
-124.195
-89.8222
-55.1018
-19.9978
15.651
52.037
90.1616
130.087
177.336
220.918
265.593
297.926
331.175
364.242
394.316
420.85
442.336
457.648
466.762
469.978
467.97
461.676
452.024
439.894
426.052
411.056
395.342
379.224
362.882
346.393
329.796
313.135
296.526
280.275
265.043
251.518
239.811
229.792
221.477
214.933
210.148
207.065
205.628
205.843
207.752
211.74
218.251
230.452
248.477
237.733
204.436
166.36
124.611
81.1588
35.0448
-12.4614
-60.1221
-107.376
-153.232
-196.802
-237.378
-274.203
-306.617
-334.081
-356.099
-372.189
-382.042
-385.344
-382.025
-372.134
-355.954
-334.124
-307.733
-278.26
-247.518
-216.54
-184.983
-152.579
-119.574
-86.1018
-52.1484
-17.696
17.3971
53.3062
90.9927
130.483
177.098
219.95
267.971
297.075
327.123
357.089
384.401
408.693
428.667
443.296
452.464
456.418
455.731
451.132
443.346
433.07
420.943
407.447
392.988
377.886
362.354
346.52
330.469
314.287
298.11
282.237
267.247
253.773
242.005
231.881
223.424
216.707
211.734
208.461
206.841
206.886
208.645
212.498
218.872
230.779
247.858
240.768
210.535
175.865
137.873
98.4128
56.3733
12.9292
-30.8402
-74.5613
-117.381
-158.521
-197.38
-233.247
-265.455
-293.412
-316.563
-334.374
-346.484
-352.512
-352.256
-345.666
-332.942
-314.596
-291.568
-265.14
-236.838
-207.704
-177.688
-146.619
-114.732
-82.2031
-49.0506
-15.2772
19.2373
54.6437
91.8569
130.855
176.727
218.757
268.255
294.633
321.996
349.386
374.417
396.837
415.54
429.541
438.667
443.169
443.522
440.322
434.145
425.545
415.041
403.033
389.88
375.884
361.27
346.196
330.786
315.157
299.466
284.007
269.303
255.934
244.151
233.951
225.376
218.502
213.35
209.891
208.09
207.962
209.564
213.273
219.491
231.063
247.202
241.779
214.094
182.293
147.462
111.383
72.864
32.9694
-7.32513
-47.802
-87.71
-126.393
-163.355
-197.942
-229.514
-257.483
-281.257
-300.26
-314.038
-322.157
-324.319
-320.431
-310.635
-295.342
-275.352
-251.757
-225.826
-198.552
-170.099
-140.394
-109.665
-78.1171
-45.8028
-12.7422
21.1631
56.0403
92.7488
131.207
176.239
217.357
266.978
291.11
316.244
341.483
364.596
385.436
403.042
416.458
425.474
430.366
431.531
429.469
424.657
417.537
408.527
397.949
386.104
373.261
359.637
345.406
330.715
315.708
300.558
285.554
271.179
257.972
246.22
235.981
227.312
220.301
214.983
211.347
209.366
209.064
210.506
214.059
220.105
231.302
246.508
241.53
216.036
186.717
154.638
121.502
86.0831
49.3724
12.2485
-25.1834
-62.2584
-98.4357
-133.313
-166.3
-196.835
-224.342
-248.224
-267.899
-282.867
-292.681
-296.956
-295.525
-288.449
-276.024
-258.915
-238.041
-214.451
-189.068
-162.21
-133.901
-104.367
-73.8371
-42.397
-10.0848
23.1772
57.4923
93.662
131.544
175.65
215.782
264.769
286.984
310.217
333.618
355.089
374.564
391.206
404.065
412.926
418.081
419.872
418.728
415.06
409.227
401.565
392.326
381.753
370.075
357.486
344.159
330.255
315.932
301.374
286.867
272.866
259.873
248.202
237.96
229.227
222.099
216.63
212.824
210.668
210.192
211.468
214.857
220.712
231.498
245.778
240.412
216.812
189.65
159.964
129.399
96.7047
62.8154
28.5287
-6.11494
-40.5382
-74.2978
-107.078
-138.356
-167.635
-194.388
-218.043
-238.017
-253.788
-264.884
-270.873
-271.506
-266.785
-256.919
-242.438
-224.105
-202.776
-179.282
-154.036
-127.145
-98.8389
-69.3619
-38.83
-7.30089
25.2827
59.0002
94.593
131.862
174.97
214.066
261.956
282.522
304.111
325.921
345.963
364.25
380.021
392.347
401.027
406.349
408.614
408.208
405.49
400.761
394.296
386.287
376.924
366.39
354.853
342.471
329.404
315.818
301.901
287.933
274.348
261.622
250.081
239.875
231.107
223.887
218.284
214.318
211.992
211.343
212.45
215.662
221.309
231.649
245.017
238.725
216.787
191.522
163.947
135.644
105.367
73.9987
42.2741
10.1771
-21.7783
-53.228
-83.9322
-113.437
-141.318
-167.095
-190.235
-210.181
-226.408
-238.432
-245.805
-248.198
-245.553
-237.995
-225.932
-209.981
-190.832
-169.213
-145.587
-120.133
-93.0822
-64.6906
-35.1006
-4.38872
27.4812
60.5651
95.5398
132.16
174.204
212.23
258.787
277.913
298.064
318.473
337.258
354.492
369.471
381.29
389.765
395.176
397.799
397.98
396.046
392.257
386.841
379.944
371.71
362.279
351.785
340.366
328.173
315.367
302.132
288.743
275.616
263.206
251.844
241.713
232.944
225.656
219.937
215.823
213.334
212.513
213.447
216.474
221.895
231.758
244.225
236.67
216.199
192.62
166.917
140.62
112.496
83.3834
53.9691
24.1902
-5.49514
-34.7761
-63.4821
-91.2204
-117.632
-142.299
-164.731
-184.406
-200.813
-213.455
-221.902
-225.749
-224.885
-219.364
-209.487
-195.739
-178.667
-158.889
-136.882
-112.873
-87.1
-59.8232
-31.2072
-1.34682
29.774
62.187
96.5013
132.433
173.356
210.286
255.416
273.278
292.152
311.318
328.984
345.277
359.529
370.861
379.117
384.558
387.443
388.089
386.799
383.805
379.3
373.396
366.199
357.812
348.335
337.879
326.577
314.58
302.062
289.288
276.659
264.61
253.475
243.462
234.724
227.397
221.581
217.335
214.69
213.7
214.458
217.289
222.467
231.824
243.408
234.388
215.225
193.154
169.127
144.624
118.428
91.3413
64.0137
36.3424
8.74515
-18.5139
-45.317
-71.3305
-96.2524
-119.726
-141.312
-160.522
-176.876
-189.877
-199.116
-204.144
-204.796
-201.063
-193.151
-181.433
-166.325
-148.34
-127.937
-105.376
-80.8974
-54.7613
-27.1494
1.82627
32.1622
63.866
97.4774
132.676
172.43
208.242
251.959
268.693
286.43
304.48
321.141
336.58
350.159
361.031
369.054
374.482
377.554
378.565
377.802
375.475
371.755
366.729
360.473
353.059
344.556
335.045
324.638
313.467
301.693
289.566
277.471
265.826
254.963
245.108
236.437
229.099
223.21
218.845
216.054
214.899
215.478
218.105
223.022
231.85
242.567
231.977
213.992
193.279
170.762
147.869
123.409
98.1538
72.7122
46.9618
21.2849
-4.09842
-29.1102
-53.4669
-76.9209
-99.1628
-119.809
-138.415
-154.532
-167.68
-177.469
-183.43
-185.345
-183.158
-176.994
-167.126
-153.858
-137.6
-118.775
-97.6562
-74.4816
-49.5078
-22.928
5.13114
34.6462
65.6025
98.4678
132.891
171.432
206.11
248.494
264.215
280.925
297.965
313.717
328.375
341.33
351.763
359.547
364.926
368.125
369.42
369.086
367.319
364.271
360.016
354.606
348.088
340.503
331.906
322.382
312.043
301.031
289.575
278.045
266.843
256.295
246.641
238.071
230.751
224.813
220.348
217.422
216.106
216.505
218.918
223.559
231.837
241.707
229.511
212.593
193.111
171.963
150.524
127.637
104.042
80.3122
56.3138
32.3982
8.74846
-14.5875
-37.367
-59.3896
-80.3962
-100.048
-117.949
-133.687
-146.807
-156.931
-163.606
-166.558
-165.69
-161.065
-152.869
-141.312
-126.705
-109.421
-89.7298
-67.8625
-44.0678
-18.545
8.56695
37.2266
67.3967
99.473
133.075
170.366
203.898
245.072
259.877
275.655
291.775
306.699
320.636
333.008
343.025
350.566
355.871
359.15
360.663
360.677
359.376
356.902
353.317
348.662
342.959
336.23
328.504
319.841
310.328
300.085
289.319
278.38
267.656
257.463
248.047
239.615
232.344
226.382
221.835
218.785
217.316
217.534
219.725
224.075
231.787
240.832
227.04
211.094
192.733
172.833
152.714
131.26
109.173
87.0049
64.6075
42.3047
20.2565
-1.51399
-22.8044
-43.4507
-63.2389
-81.8744
-99.0046
-114.257
-127.207
-137.489
-144.68
-148.462
-148.705
-145.419
-138.721
-128.739
-115.696
-99.9046
-81.6167
-61.0526
-38.4483
-14.0038
12.1327
39.9029
69.2486
100.493
133.231
169.241
201.615
241.729
255.702
270.628
285.903
300.07
313.338
325.162
334.783
342.08
347.292
350.613
352.291
352.585
351.673
349.687
346.685
342.695
337.73
331.789
324.884
317.048
308.345
298.869
288.804
278.476
268.259
258.456
249.316
241.057
233.868
227.907
223.299
220.139
218.523
218.561
220.523
224.568
231.704
239.945
224.601
209.544
192.214
173.453
154.543
134.394
113.688
92.944
72.0127
51.1925
30.6235
10.3056
-9.5856
-28.9225
-47.525
-65.1402
-81.4609
-96.1482
-108.815
-119.107
-126.643
-131.071
-132.233
-130.1
-124.731
-116.188
-104.613
-90.2552
-73.3388
-54.0668
-32.6583
-9.30945
15.8259
42.6742
71.1575
101.529
133.36
168.064
199.275
238.49
251.701
265.844
280.341
293.81
306.456
317.764
327.006
334.063
339.165
342.5
344.3
344.819
344.229
342.657
340.157
336.754
332.449
327.229
321.088
314.038
306.12
297.402
288.039
278.337
268.65
259.269
250.44
242.387
235.31
229.378
224.73
221.476
219.722
219.581
221.308
225.037
231.59
239.052
222.22
207.98
191.598
173.889
156.083
137.134
117.692
98.2563
78.6683
59.2118
40.0074
21.039
2.4562
-15.6383
-33.0993
-49.7085
-65.1996
-79.2699
-91.5673
-101.752
-109.484
-114.395
-116.304
-115.15
-110.947
-103.706
-93.4968
-80.5059
-64.921
-46.9219
-26.7088
-4.46859
19.6428
45.5387
73.1235
102.582
133.465
166.846
196.888
235.372
247.881
261.301
275.079
287.897
299.964
310.786
319.665
326.484
331.467
334.792
336.68
337.379
337.056
335.834
333.768
330.878
327.16
322.594
317.158
310.848
303.681
295.701
287.037
277.969
268.83
259.897
251.41
243.596
236.661
230.786
226.12
222.788
220.905
220.589
222.077
225.479
231.448
238.157
219.914
206.431
190.924
174.185
157.398
139.551
121.275
103.039
84.6876
66.487
48.5444
30.8279
13.4692
-3.4537
-19.8241
-35.4543
-50.1133
-63.5341
-75.397
-85.3818
-93.1842
-98.4364
-100.937
-100.601
-97.4122
-91.338
-82.3897
-70.6911
-56.3895
-39.6377
-20.613
0.510464
23.5786
48.4943
75.1455
103.652
133.549
165.595
194.468
232.384
244.246
256.995
270.104
282.317
293.839
304.201
312.734
319.319
324.176
327.473
329.422
330.262
330.16
329.234
327.54
325.098
321.901
317.923
313.133
307.512
301.057
293.791
285.815
277.381
268.801
260.337
252.22
244.675
237.912
232.12
227.46
224.067
222.067
221.579
222.825
225.893
231.28
237.264
217.696
204.914
190.22
174.38
158.535
141.707
124.504
107.376
90.1642
73.1226
56.344
39.7895
23.5706
7.7487
-7.58354
-22.2687
-36.1044
-48.8562
-60.2373
-69.9519
-77.7189
-83.191
-86.1465
-86.4845
-84.1665
-79.1285
-71.333
-60.8465
-47.7731
-32.2357
-14.3863
5.61767
27.6274
51.5378
77.2228
104.742
133.617
164.322
192.027
229.533
240.793
252.918
265.402
277.05
288.06
297.988
306.189
312.545
317.271
320.526
322.513
323.465
323.545
322.869
321.494
319.441
316.704
313.252
309.049
304.064
298.279
291.696
284.389
276.583
268.569
260.59
252.865
245.616
239.054
233.372
228.74
225.304
223.199
222.545
223.549
226.278
231.091
236.377
215.573
203.445
189.507
174.504
159.531
143.648
127.439
111.333
95.1773
79.206
63.505
48.0266
32.8702
18.0801
3.72835
-10.0481
-23.0792
-35.157
-46.0254
-55.4146
-63.0614
-68.6493
-71.9405
-72.8214
-71.2423
-67.1165
-60.366
-51.0076
-39.1013
-24.7395
-8.04582
10.8414
31.7818
54.665
79.3544
105.853
133.673
163.039
189.582
226.821
237.52
249.061
260.962
272.078
282.607
292.123
300.005
306.139
310.731
313.935
315.941
316.979
317.209
316.744
315.642
313.928
311.594
308.611
304.938
300.536
295.376
289.439
282.778
275.59
268.142
260.657
253.343
246.414
240.078
234.531
229.951
226.491
224.295
223.481
224.244
226.632
230.882
235.503
213.552
202.032
188.802
174.579
160.416
145.412
130.125
114.968
99.7873
84.8089
70.106
55.6276
41.4601
27.6353
14.2088
1.2974
-10.953
-22.3616
-32.6996
-41.7224
-49.1824
-54.7975
-58.3209
-59.6313
-58.6697
-55.3376
-49.5266
-41.2095
-30.4054
-17.1738
-1.61051
16.1679
36.033
57.8718
81.5387
106.988
133.724
161.755
187.144
224.247
234.424
245.417
256.77
267.387
277.46
286.585
294.163
300.079
304.537
307.681
309.693
310.797
311.15
310.862
309.995
308.573
306.593
304.026
300.829
296.959
292.375
287.047
281.004
274.417
267.528
260.543
253.653
247.063
240.976
235.59
231.084
227.62
225.346
224.382
224.907
226.953
230.657
234.644
211.634
200.684
188.116
174.623
161.215
147.029
132.601
118.324
104.05
89.9905
76.2137
62.6638
49.4179
36.4965
23.9412
11.851
0.350946
-10.3992
-20.1984
-28.8258
-36.0485
-41.6185
-45.2852
-46.924
-46.4708
-43.8233
-38.8505
-31.4874
-21.7173
-9.56536
4.89894
21.5832
40.3709
61.1519
83.7745
108.148
133.777
160.485
184.729
221.811
231.497
241.977
252.815
262.961
272.602
281.356
288.641
294.348
298.671
301.749
303.756
304.91
305.362
305.224
304.557
303.389
301.718
299.518
296.747
293.359
289.305
284.545
279.087
273.08
266.74
260.254
253.797
247.561
241.745
236.541
232.132
228.682
226.345
225.241
225.534
227.242
230.418
233.804
209.819
199.405
187.458
174.65
161.948
148.526
134.898
121.441
108.009
94.8042
81.8876
69.2016
56.813
44.7344
32.9979
21.6853
10.9042
0.794433
-8.46655
-16.679
-23.6277
-29.0931
-32.828
-34.707
-34.6663
-32.6024
-28.3702
-21.8747
-13.0669
-1.94141
11.4616
27.0695
44.7847
64.4999
86.0592
109.338
133.839
159.238
182.353
219.51
228.736
238.732
249.084
258.785
268.016
276.417
283.422
288.925
293.116
296.124
298.117
299.306
299.84
299.827
299.332
298.383
296.982
295.105
292.714
289.759
286.19
281.955
277.05
271.596
265.79
259.797
253.776
247.907
242.378
237.376
233.084
229.669
227.284
226.052
226.119
227.497
230.167
232.988
208.107
198.197
186.834
174.668
162.629
149.921
137.042
124.35
111.703
99.293
87.176
75.2938
63.7049
52.4135
41.4445
30.8667
20.7712
11.2796
2.55073
-5.23741
-11.8844
-17.1992
-20.9403
-22.9852
-23.2714
-21.6988
-18.1151
-12.4024
-4.48446
5.67198
18.0529
32.6105
49.2623
67.9073
88.3921
110.558
133.918
158.027
180.03
217.341
226.134
235.673
245.565
254.844
263.687
271.751
278.489
283.796
287.855
290.791
292.762
293.976
294.577
294.669
294.32
293.561
292.394
290.803
288.747
286.182
283.052
279.301
274.911
269.984
264.692
259.182
253.597
248.102
242.872
238.091
233.936
230.572
228.156
226.808
226.66
227.718
229.906
232.198
206.497
197.062
186.249
174.688
163.27
151.233
139.054
127.076
115.162
103.494
92.1216
80.9877
70.1431
59.588
49.3379
39.4523
30.0084
21.1117
12.9037
5.54237
-0.78524
-5.91201
-9.60923
-11.7556
-12.2941
-11.1313
-8.11215
-3.10101
3.99974
13.247
24.6509
38.1865
53.7903
71.3681
90.7685
111.814
134.022
156.863
177.774
215.299
223.683
232.79
242.248
251.128
259.602
267.343
273.825
278.942
282.873
285.735
287.68
288.909
289.562
289.744
289.52
288.924
287.963
286.62
284.863
282.645
279.912
276.604
272.694
268.262
263.461
258.419
253.265
248.146
243.227
238.681
234.679
231.385
228.953
227.503
227.153
227.902
229.637
231.436
204.986
195.999
185.706
174.715
163.881
152.474
140.952
129.643
118.413
107.437
96.7597
86.3226
76.1732
66.3047
56.7288
47.4949
38.6681
30.3408
22.6385
15.7024
9.70314
4.79272
1.1788
-1.01631
-1.74265
-0.916389
1.61715
6.00304
12.3574
20.7559
31.2316
43.7798
58.3541
74.8726
93.1874
113.105
134.158
155.758
175.598
213.379
221.377
230.077
239.121
247.622
255.745
263.179
269.415
274.349
278.154
280.942
282.857
284.095
284.79
285.047
284.929
284.474
283.691
282.567
281.072
279.163
276.788
273.883
270.415
266.447
262.111
257.521
252.788
248.045
243.442
239.142
235.308
232.101
229.67
228.132
227.593
228.049
229.361
230.704
203.571
195.007
185.205
174.753
164.47
153.655
142.75
132.068
121.48
111.15
101.122
91.3351
81.8334
72.6074
63.6623
55.04
46.7964
39.0121
31.798
25.2811
19.6149
14.9396
11.4417
9.23962
8.3799
8.93484
11.0525
14.8863
20.5623
28.173
37.7708
49.3694
62.9404
78.4114
95.6446
114.436
134.337
154.721
173.514
211.577
219.21
227.523
236.175
244.316
252.105
259.246
265.246
270.004
273.686
276.4
278.282
279.522
280.251
280.569
280.544
280.21
279.582
278.649
277.385
275.751
273.695
271.156
268.093
264.556
260.659
256.5
252.176
247.803
243.518
239.472
235.82
232.715
230.299
228.689
227.978
228.159
229.078
230.004
202.249
194.086
184.749
174.806
165.041
154.786
144.461
134.368
124.381
114.657
105.235
96.0557
87.159
78.5327
70.1781
62.1304
54.4368
47.1686
40.4228
34.3144
28.981
24.5532
21.1949
19.0224
18.0747
18.4134
20.179
23.5269
28.5907
35.4745
44.2462
54.9363
67.5329
81.976
98.1362
115.809
134.564
153.763
171.536
209.889
217.175
225.12
233.401
241.198
248.669
255.53
261.303
265.892
269.456
272.096
273.943
275.18
275.936
276.306
276.358
276.13
275.635
274.869
273.808
272.417
270.647
268.437
265.744
262.606
259.119
255.369
251.437
247.426
243.459
239.672
236.211
233.22
230.837
229.17
228.303
228.229
228.788
229.334
201.016
193.234
184.337
174.876
165.601
155.872
146.095
136.554
127.132
117.975
109.12
100.51
92.1783
84.113
76.311
68.8021
61.6265
54.8469
48.5496
42.8366
37.8326
33.6586
30.4577
28.3418
27.3442
27.515
28.9848
31.9075
36.4207
42.6368
50.6352
60.4612
72.1169
85.5552
100.659
117.225
134.848
152.894
169.672
208.308
215.266
222.862
230.788
238.259
245.426
252.018
257.576
262.002
265.45
268.017
269.828
271.058
271.834
272.248
272.367
272.229
271.851
271.23
270.347
269.17
267.654
265.74
263.384
260.611
257.507
254.14
250.582
246.922
243.268
239.743
236.48
233.616
231.277
229.569
228.566
228.26
228.491
228.696
199.869
192.447
183.968
174.964
166.152
156.921
147.659
138.639
129.746
121.122
112.798
104.72
96.9173
89.3766
82.0916
75.0879
68.3998
62.0821
56.2116
50.8792
46.1981
42.2791
39.2484
37.211
36.1938
36.2371
37.4605
40.0132
44.034
49.639
56.9169
65.9243
76.677
89.1393
103.207
118.685
135.195
152.12
167.933
206.83
213.476
220.74
228.329
235.489
242.365
248.701
254.052
258.32
261.657
264.153
265.927
267.148
267.938
268.388
268.564
268.504
268.226
267.732
267.004
266.016
264.725
263.077
261.025
258.587
255.835
252.827
249.623
246.3
242.95
239.686
236.627
233.897
231.617
229.885
228.765
228.25
228.187
228.086
198.803
191.723
183.642
175.07
166.697
157.936
149.161
140.632
132.238
124.113
116.287
108.707
101.399
94.3479
87.5473
81.0171
74.7872
68.9051
63.4395
58.4722
54.1046
50.4392
47.5857
45.6422
44.6303
44.58
45.5999
47.8326
51.4139
56.4624
63.072
71.3085
81.1981
92.7178
105.776
120.191
135.61
151.45
166.326
205.45
211.8
218.747
226.014
232.877
239.477
245.568
250.719
254.838
258.067
260.493
262.228
263.438
264.239
264.718
264.942
264.949
264.759
264.374
263.783
262.961
261.869
260.457
258.678
256.545
254.116
251.442
248.571
245.568
242.513
239.505
236.652
234.065
231.856
230.114
228.896
228.197
227.873
227.504
197.814
191.06
183.356
175.196
167.238
158.922
150.607
142.54
134.615
126.96
119.602
112.488
105.643
99.0507
92.7025
86.6158
80.8158
75.3437
70.2618
65.6426
61.5776
58.1612
55.4886
53.6507
52.6628
52.5463
53.3996
55.3561
58.5472
63.0904
69.0829
76.5961
85.666
96.28
108.361
121.74
136.098
150.889
164.858
204.163
210.23
216.877
223.837
230.417
236.752
242.608
247.569
251.543
254.667
257.025
258.723
259.918
260.726
261.23
261.494
261.559
261.444
261.155
260.683
260.006
259.09
257.888
256.355
254.497
252.364
249.998
247.437
244.736
241.964
239.206
236.557
234.119
231.99
230.253
228.958
228.1
227.549
226.946
196.9
190.455
183.11
175.34
167.775
159.881
152.001
144.37
136.888
129.674
122.754
116.077
109.666
103.503
97.579
91.9075
86.5106
81.4244
76.7044
72.4157
68.6412
65.4669
62.975
61.2497
60.3009
60.1415
60.8587
62.5774
65.4231
69.5094
74.9338
81.7718
90.0667
99.8154
110.955
123.333
136.662
150.442
163.534
202.963
208.762
215.122
221.789
228.098
234.181
239.812
244.59
248.425
251.449
253.74
255.4
256.58
257.392
257.915
258.214
258.328
258.279
258.073
257.703
257.153
256.392
255.376
254.062
252.453
250.589
248.505
246.231
243.813
241.31
238.794
236.348
234.061
232.021
230.304
228.951
227.959
227.212
226.41
196.054
189.904
182.9
175.501
168.31
160.815
153.347
146.128
139.062
132.265
125.757
119.49
113.485
107.724
102.196
96.9128
91.8937
87.17
82.7909
78.8154
75.3177
72.377
70.0637
68.4551
67.5557
67.3712
67.9787
69.4936
72.0335
75.7078
80.6112
86.8216
94.3873
103.314
113.552
124.967
137.304
150.111
162.357
201.847
207.39
213.476
219.864
225.914
231.755
237.171
241.774
245.475
248.402
250.629
252.251
253.415
254.227
254.767
255.095
255.251
255.257
255.123
254.843
254.404
253.778
252.926
251.808
250.422
248.802
246.974
244.965
242.811
240.561
238.276
236.028
233.893
231.95
230.264
228.873
227.773
226.862
225.891
195.275
189.406
182.726
175.68
168.844
161.727
154.648
147.819
141.146
134.739
128.619
122.737
117.112
111.727
106.57
101.651
96.9853
92.6014
88.5429
84.8626
81.628
78.9114
76.7724
75.2814
74.4386
74.2434
74.7631
76.1033
78.3733
81.6761
86.1035
91.733
98.6164
106.766
116.146
126.64
138.024
149.899
161.33
200.81
206.109
211.934
218.055
223.858
229.467
234.677
239.112
242.685
245.518
247.682
249.266
250.413
251.224
251.776
252.128
252.32
252.375
252.302
252.1
251.757
251.25
250.543
249.598
248.412
247.01
245.416
243.649
241.739
239.725
237.66
235.603
233.62
231.779
230.136
228.725
227.54
226.494
225.387
194.558
188.956
182.586
175.875
169.375
162.617
155.907
149.445
143.144
137.105
131.349
125.828
120.561
115.528
110.718
106.138
101.804
97.7377
93.98
90.5781
87.5919
85.0883
83.1179
81.7438
80.9624
80.767
81.2167
82.4072
84.4392
87.4081
91.4017
96.4955
102.743
110.163
118.73
128.347
138.823
149.806
160.453
199.846
204.913
210.488
216.355
221.921
227.31
232.321
236.595
240.045
242.788
244.89
246.438
247.566
248.375
248.935
249.308
249.53
249.626
249.606
249.471
249.212
248.808
248.228
247.437
246.428
245.222
243.839
242.292
240.606
238.812
236.953
235.079
233.246
231.511
229.922
228.506
227.26
226.109
224.892
193.899
188.552
182.476
176.085
169.904
163.487
157.126
151.012
145.06
139.369
133.955
128.774
123.841
119.137
114.651
110.39
106.365
102.596
99.1205
95.9797
93.2281
90.9259
89.1173
87.8573
87.1392
86.9517
87.3461
88.4082
90.23
92.8995
96.499
101.1
106.758
113.496
121.297
130.085
139.696
149.829
159.724
198.952
203.798
209.135
214.757
220.098
225.275
230.097
234.216
237.547
240.203
242.246
243.757
244.867
245.67
246.238
246.626
246.875
247.005
247.031
246.954
246.766
246.452
245.983
245.328
244.476
243.446
242.251
240.904
239.422
237.831
236.165
234.465
232.778
231.151
229.624
228.22
226.934
225.702
224.402
193.295
188.19
182.395
176.308
170.43
164.336
158.306
152.521
146.9
141.536
136.444
131.581
126.962
122.567
118.385
114.421
110.684
107.193
103.981
101.085
98.5535
96.441
94.7863
93.6363
92.982
92.8084
93.1591
94.1109
95.7471
98.1479
101.39
105.54
110.653
116.756
123.841
131.848
140.642
149.968
159.143
198.124
202.758
207.868
213.258
218.382
223.356
227.997
231.966
235.184
237.756
239.741
241.216
242.306
243.104
243.675
244.077
244.347
244.507
244.572
244.544
244.419
244.183
243.811
243.274
242.561
241.686
240.661
239.493
238.197
236.791
235.304
233.769
232.222
230.704
229.246
227.866
226.56
225.274
223.915
192.743
187.869
182.341
176.543
170.953
165.166
159.449
153.976
148.667
143.611
138.822
134.258
129.933
125.827
121.928
118.242
114.774
111.543
108.577
105.909
103.584
101.65
100.14
99.0956
98.504
98.3479
98.664
99.521
100.993
103.154
106.072
109.811
114.423
119.937
126.355
133.63
141.655
150.217
158.704
197.358
201.79
206.683
211.85
216.768
221.547
226.013
229.841
232.949
235.439
237.368
238.808
239.878
240.669
241.242
241.654
241.941
242.126
242.224
242.238
242.167
241.998
241.71
241.276
240.687
239.95
239.074
238.067
236.938
235.702
234.38
232.998
231.586
230.176
228.792
227.449
226.141
224.821
223.425
192.238
187.585
182.312
176.788
171.472
165.977
160.557
155.377
150.363
145.598
141.094
136.811
132.761
128.926
125.292
121.865
118.649
115.66
112.922
110.468
108.335
106.567
105.194
104.249
103.718
103.582
103.871
104.646
105.973
107.918
110.543
113.908
118.061
123.033
128.832
135.425
142.729
150.571
158.403
196.65
200.889
205.575
210.528
215.248
219.842
224.141
227.831
230.834
233.246
235.12
236.525
237.576
238.357
238.931
239.35
239.652
239.858
239.983
240.033
240.007
239.895
239.68
239.338
238.855
238.239
237.498
236.633
235.654
234.571
233.4
232.161
230.878
229.573
228.268
226.971
225.676
224.344
222.931
191.779
187.335
182.305
177.043
171.987
166.767
161.629
156.728
151.992
147.501
143.266
139.246
135.454
131.872
128.486
125.3
122.319
119.555
117.031
114.774
112.82
111.208
109.962
109.11
108.638
108.522
108.789
109.493
110.692
112.444
114.805
117.83
121.564
126.039
131.267
137.227
143.859
151.024
158.234
195.995
200.051
204.539
209.288
213.819
218.235
222.373
225.932
228.833
231.169
232.991
234.361
235.391
236.163
236.735
237.16
237.473
237.695
237.844
237.924
237.937
237.875
237.722
237.458
237.069
236.56
235.936
235.198
234.353
233.408
232.374
231.268
230.105
228.904
227.679
226.437
225.168
223.84
222.427
191.36
187.117
182.318
177.305
172.496
167.539
162.667
158.029
153.557
149.324
145.34
141.569
138.019
134.673
131.519
128.558
125.794
123.24
120.914
118.842
117.054
115.585
114.458
113.693
113.275
113.181
113.43
114.072
115.156
116.735
118.859
121.576
124.929
128.949
133.653
139.03
145.037
151.568
158.189
195.392
199.272
203.571
208.125
212.475
216.72
220.705
224.137
226.94
229.203
230.973
232.309
233.319
234.08
234.649
235.077
235.399
235.635
235.802
235.908
235.953
235.933
235.834
235.638
235.331
234.915
234.393
233.768
233.042
232.22
231.311
230.326
229.276
228.174
227.031
225.849
224.619
223.31
221.913
190.981
186.928
182.349
177.574
172.999
168.291
163.672
159.283
155.058
151.068
147.322
143.783
140.46
137.335
134.397
131.646
129.086
126.726
124.584
122.682
121.048
119.713
118.695
118.011
117.644
117.569
117.805
118.391
119.374
120.799
122.709
125.148
128.155
131.761
135.985
140.825
146.255
152.195
158.261
194.835
198.549
202.666
207.035
211.212
215.293
219.13
222.441
225.15
227.342
229.061
230.364
231.352
232.102
232.667
233.097
233.424
233.671
233.854
233.98
234.053
234.068
234.015
233.877
233.641
233.306
232.874
232.348
231.727
231.015
230.218
229.344
228.399
227.393
226.331
225.214
224.031
222.754
221.386
190.637
186.766
182.397
177.847
173.495
169.022
164.643
160.489
156.499
152.738
149.215
145.894
142.783
139.866
137.129
134.573
132.201
130.022
128.05
126.306
124.815
123.603
122.685
122.076
121.755
121.7
121.924
122.462
123.355
124.64
126.358
128.546
131.241
134.472
138.259
142.608
147.506
152.896
158.441
194.323
197.877
201.822
206.012
210.024
213.948
217.644
220.838
223.456
225.58
227.25
228.519
229.486
230.224
230.784
231.213
231.545
231.8
231.995
232.138
232.234
232.279
232.265
232.176
232
231.735
231.383
230.942
230.414
229.8
229.104
228.33
227.482
226.567
225.586
224.536
223.407
222.173
220.845
190.327
186.629
182.459
178.123
173.983
169.734
165.581
161.65
157.88
154.336
151.022
147.906
144.994
142.269
139.72
137.347
135.15
133.138
131.324
129.726
128.366
127.267
126.442
125.9
125.623
125.586
125.799
126.294
127.106
128.267
129.812
131.775
134.188
137.079
140.47