/*--------------------------------*- C++ -*----------------------------------*\
| =========                 |                                                 |
| \\      /  F ield         | OpenFOAM: The Open Source CFD Toolbox           |
|  \\    /   O peration     | Version:  3.0.0                                 |
|   \\  /    A nd           | Web:      www.OpenFOAM.org                      |
|    \\/     M anipulation  |                                                 |
\*---------------------------------------------------------------------------*/
FoamFile
{
    version     2.0;
    format      ascii;
    class       surfaceScalarField;
    location    "200";
    object      phi;
}
// * * * * * * * * * * * * * * * * * * * * * * * * * * * * * * * * * * * * * //

dimensions      [0 3 -1 0 0 0 0];

internalField   nonuniform List<scalar> 
21254
(
-0.268496
0.287418
-0.0189234
0.308886
-0.0214684
0.326725
-0.0178395
0.342329
-0.0156032
0.356929
-0.0146006
0.368072
-0.0111432
0.376418
-0.00834636
0.382853
-0.00643476
0.386421
-0.00356773
0.388282
-0.0018614
0.388555
-0.000273307
0.386882
0.00167373
0.383873
0.00300825
0.379756
0.0041173
0.374492
0.00526413
0.36843
0.0060623
0.361366
0.00706358
0.353392
0.00797419
0.344319
0.00907264
0.334341
0.00997802
0.32308
0.0112619
0.311082
0.0119974
0.298591
0.0124907
0.286918
0.0116733
0.277275
0.00964319
0.268954
0.00832108
0.260801
0.00815326
0.252496
0.0083044
0.243707
0.00878905
0.234346
0.00936167
0.224382
0.00996354
0.213798
0.010584
0.202509
0.0112887
0.190249
0.0122606
0.176442
0.0138077
0.159965
0.0164765
0.138426
0.0215396
0.106935
0.0314929
0.0902979
0.0166563
-0.245581
-0.0229147
-0.222017
-0.0235641
-0.192533
-0.0294835
-0.159849
-0.0326839
-0.125145
-0.034704
-0.0889146
-0.0362303
-0.0526861
-0.0362284
-0.018429
-0.0342571
0.0126218
-0.0310507
0.0402411
-0.0276192
0.0640947
-0.0238536
0.0844931
-0.0203984
0.101866
-0.0173726
0.116517
-0.0146514
0.129097
-0.0125798
0.13996
-0.010863
0.149597
-0.00963726
0.158265
-0.00866807
0.166285
-0.00801946
0.173798
-0.00751281
0.180986
-0.00718816
0.187858
-0.00687196
0.19436
-0.00650182
0.199893
-0.00553331
0.204274
-0.00438166
0.207773
-0.00349822
0.210386
-0.00261304
0.212226
-0.00184004
0.213326
-0.00110037
0.213711
-0.000385317
0.213259
0.000451995
0.211985
0.00127459
0.210005
0.00197919
0.207416
0.00258898
0.20412
0.00329586
0.199743
0.00437747
0.193205
0.0065379
0.179423
0.0137818
0.159001
0.0204216
-0.245717
0.267325
-0.0405305
0.289335
-0.0434789
0.312169
-0.0406728
0.333342
-0.0367764
0.353901
-0.0351598
0.372779
-0.0300214
0.389619
-0.0251857
0.404698
-0.0215141
0.417607
-0.0164769
0.428413
-0.0126674
0.437358
-0.00921774
0.444711
-0.00568005
0.450482
-0.00276216
0.454535
6.4394e-05
0.456741
0.0030577
0.456806
0.00599731
0.454722
0.00914742
0.450676
0.0120207
0.444215
0.0155336
0.435711
0.0184815
0.424818
0.0221557
0.411899
0.0249161
0.397003
0.0273867
0.380832
0.0278446
0.364694
0.0257806
0.349022
0.0239927
0.333871
0.0233052
0.319414
0.0227606
0.30543
0.0227733
0.291737
0.0230545
0.278103
0.0235979
0.264348
0.0243394
0.250202
0.0254347
0.235421
0.027041
0.219562
0.0296672
0.201526
0.0345133
0.179909
0.0431571
0.145707
0.0656958
0.103732
0.0586434
-0.223545
-0.0450861
-0.199798
-0.0473108
-0.171944
-0.0573378
-0.142353
-0.0622751
-0.110772
-0.0662847
-0.077648
-0.069354
-0.0445277
-0.0693487
-0.0128207
-0.0659641
0.0167796
-0.0606509
0.0435188
-0.0543584
0.0669584
-0.0472932
0.0873825
-0.0408224
0.105233
-0.0352228
0.120785
-0.0302032
0.134463
-0.026258
0.146566
-0.0229661
0.157388
-0.0204589
0.167236
-0.0185164
0.176369
-0.0171527
0.184911
-0.0160543
0.193026
-0.0153034
0.200793
-0.0146389
0.20815
-0.0138586
0.214658
-0.012042
0.22005
-0.0097736
0.224522
-0.00796965
0.228069
-0.00616087
0.230747
-0.0045176
0.232583
-0.00293636
0.233655
-0.00145738
0.234103
4.28765e-06
0.233987
0.00139024
0.233187
0.00277912
0.231635
0.00414093
0.229258
0.00567288
0.225812
0.00782301
0.221339
0.0110114
0.211379
0.023742
0.192316
0.0394833
-0.238216
0.259804
-0.062119
0.281441
-0.0651153
0.304715
-0.0639472
0.325888
-0.0579489
0.345869
-0.0551403
0.364882
-0.0490353
0.381633
-0.041936
0.396549
-0.0364303
0.409182
-0.0291103
0.41987
-0.0233549
0.42859
-0.0179375
0.435571
-0.0126613
0.440704
-0.00789559
0.444518
-0.00374967
0.446873
0.000702799
0.448436
0.00443432
0.448809
0.00877488
0.44829
0.0125395
0.446493
0.0173312
0.44331
0.0216642
0.438591
0.0268751
0.432136
0.031371
0.423912
0.0356106
0.414038
0.0377187
0.403086
0.0367322
0.39117
0.0359086
0.378229
0.0362467
0.364453
0.0365362
0.350046
0.0371799
0.335118
0.0379827
0.319809
0.0389076
0.304127
0.0400217
0.287982
0.0415798
0.271156
0.0438663
0.253206
0.0476176
0.233039
0.0546811
0.209382
0.0668143
0.174337
0.100741
0.125236
0.107752
-0.216421
-0.0668805
-0.192364
-0.071368
-0.163473
-0.0862287
-0.13328
-0.0924681
-0.101597
-0.0979673
-0.068548
-0.102403
-0.0357668
-0.10213
-0.00502081
-0.0967101
0.023483
-0.0891547
0.0494524
-0.0803278
0.0725721
-0.0704129
0.0930028
-0.0612531
0.111033
-0.0532531
0.126931
-0.0461006
0.141011
-0.0403381
0.153592
-0.0355473
0.164936
-0.0318028
0.175307
-0.028888
0.184919
-0.0267643
0.193939
-0.0250741
0.202555
-0.0239194
0.210791
-0.0228754
0.21857
-0.021637
0.225602
-0.0190741
0.231609
-0.0157809
0.236688
-0.013049
0.240898
-0.0103705
0.24427
-0.00789011
0.246871
-0.00553703
0.248691
-0.00327717
0.249794
-0.00109914
0.250186
0.000998181
0.249902
0.003063
0.248884
0.00515886
0.247046
0.00751121
0.244026
0.0108429
0.239443
0.0155936
0.229744
0.0334409
0.211349
0.0578781
-0.229622
0.252342
-0.0848389
0.275028
-0.087801
0.299892
-0.0888113
0.322516
-0.0805722
0.344329
-0.0769538
0.365119
-0.0698249
0.384115
-0.0609321
0.40109
-0.0534054
0.416291
-0.0443109
0.429503
-0.0365672
0.440836
-0.0292708
0.450315
-0.0221397
0.457989
-0.0155698
0.463902
-0.0096625
0.468314
-0.0037097
0.470828
0.00192063
0.471642
0.00796121
0.470544
0.0136369
0.467914
0.0199615
0.463644
0.0259348
0.457891
0.0326273
0.450897
0.0383652
0.442758
0.04375
0.433938
0.0465382
0.424817
0.045853
0.415412
0.0453136
0.405323
0.0463363
0.394388
0.0474706
0.382437
0.049131
0.36932
0.0511006
0.35507
0.0531571
0.339715
0.0553772
0.323274
0.0580206
0.305616
0.0615244
0.286446
0.0667881
0.264726
0.0764013
0.239124
0.0924161
0.202602
0.137265
0.151703
0.158659
-0.207179
-0.0893232
-0.183021
-0.0955266
-0.153651
-0.115599
-0.123391
-0.122728
-0.0917233
-0.129635
-0.0586647
-0.135461
-0.0261105
-0.134684
0.00418571
-0.127006
0.0320281
-0.116997
0.0574331
-0.105733
0.0800836
-0.0930634
0.100198
-0.0813676
0.118138
-0.0711932
0.134125
-0.0620872
0.148473
-0.0546861
0.161412
-0.0484863
0.173209
-0.0435995
0.184045
-0.0397244
0.194149
-0.0368675
0.203662
-0.0345875
0.212699
-0.0329568
0.221333
-0.0315085
0.229511
-0.0298155
0.23693
-0.0264932
0.243352
-0.0222024
0.248832
-0.0185298
0.253416
-0.0149543
0.257152
-0.011626
0.260073
-0.00845832
0.262237
-0.00544079
0.263673
-0.00253585
0.26441
0.000261598
0.264456
0.00301684
0.263803
0.00581162
0.262348
0.00896669
0.259739
0.0134513
0.255439
0.0198934
0.24628
0.0426003
0.228115
0.076043
-0.225002
0.24851
-0.108347
0.272057
-0.111348
0.298342
-0.115096
0.321723
-0.103954
0.344583
-0.0998141
0.366507
-0.0917484
0.386434
-0.0808588
0.404434
-0.0714057
0.420841
-0.0607181
0.434979
-0.0507047
0.447251
-0.041543
0.457602
-0.0324904
0.466337
-0.0243049
0.473109
-0.0164342
0.47808
-0.00868086
0.481318
-0.00131764
0.482989
0.00629008
0.483116
0.0135102
0.48144
0.0216377
0.478239
0.0291356
0.473373
0.0374929
0.466999
0.0447393
0.459369
0.0513799
0.450886
0.0550212
0.442115
0.0546245
0.433239
0.0541896
0.424081
0.0554937
0.414538
0.0570135
0.404419
0.05925
0.393509
0.0620106
0.381523
0.0651434
0.368218
0.068683
0.353385
0.0728529
0.336757
0.078153
0.317928
0.0856166
0.295977
0.0983524
0.269412
0.118982
0.23181
0.174867
0.180287
0.210187
-0.201504
-0.112821
-0.176633
-0.120398
-0.146002
-0.14623
-0.114924
-0.153805
-0.0825682
-0.16199
-0.0489405
-0.169089
-0.0159933
-0.167631
0.0142948
-0.157294
0.0418372
-0.144539
0.0668837
-0.130779
0.0891339
-0.115314
0.108897
-0.101131
0.126654
-0.08895
0.142601
-0.0780342
0.157042
-0.0691275
0.170236
-0.0616803
0.182353
-0.0557157
0.193567
-0.0509386
0.204066
-0.0473671
0.213989
-0.0445099
0.22343
-0.0423982
0.232433
-0.0405114
0.24097
-0.038352
0.248775
-0.0342988
0.255594
-0.0290208
0.261452
-0.0243886
0.266384
-0.019886
0.270441
-0.0156827
0.273651
-0.0116691
0.27605
-0.00783911
0.277679
-0.0041653
0.278592
-0.000651952
0.278795
0.00281421
0.278255
0.00635154
0.276934
0.0102881
0.274467
0.0159178
0.270297
0.0240634
0.261671
0.0512261
0.244099
0.0936146
-0.221212
0.245745
-0.132879
0.270671
-0.136275
0.298359
-0.142783
0.323001
-0.128596
0.346921
-0.123733
0.370291
-0.115119
0.391246
-0.101814
0.41062
-0.0907798
0.428089
-0.0781866
0.443555
-0.0661706
0.457241
-0.0552296
0.468956
-0.0442047
0.478943
-0.0342916
0.487177
-0.0246689
0.493511
-0.0150143
0.498275
-0.00608171
0.501066
0.00349846
0.501981
0.0125956
0.501154
0.0224648
0.498418
0.0318713
0.493842
0.042069
0.487667
0.0509142
0.480058
0.0589888
0.47145
0.0636292
0.462364
0.0637108
0.453062
0.0634919
0.443494
0.0650615
0.433665
0.0668423
0.423557
0.0693584
0.41306
0.0725075
0.402048
0.0761551
0.390218
0.0805137
0.377219
0.0858517
0.36255
0.0928221
0.345535
0.102631
0.32493
0.118958
0.299045
0.144867
0.26158
0.212333
0.210105
0.261667
-0.196745
-0.137288
-0.17107
-0.146073
-0.139146
-0.178154
-0.106938
-0.186013
-0.0736082
-0.19532
-0.0391
-0.203597
-0.00547199
-0.201259
0.0251085
-0.187875
0.0526619
-0.172093
0.0775551
-0.155672
0.0995329
-0.137291
0.118983
-0.120581
0.136496
-0.106464
0.152316
-0.0938537
0.166747
-0.0835581
0.180042
-0.0749761
0.192358
-0.0680311
0.203871
-0.0624516
0.214707
-0.058203
0.224988
-0.054791
0.234804
-0.0522144
0.24418
-0.0498872
0.253067
-0.047239
0.261284
-0.0425161
0.268509
-0.0362459
0.274729
-0.030608
0.280025
-0.0251823
0.284394
-0.0200524
0.287885
-0.0151597
0.290527
-0.0104815
0.292363
-0.00600047
0.293418
-0.00170697
0.293708
0.00252401
0.293256
0.00680366
0.291925
0.0116183
0.28945
0.0183933
0.28518
0.0283328
0.276823
0.0595829
0.259896
0.110541
-0.218916
0.244793
-0.158757
0.270743
-0.162225
0.300013
-0.172053
0.325955
-0.154538
0.35116
-0.148938
0.375622
-0.139581
0.397793
-0.123985
0.418045
-0.111032
0.436615
-0.0967564
0.453069
-0.0826249
0.467632
-0.0697918
0.480455
-0.0570281
0.491401
-0.0452376
0.500534
-0.0338018
0.507922
-0.0224027
0.513369
-0.0115285
0.517061
-0.000193222
0.518906
0.0107502
0.518928
0.0224428
0.517066
0.0337334
0.513368
0.045767
0.507903
0.0563799
0.501006
0.0658849
0.492869
0.0717668
0.484008
0.0725712
0.474665
0.0728351
0.464852
0.0748752
0.454608
0.0770857
0.444024
0.0799424
0.433063
0.0834689
0.421716
0.0875016
0.409907
0.0923232
0.397439
0.0983193
0.383875
0.106387
0.368555
0.117951
0.350085
0.137429
0.326378
0.168573
0.290901
0.247811
0.240554
0.312016
-0.193232
-0.162971
-0.166444
-0.172862
-0.133079
-0.211519
-0.0995707
-0.219522
-0.0650591
-0.229832
-0.0293228
-0.239334
0.0052403
-0.235822
0.0364317
-0.219066
0.0642934
-0.199955
0.089291
-0.18067
0.111121
-0.159122
0.130341
-0.1398
0.147626
-0.123748
0.163262
-0.10949
0.17759
-0.0978859
0.190899
-0.0882844
0.203339
-0.0804719
0.215052
-0.0741641
0.226162
-0.069313
0.236757
-0.0653864
0.246904
-0.0623607
0.256617
-0.0596002
0.265874
-0.0564957
0.274436
-0.0510781
0.28207
-0.0438805
0.288699
-0.037237
0.294341
-0.0308246
0.299046
-0.0247572
0.302816
-0.01893
0.305713
-0.0133785
0.307741
-0.00802773
0.308957
-0.00292364
0.309377
0.00210462
0.308956
0.00722377
0.307654
0.0129203
0.305115
0.0209322
0.300692
0.0327557
0.29242
0.0678556
0.276077
0.126884
-0.217429
0.244647
-0.185975
0.27205
-0.189627
0.303018
-0.203021
0.330165
-0.181685
0.35668
-0.175453
0.382417
-0.165318
0.40563
-0.147199
0.427146
-0.132548
0.446559
-0.116169
0.463996
-0.100063
0.47967
-0.0854653
0.493406
-0.070764
0.505286
-0.0571176
0.51543
-0.0439458
0.523767
-0.0307397
0.530252
-0.0180143
0.534915
-0.00485557
0.537705
0.00796007
0.538513
0.021635
0.537363
0.0348833
0.534356
0.0487735
0.529502
0.0612348
0.523051
0.0723358
0.515365
0.0794525
0.506768
0.0811677
0.497517
0.0820869
0.487668
0.0847234
0.477231
0.0875227
0.466257
0.0909173
0.454814
0.0949117
0.442859
0.0994567
0.430441
0.104741
0.417454
0.111306
0.40376
0.120082
0.388866
0.132845
0.37173
0.154565
0.350426
0.189878
0.318404
0.279833
0.270698
0.359727
-0.190519
-0.189881
-0.162579
-0.200802
-0.127494
-0.246603
-0.0924662
-0.25455
-0.0565362
-0.265762
-0.0194436
-0.276426
0.0163099
-0.271576
0.0483363
-0.251093
0.076709
-0.228327
0.101952
-0.205913
0.123813
-0.180982
0.142889
-0.158876
0.159978
-0.140837
0.17542
-0.124932
0.189607
-0.112074
0.202876
-0.101553
0.215345
-0.0929406
0.227184
-0.0860032
0.238487
-0.080616
0.249339
-0.0762385
0.259767
-0.0727883
0.269809
-0.0696424
0.279405
-0.0660922
0.288349
-0.0600219
0.296371
-0.0519023
0.303385
-0.044251
0.309401
-0.0368411
0.314448
-0.0298041
0.31852
-0.0230017
0.321659
-0.0165182
0.323914
-0.0102826
0.325292
-0.0043011
0.325825
0.00157092
0.325482
0.00756671
0.324162
0.01424
0.321564
0.0235311
0.317004
0.037315
0.308748
0.0761119
0.292992
0.142639
-0.216902
0.245482
-0.214555
0.274338
-0.218483
0.307006
-0.235688
0.335553
-0.210232
0.363559
-0.203458
0.39067
-0.192429
0.415128
-0.171657
0.437537
-0.154957
0.458103
-0.136735
0.476405
-0.118364
0.492814
-0.101874
0.507406
-0.0853557
0.520194
-0.0699059
0.531178
-0.05493
0.540363
-0.039924
0.547772
-0.0254235
0.553261
-0.010345
0.556812
0.00440894
0.558402
0.0200451
0.557998
0.0352875
0.55569
0.0510811
0.551528
0.0653974
0.545688
0.078176
0.538493
0.0866466
0.530274
0.0893873
0.521232
0.091129
0.51142
0.0945352
0.500914
0.0980286
0.489777
0.102055
0.478001
0.106688
0.4656
0.111857
0.452586
0.117756
0.43891
0.124982
0.424461
0.134531
0.409006
0.1483
0.391839
0.171732
0.371816
0.2099
0.343435
0.308214
0.299357
0.403806
-0.188487
-0.218296
-0.159189
-0.2301
-0.122332
-0.28346
-0.0857602
-0.291121
-0.0481807
-0.303341
-0.00951127
-0.315095
0.0277093
-0.308796
0.0607506
-0.284134
0.0898263
-0.257403
0.115513
-0.231599
0.137528
-0.202998
0.156584
-0.177932
0.173545
-0.157798
0.188815
-0.140202
0.202842
-0.1261
0.215991
-0.114703
0.228439
-0.105389
0.240331
-0.0978953
0.251761
-0.0920457
0.262812
-0.0872897
0.273513
-0.0834889
0.283829
-0.079958
0.293739
-0.0760022
0.303048
-0.069331
0.311474
-0.0603287
0.318859
-0.0516357
0.325251
-0.0432334
0.330622
-0.0351748
0.335017
-0.0273966
0.338434
-0.0199354
0.340904
-0.0127525
0.342467
-0.00586454
0.343114
0.000923841
0.342844
0.00783634
0.341554
0.0155301
0.338913
0.0261722
0.334201
0.0420273
0.325985
0.0843273
0.310817
0.157807
-0.216876
0.247082
-0.244761
0.277491
-0.248893
0.312062
-0.270259
0.342067
-0.240237
0.371354
-0.232746
0.399954
-0.221029
0.425596
-0.197299
0.449166
-0.178528
0.470738
-0.158306
0.489944
-0.13757
0.50724
-0.119171
0.522748
-0.100864
0.536274
-0.0834316
0.548009
-0.0666655
0.558099
-0.0500135
0.566245
-0.0335696
0.572553
-0.016653
0.576876
8.61858e-05
0.579294
0.0176268
0.579697
0.0348847
0.57801
0.0527684
0.574504
0.0689026
0.569247
0.0834336
0.562556
0.0933373
0.554686
0.0972573
0.545805
0.10001
0.53609
0.10425
0.525588
0.108531
0.514292
0.11335
0.50231
0.11867
0.489592
0.124575
0.476112
0.131235
0.461838
0.139257
0.446657
0.149711
0.430367
0.164591
0.412368
0.189732
0.392188
0.230081
0.366297
0.334106
0.325849
0.444257
-0.187103
-0.248069
-0.156337
-0.260866
-0.117515
-0.322283
-0.0790755
-0.329561
-0.0398306
-0.342586
0.000684121
-0.35561
0.0394235
-0.347536
0.073695
-0.318405
0.103647
-0.287355
0.129957
-0.257909
0.152267
-0.225308
0.171379
-0.197045
0.18829
-0.174709
0.203426
-0.155338
0.217291
-0.139965
0.230309
-0.12772
0.242682
-0.117762
0.254558
-0.109772
0.26608
-0.103568
0.277275
-0.0984844
0.288149
-0.0943631
0.298736
-0.0905446
0.308956
-0.0862222
0.318606
-0.0789812
0.327394
-0.0691168
0.335178
-0.0594195
0.341921
-0.0499769
0.347656
-0.0409094
0.352357
-0.0320982
0.356051
-0.0236293
0.358773
-0.015474
0.360508
-0.00759974
0.361303
0.000128873
0.36112
0.00801889
0.359843
0.0168074
0.357147
0.028868
0.352348
0.0468261
0.344198
0.0924772
0.329596
0.172409
-0.217554
0.249325
-0.276531
0.281308
-0.280877
0.317808
-0.306759
0.349508
-0.271937
0.380422
-0.263659
0.410497
-0.251104
0.43728
-0.224082
0.462097
-0.203345
0.48472
-0.180929
0.504888
-0.157738
0.522994
-0.137277
0.539153
-0.117022
0.553509
-0.0977878
0.566125
-0.0792821
0.576827
-0.0607147
0.58578
-0.0425232
0.592836
-0.0237086
0.597972
-0.00505001
0.601072
0.014527
0.602163
0.0337933
0.601213
0.053719
0.598295
0.0718207
0.593623
0.088105
0.587445
0.0995152
0.579973
0.104729
0.57139
0.108593
0.561783
0.113857
0.551236
0.119078
0.539876
0.12471
0.52766
0.130886
0.514648
0.137587
0.50081
0.145073
0.48606
0.154006
0.470263
0.165508
0.453179
0.181675
0.434258
0.208653
0.413067
0.251271
0.388199
0.358975
0.350457
0.482
-0.186094
-0.279529
-0.153827
-0.293133
-0.112926
-0.363184
-0.0725545
-0.369932
-0.0313321
-0.383808
0.011035
-0.397977
0.0515316
-0.388032
0.0871941
-0.354068
0.118211
-0.318372
0.145213
-0.284912
0.167971
-0.248065
0.18727
-0.216345
0.204217
-0.191656
0.219252
-0.170372
0.232975
-0.153688
0.245852
-0.140598
0.258114
-0.130023
0.269957
-0.121615
0.281474
-0.115085
0.292755
-0.109766
0.303814
-0.105422
0.314616
-0.101347
0.325097
-0.0967026
0.335083
-0.0889669
0.344234
-0.0782677
0.352384
-0.0675697
0.359511
-0.0571043
0.365588
-0.0469861
0.370627
-0.0371368
0.374607
-0.0276093
0.377554
-0.0184217
0.379511
-0.00955667
0.380443
-0.000803046
0.380356
0.00810601
0.379102
0.0180614
0.37639
0.0315796
0.37149
0.0517263
0.363421
0.100546
0.349448
0.186382
-0.218597
0.252176
-0.31011
0.285922
-0.314623
0.32446
-0.345296
0.357753
-0.305231
0.390279
-0.296186
0.421942
-0.282767
0.450249
-0.252389
0.476201
-0.229298
0.499905
-0.204633
0.520986
-0.17882
0.540011
-0.156302
0.557059
-0.13407
0.572047
-0.112776
0.585304
-0.0925394
0.596809
-0.072219
0.606475
-0.0521892
0.614213
-0.0314466
0.620005
-0.0108425
0.623809
0.0107236
0.625608
0.0319938
0.625349
0.0539784
0.623106
0.0740637
0.619024
0.0921871
0.613346
0.105193
0.60626
0.111815
0.597945
0.116909
0.588478
0.123325
0.577988
0.129568
0.566515
0.136183
0.554133
0.143269
0.54084
0.15088
0.526624
0.159289
0.51145
0.16918
0.495108
0.18185
0.477357
0.199427
0.457637
0.228373
0.435274
0.273635
0.410276
0.383974
0.374215
0.518064
-0.185504
-0.312622
-0.151498
-0.327139
-0.108468
-0.406214
-0.0659991
-0.412401
-0.0227325
-0.427075
0.0216792
-0.442389
0.0641211
-0.430474
0.10128
-0.391227
0.133463
-0.350555
0.161364
-0.312813
0.184688
-0.271388
0.20428
-0.235937
0.221294
-0.20867
0.23631
-0.185388
0.249922
-0.1673
0.262662
-0.153337
0.27479
-0.142151
0.286541
-0.133366
0.298051
-0.126595
0.309368
-0.121083
0.320527
-0.116582
0.331501
-0.112321
0.342252
-0.107453
0.352544
-0.0992587
0.362042
-0.0877659
0.370557
-0.0760847
0.378039
-0.0645861
0.38448
-0.0534279
0.389824
-0.0424807
0.394111
-0.0318956
0.39732
-0.0216311
0.399473
-0.0117096
0.400579
-0.00190945
0.400575
0.00810986
0.39937
0.0192663
0.396633
0.0343171
0.39166
0.0566986
0.38374
0.108466
0.370415
0.199707
-0.220205
0.25548
-0.345385
0.291089
-0.350232
0.331784
-0.385991
0.366938
-0.340384
0.401217
-0.330466
0.434516
-0.316066
0.464243
-0.282115
0.491537
-0.256592
0.516301
-0.229396
0.538378
-0.200896
0.558245
-0.176169
0.576041
-0.151866
0.591872
-0.128607
0.605855
-0.106523
0.617993
-0.0843569
0.628274
-0.0624694
0.636706
-0.0398792
0.643212
-0.0173482
0.647693
0.00624302
0.650078
0.0296084
0.650464
0.0535927
0.648814
0.0757135
0.645305
0.0956963
0.640181
0.110316
0.633591
0.118405
0.625568
0.124932
0.616296
0.132597
0.605845
0.140019
0.594308
0.147719
0.581766
0.155811
0.568223
0.164423
0.553654
0.173858
0.538011
0.184823
0.521135
0.198727
0.502763
0.217799
0.482351
0.248786
0.459023
0.296962
0.43338
0.409617
0.398245
0.553199
-0.185177
-0.34765
-0.149524
-0.362792
-0.104119
-0.451619
-0.0594642
-0.457056
-0.0139372
-0.472602
0.0327524
-0.489078
0.0771474
-0.474869
0.116016
-0.430096
0.149499
-0.384038
0.178404
-0.341718
0.202386
-0.29537
0.222362
-0.255913
0.23959
-0.225899
0.254631
-0.200429
0.268173
-0.180842
0.280794
-0.165958
0.292787
-0.154144
0.304421
-0.145
0.315856
-0.13803
0.327181
-0.132408
0.338404
-0.127805
0.349533
-0.123449
0.360485
-0.118406
0.37107
-0.109844
0.380892
-0.0975872
0.389756
-0.0849484
0.397594
-0.0724243
0.404362
-0.0601962
0.41005
-0.0481685
0.414636
-0.0364822
0.418116
-0.0251112
0.420502
-0.0140955
0.421769
-0.00317646
0.421887
0.00799209
0.420721
0.0204326
0.417998
0.03704
0.412982
0.0617139
0.405174
0.116274
0.392551
0.212329
-0.222091
0.259312
-0.382606
0.296888
-0.387808
0.339882
-0.428985
0.376924
-0.377425
0.41298
-0.366522
0.448034
-0.351121
0.479309
-0.31339
0.507911
-0.285194
0.533912
-0.255398
0.556987
-0.223971
0.577831
-0.197014
0.596421
-0.170455
0.612974
-0.145161
0.627646
-0.121195
0.640339
-0.0970499
0.651323
-0.0734535
0.660397
-0.0489524
0.667518
-0.0244692
0.672661
0.00109945
0.675732
0.0265371
0.676715
0.05261
0.67569
0.0767386
0.672766
0.0986205
0.668155
0.114927
0.661987
0.124573
0.654289
0.13263
0.645245
0.141641
0.634903
0.150361
0.623338
0.159284
0.610649
0.1685
0.596845
0.178227
0.581938
0.188765
0.565832
0.200929
0.548441
0.216118
0.52945
0.23679
0.50838
0.269856
0.484208
0.321134
0.457879
0.435947
0.42332
0.587759
-0.185296
-0.384444
-0.147578
-0.40051
-0.0997998
-0.499397
-0.0527596
-0.504096
-0.00492267
-0.520439
0.0441035
-0.538105
0.0907763
-0.521542
0.13143
-0.470749
0.166394
-0.419002
0.196403
-0.371728
0.221169
-0.320135
0.241611
-0.276355
0.2591
-0.243388
0.274229
-0.215558
0.287725
-0.194338
0.300254
-0.178487
0.312128
-0.166018
0.323624
-0.156496
0.33497
-0.149375
0.346262
-0.1437
0.357518
-0.139062
0.368739
-0.13467
0.379888
-0.129555
0.390726
-0.120681
0.400847
-0.107708
0.410039
-0.0941409
0.418221
-0.080606
0.425345
-0.0673201
0.431364
-0.0541872
0.436256
-0.0413742
0.440003
-0.0288588
0.442607
-0.0167
0.444062
-0.00463134
0.444302
0.00775201
0.4432
0.0215344
0.440487
0.0397531
0.435462
0.0667388
0.427854
0.123882
0.415919
0.224264
-0.224333
0.263668
-0.421942
0.303263
-0.427403
0.348669
-0.474391
0.387658
-0.416414
0.425641
-0.404505
0.462653
-0.388133
0.495443
-0.34618
0.52549
-0.315241
0.552854
-0.282761
0.577032
-0.248148
0.598762
-0.218744
0.618207
-0.1899
0.635392
-0.162346
0.650753
-0.136555
0.664218
-0.110516
0.675781
-0.0850166
0.685474
-0.0586445
0.693184
-0.0321795
0.698824
-0.00454086
0.702482
0.0228794
0.704096
0.0509964
0.703604
0.0772303
0.701247
0.100977
0.697169
0.119005
0.691476
0.130266
0.684185
0.139921
0.675345
0.150481
0.66513
0.160576
0.653608
0.170806
0.640806
0.181302
0.626788
0.192245
0.611533
0.204021
0.595028
0.217434
0.577095
0.234051
0.557457
0.256427
0.535721
0.291592
0.510862
0.345993
0.483861
0.462948
0.449831
0.62179
-0.185535
-0.423243
-0.145953
-0.440091
-0.0955006
-0.54985
-0.0459744
-0.553622
0.00436157
-0.570775
0.0559675
-0.589711
0.104933
-0.570508
0.147585
-0.513401
0.184069
-0.455486
0.215351
-0.403009
0.240969
-0.345754
0.262012
-0.297397
0.27985
-0.261226
0.295132
-0.230841
0.308662
-0.207868
0.321106
-0.190931
0.332855
-0.177767
0.344242
-0.167884
0.355474
-0.160607
0.366689
-0.154915
0.377937
-0.15031
0.389242
-0.145974
0.400541
-0.140855
0.411603
-0.131743
0.422017
-0.118123
0.431517
-0.10364
0.440026
-0.0891158
0.447473
-0.0747664
0.453819
-0.0605341
0.459007
-0.0465617
0.46304
-0.0328916
0.465898
-0.0195587
0.467527
-0.00626004
0.467916
0.00736262
0.466897
0.0225536
0.464212
0.0424381
0.459207
0.0717434
0.451769
0.13132
0.440579
0.235454
-0.226992
0.268486
-0.463436
0.310205
-0.469121
0.358118
-0.522304
0.399168
-0.457464
0.439271
-0.444609
0.47823
-0.427091
0.512721
-0.380671
0.54432
-0.34684
0.572971
-0.311412
0.59824
-0.273418
0.620963
-0.241466
0.641286
-0.210223
0.659356
-0.180417
0.675349
-0.152548
0.68941
-0.124576
0.701566
-0.0971734
0.711821
-0.0688989
0.7201
-0.0404587
0.72641
-0.0108509
0.7306
0.0186898
0.732719
0.0488768
0.732828
0.0771216
0.73098
0.102825
0.72741
0.122575
0.722161
0.135515
0.715244
0.146838
0.706708
0.159017
0.696653
0.170631
0.685157
0.182302
0.672277
0.194181
0.658077
0.206445
0.642535
0.219563
0.625589
0.234379
0.607133
0.252507
0.586893
0.276668
0.564505
0.313981
0.538956
0.371542
0.51138
0.490524
0.477887
0.655283
-0.186021
-0.464213
-0.144288
-0.481825
-0.0911353
-0.603002
-0.0389715
-0.605786
0.014014
-0.62376
0.0683155
-0.644012
0.119793
-0.621985
0.164525
-0.558133
0.202725
-0.493686
0.235339
-0.435623
0.261955
-0.372371
0.283642
-0.319084
0.301881
-0.279464
0.317398
-0.246357
0.330982
-0.221452
0.343409
-0.203357
0.35505
-0.189408
0.366309
-0.179143
0.37742
-0.171718
0.388552
-0.166047
0.399764
-0.161521
0.411093
-0.157303
0.422518
-0.15228
0.433798
-0.143023
0.444459
-0.128783
0.454239
-0.113421
0.463058
-0.0979342
0.470826
-0.0825346
0.477494
-0.0672024
0.483001
-0.0520679
0.487313
-0.0372043
0.490397
-0.0226421
0.492249
-0.00811263
0.492776
0.0068352
0.491856
0.0234742
0.489223
0.0450706
0.484257
0.0767097
0.477052
0.138525
0.466636
0.24587
-0.229892
0.273601
-0.507145
0.317651
-0.513172
0.368246
-0.5729
0.411524
-0.500742
0.453785
-0.486869
0.494763
-0.46807
0.531107
-0.417015
0.564312
-0.380045
0.594331
-0.341431
0.620828
-0.299914
0.644688
-0.265326
0.66586
-0.231396
0.684693
-0.19925
0.70142
-0.169275
0.716082
-0.139238
0.728846
-0.109938
0.739647
-0.0797
0.748502
-0.0493135
0.755289
-0.017638
0.760053
0.0139265
0.762688
0.0462415
0.763277
0.0765328
0.761974
0.104128
0.75889
0.125659
0.754132
0.140273
0.747587
0.153382
0.739339
0.167265
0.729474
0.180497
0.718037
0.193739
0.705133
0.207086
0.690768
0.22081
0.674953
0.235378
0.657626
0.251706
0.63867
0.271463
0.617848
0.297489
0.594761
0.337068
0.568589
0.397715
0.5405
0.518613
0.507528
0.688255
-0.1867
-0.507405
-0.142758
-0.525767
-0.0867331
-0.659027
-0.0317245
-0.660794
0.0240385
-0.679523
0.081156
-0.70113
0.13536
-0.676189
0.182285
-0.605058
0.222334
-0.533735
0.256395
-0.469684
0.284066
-0.400042
0.30649
-0.341508
0.325251
-0.298225
0.341038
-0.262143
0.354749
-0.235164
0.367187
-0.215795
0.378766
-0.200987
0.389909
-0.190285
0.400897
-0.182707
0.411915
-0.177065
0.423074
-0.17268
0.434409
-0.168639
0.445927
-0.163798
0.457372
-0.154468
0.468251
-0.139663
0.478308
-0.123478
0.487413
-0.107039
0.495499
-0.090621
0.502468
-0.0741707
0.508279
-0.0578788
0.512872
-0.0417978
0.516225
-0.0259954
0.518275
-0.0101621
0.518955
0.00615509
0.518154
0.0242748
0.515586
0.0476393
0.51072
0.0815751
0.503741
0.145504
0.49408
0.255531
-0.233162
0.279271
-0.553254
0.325764
-0.559664
0.379028
-0.626164
0.424777
-0.546491
0.469185
-0.531277
0.512433
-0.511318
0.550611
-0.455193
0.585521
-0.414955
0.617076
-0.372986
0.644875
-0.327714
0.6697
-0.290151
0.691909
-0.253605
0.711498
-0.218839
0.72894
-0.186716
0.744341
-0.154639
0.757644
-0.123242
0.769031
-0.0910864
0.778395
-0.0586777
0.785747
-0.0249902
0.79097
0.00870379
0.794088
0.0431235
0.795213
0.0754076
0.794337
0.105005
0.791728
0.128268
0.787391
0.14461
0.781235
0.159538
0.773311
0.175189
0.763663
0.190146
0.752371
0.20503
0.739441
0.220016
0.724946
0.235305
0.708876
0.251448
0.691185
0.269397
0.67177
0.290878
0.650336
0.318923
0.626638
0.360766
0.599834
0.424518
0.571221
0.547227
0.538802
0.720675
-0.187629
-0.552938
-0.141301
-0.572095
-0.0821859
-0.718142
-0.0242666
-0.718714
0.0345028
-0.738293
0.0946413
-0.761268
0.151593
-0.733141
0.20097
-0.654434
0.242936
-0.575701
0.278602
-0.50535
0.307444
-0.428884
0.330703
-0.364767
0.350021
-0.317543
0.366155
-0.278277
0.380042
-0.249051
0.392512
-0.228266
0.404068
-0.212543
0.4151
-0.201317
0.425963
-0.19357
0.43687
-0.187972
0.447949
-0.183759
0.459265
-0.179955
0.470853
-0.175385
0.482445
-0.166059
0.49353
-0.150749
0.503814
-0.133761
0.51318
-0.116406
0.521541
-0.0989821
0.528821
-0.0814508
0.534919
-0.0639759
0.539806
-0.0466853
0.543397
-0.0295867
0.54568
-0.012445
0.546553
0.00528227
0.545852
0.024976
0.543411
0.0500796
0.53864
0.0863461
0.531963
0.152181
0.523075
0.264418
-0.236695
0.285333
-0.601892
0.334286
-0.608618
0.390624
-0.682502
0.438662
-0.594529
0.485595
-0.57821
0.531092
-0.556815
0.571375
-0.495476
0.607996
-0.451576
0.641121
-0.406111
0.670239
-0.356831
0.696339
-0.316252
0.719462
-0.276727
0.739992
-0.239369
0.758182
-0.204906
0.774206
-0.170663
0.788132
-0.137167
0.800036
-0.102991
0.809886
-0.068527
0.817677
-0.0327818
0.823387
0.0029942
0.827012
0.0394987
0.828518
0.0739017
0.828102
0.105421
0.825959
0.13041
0.822049
0.148519
0.816322
0.165266
0.808717
0.182794
0.799288
0.199574
0.788103
0.216216
0.775219
0.2329
0.760631
0.249893
0.744342
0.267737
0.726319
0.28742
0.706451
0.310746
0.684495
0.340879
0.660175
0.385087
0.63278
0.451913
0.603689
0.576317
0.571778
0.752587
-0.188695
-0.600938
-0.139862
-0.620929
-0.0775243
-0.78048
-0.0165349
-0.779703
0.045387
-0.800215
0.108726
-0.824607
0.168703
-0.793117
0.220568
-0.706299
0.264622
-0.619756
0.301957
-0.542685
0.332079
-0.459006
0.356259
-0.388947
0.376208
-0.337492
0.392764
-0.294834
0.406883
-0.26317
0.419453
-0.240835
0.430987
-0.224077
0.441951
-0.212281
0.452699
-0.204318
0.463507
-0.19878
0.474482
-0.194734
0.485777
-0.19125
0.497397
-0.187006
0.509105
-0.177767
0.520368
-0.162011
0.530846
-0.144239
0.540471
-0.126031
0.549099
-0.10761
0.55664
-0.0889913
0.56305
-0.0703862
0.568204
-0.0518395
0.572062
-0.0334449
0.574548
-0.0149313
0.575604
0.00422658
0.575075
0.0255052
0.572738
0.0524163
0.568141
0.0909434
0.56174
0.158582
0.553641
0.272518
-0.240558
0.291807
-0.653141
0.343429
-0.66024
0.402809
-0.741881
0.45357
-0.645291
0.502928
-0.627568
0.550949
-0.604836
0.593226
-0.537753
0.631792
-0.490141
0.666599
-0.440918
0.697191
-0.387423
0.72445
-0.343512
0.748719
-0.300996
0.770116
-0.260765
0.789093
-0.223884
0.805752
-0.187322
0.820315
-0.15173
0.832726
-0.115402
0.843063
-0.0788641
0.851367
-0.0410861
0.857488
-0.00312637
0.861505
0.0354819
0.863449
0.0719573
0.863443
0.105427
0.861711
0.132143
0.858229
0.152001
0.85286
0.170635
0.845578
0.190076
0.83644
0.208713
0.825421
0.227234
0.812565