/*--------------------------------*- C++ -*----------------------------------*\
| =========                 |                                                 |
| \\      /  F ield         | OpenFOAM: The Open Source CFD Toolbox           |
|  \\    /   O peration     | Version:  3.0.0                                 |
|   \\  /    A nd           | Web:      www.OpenFOAM.org                      |
|    \\/     M anipulation  |                                                 |
\*---------------------------------------------------------------------------*/
FoamFile
{
    version     2.0;
    format      ascii;
    class       volVectorField;
    location    "200";
    object      U;
}
// * * * * * * * * * * * * * * * * * * * * * * * * * * * * * * * * * * * * * //

dimensions      [0 1 -1 0 0 0 0];

internalField   nonuniform List<vector> 
10720
(
(-0.170946 31.5525 4.74579e-18)
(1.85029 33.8008 -4.43699e-18)
(4.3188 35.9359 0)
(7.10457 37.508 -3.10021e-16)
(10.1363 38.6295 3.41632e-16)
(13.341 39.2663 2.48669e-16)
(16.5536 39.3165 3.79863e-16)
(19.6798 38.8313 0)
(22.6409 37.8844 0)
(25.3594 36.5156 0)
(27.8127 34.8346 1.25014e-16)
(29.9597 32.8683 0)
(31.7958 30.6645 2.02076e-15)
(33.3381 28.2897 0)
(34.582 25.7789 0)
(35.5429 23.1895 0)
(36.2106 20.5476 -3.30703e-15)
(36.5907 17.908 -4.9584e-15)
(36.6644 15.2937 4.36103e-15)
(36.4426 12.7616 0)
(35.9055 10.3427 3.43183e-15)
(35.089 8.10429 -6.58738e-15)
(34.0399 6.09174 3.19087e-15)
(32.8684 4.36161 -9.41605e-17)
(31.7759 2.95572 0)
(30.8472 1.81738 1.10386e-15)
(29.9824 0.856306 1.66369e-17)
(29.0803 0.030343 -4.23101e-16)
(28.1035 -0.682907 -1.39541e-15)
(27.0486 -1.29733 -4.4618e-15)
(25.9185 -1.81859 1.63333e-15)
(24.7159 -2.24919 2.17331e-15)
(23.437 -2.58935 9.61056e-16)
(22.0713 -2.83889 -1.27577e-15)
(20.5665 -2.99226 3.32421e-15)
(18.8842 -3.04667 3.8236e-17)
(16.7006 -2.9446 -9.24577e-17)
(14.1779 -2.68357 -6.01216e-14)
(8.53476 -2.09513 9.10324e-14)
(-1.81959 29.1121 -5.48879e-18)
(-3.21533 26.3203 -2.29858e-17)
(-4.28888 23.1415 7.79405e-17)
(-4.89275 19.3882 -2.17707e-16)
(-4.86335 15.4757 -6.36183e-16)
(-4.13918 11.52 1.02528e-15)
(-2.73773 7.77247 4.69057e-15)
(-0.820765 4.53512 2.66233e-15)
(1.30285 1.97925 0)
(3.45479 -0.166358 0)
(5.72985 -1.92012 4.38476e-15)
(7.93866 -3.16362 1.5947e-15)
(9.93117 -3.94656 -2.61118e-15)
(11.6831 -4.39394 2.19217e-15)
(13.2227 -4.61896 3.7497e-15)
(14.5844 -4.69321 2.49025e-15)
(15.796 -4.66881 3.33182e-15)
(16.8877 -4.57897 2.32911e-15)
(17.8905 -4.4472 0)
(18.8276 -4.27964 0)
(19.7178 -4.07986 -3.97435e-15)
(20.573 -3.83945 -2.18592e-16)
(21.3966 -3.54465 3.46589e-15)
(22.1601 -3.16603 -2.94896e-15)
(22.8001 -2.69859 2.26844e-17)
(23.2984 -2.17886 0)
(23.679 -1.63272 1.16529e-15)
(23.9577 -1.0762 0)
(24.1398 -0.520577 0)
(24.2297 0.022984 1.0097e-15)
(24.2186 0.54465 0)
(24.0977 1.03745 -3.85224e-15)
(23.8818 1.49605 -7.43506e-15)
(23.5887 1.91558 -3.70355e-14)
(23.2175 2.29233 1.48728e-14)
(22.7631 2.62695 -5.79289e-17)
(22.1073 2.91245 0)
(21.1966 3.11263 3.23938e-14)
(18.5251 3.2841 3.73362e-14)
(7.28313 27.4952 -1.66584e-17)
(9.41145 29.2133 1.12656e-17)
(11.9695 30.7312 0)
(14.879 31.9433 0)
(17.971 32.797 -9.39237e-17)
(21.25 33.2328 -2.38471e-16)
(24.5907 33.2106 0)
(27.8503 32.7621 0)
(30.9719 31.9042 5.03787e-16)
(33.8681 30.6983 0)
(36.4769 29.2022 1.97234e-15)
(38.8026 27.5343 0)
(40.8344 25.7325 7.06184e-16)
(42.5688 23.8136 -6.9678e-16)
(43.9774 21.8081 1.38273e-15)
(45.0487 19.7386 -2.76121e-15)
(45.788 17.618 3.00871e-15)
(46.189 15.4741 2.68034e-15)
(46.2564 13.3191 2.60365e-15)
(45.9788 11.1884 1.56014e-16)
(45.3621 9.11152 -2.68614e-15)
(44.4046 7.14729 2.49208e-15)
(43.1379 5.33973 -1.38166e-16)
(41.6046 3.74892 0)
(39.9217 2.42592 0)
(38.24 1.31495 0)
(36.6145 0.336186 8.41916e-17)
(35.0316 -0.522662 -1.6807e-17)
(33.488 -1.26618 1.00879e-15)
(31.9746 -1.90258 3.67795e-17)
(30.4726 -2.43583 -2.90253e-17)
(28.962 -2.86919 -5.36407e-17)
(27.422 -3.20531 6.17038e-16)
(25.8354 -3.44651 4.4468e-16)
(24.157 -3.59181 2.43805e-17)
(22.365 -3.64116 8.23718e-15)
(20.1766 -3.54869 0)
(17.8323 -3.32017 1.68666e-14)
(12.2191 -2.50972 4.76978e-14)
(5.44817 25.6422 2.27985e-17)
(3.81989 23.5587 -7.43959e-17)
(2.32576 21.0969 -7.95042e-16)
(1.11731 18.2664 9.23472e-16)
(0.376734 15.1575 0)
(0.199013 11.8962 -1.7413e-15)
(0.635248 8.6657 -1.1925e-15)
(1.64582 5.72169 -9.67841e-15)
(3.07472 3.21215 4.01258e-15)
(4.75925 1.07802 -3.53203e-15)
(6.60646 -0.607677 4.30324e-15)
(8.48415 -1.79488 -1.21873e-15)
(10.2749 -2.57332 0)
(11.9264 -3.05811 -8.84919e-16)
(13.4286 -3.34183 4.67644e-17)
(14.7908 -3.48144 -2.12324e-15)
(16.0246 -3.52463 0)
(17.1499 -3.50118 0)
(18.189 -3.43278 -2.5976e-16)
(19.164 -3.32065 2.48382e-16)
(20.0904 -3.16543 -3.30582e-15)
(20.9806 -2.95291 -3.9882e-16)
(21.8369 -2.66497 1.86267e-16)
(22.6375 -2.26684 2.63409e-15)
(23.3303 -1.77084 -2.45602e-15)
(23.8912 -1.24159 -2.16042e-15)
(24.3352 -0.707352 0)
(24.6744 -0.179399 0)
(24.913 0.335725 0)
(25.0513 0.829569 8.37071e-18)
(25.1076 1.29436 0)
(25.0991 1.72476 0)
(25.0189 2.11993 1.27031e-14)
(24.8585 2.47914 1.23672e-14)
(24.6067 2.8042 -1.21669e-14)
(24.2716 3.10072 1.21142e-14)
(23.7531 3.36753 -2.41495e-14)
(23.2477 3.60208 -2.45401e-14)
(21.27 3.66628 -2.59274e-14)
(8.20274 25.2834 -4.58088e-18)
(9.75252 26.7951 -4.76697e-17)
(11.6102 28.2419 3.49704e-17)
(13.7199 29.5497 6.47611e-18)
(16.0169 30.5966 -8.67886e-17)
(18.501 31.357 3.51745e-16)
(21.0918 31.7948 -2.60562e-16)
(23.7087 31.8761 -3.29519e-16)
(26.2949 31.6027 4.01947e-19)
(28.7923 30.9916 -4.8979e-16)
(31.1495 30.0648 4.24277e-16)
(33.3372 28.8501 -1.23614e-15)
(35.3331 27.3851 -5.70151e-16)
(37.1203 25.7083 0)
(38.7108 23.8468 -1.43263e-15)
(40.11 21.831 2.85406e-15)
(41.3085 19.6905 0)
(42.2817 17.4705 -5.28617e-15)
(43.0179 15.2006 -2.63805e-15)
(43.4868 12.9323 2.98566e-16)
(43.6747 10.7022 -2.96243e-16)
(43.5586 8.5772 -1.28216e-16)
(43.1399 6.60565 -1.78004e-15)
(42.4279 4.84855 8.63709e-16)
(41.4796 3.35112 0)
(40.3789 2.05739 6.86153e-16)
(39.1523 0.897954 -7.72611e-17)
(37.7995 -0.128113 0)
(36.3424 -1.01858 8.5426e-16)
(34.8111 -1.77885 1.4048e-15)
(33.2264 -2.41292 -2.02586e-15)
(31.6004 -2.92571 -1.27587e-15)
(29.9328 -3.32291 -4.6435e-17)
(28.216 -3.60931 4.71602e-16)
(26.4096 -3.78643 2.00304e-15)
(24.4919 -3.85257 -7.04299e-15)
(22.2011 -3.77031 0)
(19.7785 -3.50144 1.35743e-14)
(14.5956 -2.78156 -7.08768e-14)
(6.91014 23.671 -2.86905e-17)
(5.75312 21.8856 -8.54262e-17)
(4.74123 19.7603 3.32695e-16)
(3.88019 17.3562 0)
(3.32908 14.7516 5.62655e-16)
(3.14208 12.0059 0)
(3.36358 9.23631 3.63263e-15)
(3.99017 6.62922 2.41364e-15)
(4.9665 4.30877 2.73117e-15)
(6.22644 2.2918 0)
(7.68351 0.636346 -4.2211e-15)
(9.21908 -0.638822 -9.30488e-16)
(10.7412 -1.5833 4.232e-15)
(12.195 -2.2619 0)
(13.5568 -2.73051 -2.09645e-15)
(14.8217 -3.03479 -6.46408e-16)
(15.992 -3.21506 2.87044e-15)
(17.0776 -3.3011 1.57095e-15)
(18.0934 -3.31458 4.71143e-16)
(19.0555 -3.26378 -2.38138e-16)
(19.976 -3.15342 3.01545e-15)
(20.8639 -2.97705 0)
(21.7198 -2.72277 0)
(22.5254 -2.37007 2.17451e-17)
(23.2385 -1.93184 0)
(23.8362 -1.45492 4.31391e-15)
(24.3281 -0.958646 -6.39175e-17)
(24.725 -0.451253 -4.74339e-16)
(25.0305 0.0591754 0)
(25.2465 0.562381 -8.65243e-16)
(25.3768 1.04938 1.6944e-15)
(25.4274 1.51445 0)
(25.4014 1.95251 -6.37731e-15)
(25.3003 2.35828 0)
(25.1136 2.7298 0)
(24.8423 3.06782 3.88805e-17)
(24.3777 3.37249 3.26863e-17)
(23.8462 3.60518 2.4563e-14)
(22.0824 3.67513 5.02905e-14)
(10.8861 23.1522 -2.52983e-17)
(12.3237 24.4431 -3.5002e-17)
(14.0226 25.6792 4.63356e-17)
(15.9535 26.7858 4.21579e-17)
(18.0587 27.6719 0)
(20.3437 28.3172 0)
(22.7459 28.6812 -3.64327e-16)
(25.1986 28.7325 5.25093e-16)
(27.6522 28.4669 0)
(30.0491 27.8919 -6.98536e-16)
(32.3368 27.0257 -9.89598e-16)
(34.4758 25.8968 -9.02003e-16)
(36.4322 24.543 1.1464e-15)
(38.1837 22.9988 1.04875e-15)
(39.7123 21.2983 0)
(40.9916 19.4831 1.66113e-15)
(42.0027 17.5896 5.81864e-16)
(42.7467 15.6447 4.67763e-15)
(43.2259 13.674 2.791e-16)
(43.4482 11.7075 -2.77246e-16)
(43.423 9.7771 2.2715e-15)
(43.1655 7.92818 -3.68507e-16)
(42.7022 6.20148 1.95952e-15)
(42.0662 4.64162 7.647e-16)
(41.3085 3.28034 -4.32258e-17)
(40.4832 2.0795 -6.18962e-16)
(39.5905 0.983631 4.13324e-18)
(38.5956 -0.0113946 -4.14629e-18)
(37.4797 -0.901361 -8.13845e-16)
(36.2388 -1.68612 -1.71477e-17)
(34.8743 -2.36152 9.71383e-16)
(33.3936 -2.92339 -1.15457e-15)
(31.8045 -3.36956 -4.55737e-16)
(30.1131 -3.69909 4.97927e-17)
(28.2946 -3.9102 -1.81082e-15)
(26.3369 -3.99637 0)
(24.0029 -3.92503 -9.06071e-15)
(21.4948 -3.61075 -1.17809e-14)
(16.578 -2.94197 2.92949e-14)
(9.65432 21.7875 -4.21484e-17)
(8.52731 20.2903 1.33653e-16)
(7.50248 18.5092 5.09248e-16)
(6.6047 16.4759 0)
(5.97108 14.261 -5.09296e-16)
(5.64363 11.9036 0)
(5.6595 9.49547 -3.06358e-15)
(6.02223 7.19268 -1.03383e-16)
(6.69025 5.0863 2.03292e-15)
(7.6219 3.20181 1.83572e-15)
(8.75296 1.59949 4.40019e-17)
(9.99629 0.306038 3.1288e-15)
(11.282 -0.699781 -2.1345e-15)
(12.5576 -1.45716 6.7432e-16)
(13.7905 -2.00658 2.43197e-15)
(14.9651 -2.38805 2.79508e-15)
(16.0748 -2.63667 -2.59973e-15)
(17.12 -2.78134 2.51469e-18)
(18.1082 -2.84399 0)
(19.0496 -2.83625 3.22459e-15)
(19.9528 -2.76331 1.79847e-16)
(20.8239 -2.62162 -2.88365e-15)
(21.6623 -2.40194 0)
(22.4523 -2.0889 2.03025e-17)
(23.1587 -1.68982 0)
(23.7588 -1.24216 -1.96107e-15)
(24.2578 -0.768458 0)
(24.6652 -0.280716 4.44512e-16)
(24.985 0.210744 -1.96708e-17)
(25.2195 0.695239 1.28814e-17)
(25.3729 1.16389 -1.52686e-15)
(25.4507 1.60924 -4.87629e-17)
(25.4564 2.02625 0)
(25.3928 2.41202 5.88703e-15)
(25.2513 2.76675 9.20869e-17)
(25.0326 3.0908 -1.17276e-14)
(24.6348 3.38629 4.74093e-14)
(24.1528 3.58788 8.99754e-17)
(22.5692 3.64977 0)
(12.3959 21.527 -3.71409e-17)
(13.6135 22.6731 -2.85398e-17)
(15.0622 23.795 9.20565e-17)
(16.7011 24.8294 -2.26077e-16)
(18.4812 25.6921 3.70498e-17)
(20.4246 26.3756 -1.45143e-17)
(22.4793 26.8414 1.41042e-16)
(24.5936 27.0554 0)
(26.7354 27.0082 6.99293e-16)
(28.8562 26.6956 4.00262e-16)
(30.9137 26.1208 0)
(32.874 25.2968 8.69934e-16)
(34.7039 24.243 -4.62184e-16)
(36.3779 22.9801 1.23861e-15)
(37.8747 21.5299 0)
(39.1756 19.9149 -2.2096e-15)
(40.2752 18.1492 2.01808e-15)
(41.1565 16.2661 -1.74283e-16)
(41.8042 14.302 0)
(42.204 12.3029 2.15398e-15)
(42.3487 10.3152 -2.18327e-15)
(42.2406 8.39629 -1.06767e-16)
(41.9007 6.59835 -1.58682e-15)
(41.3671 4.97158 -1.43132e-15)
(40.7005 3.55002 0)
(39.9675 2.30457 0)
(39.1914 1.18181 -1.30222e-16)
(38.3579 0.167587 -1.29991e-17)
(37.4538 -0.740139 7.51385e-16)
(36.4683 -1.54591 -1.60302e-17)
(35.3845 -2.24957 1.5986e-17)
(34.1833 -2.84783 1.078e-15)
(32.8462 -3.3364 0)
(31.3605 -3.71015 -1.00562e-15)
(29.6947 -3.96246 8.58727e-18)
(27.8378 -4.07984 0)
(25.5754 -4.03085 -2.74571e-17)
(23.0802 -3.69135 0)
(18.3766 -3.04058 -2.53987e-14)
(11.3485 20.3221 5.6677e-17)
(10.3895 19.0135 -2.92999e-16)
(9.49655 17.4571 3.14943e-16)
(8.68466 15.6845 4.33511e-16)
(8.07608 13.7615 -1.76002e-15)
(7.70238 11.7055 -2.16313e-15)
(7.60066 9.58779 2.62091e-15)
(7.78524 7.53798 -3.16905e-15)
(8.23417 5.62906 -1.57825e-15)
(8.92227 3.89005 -1.43509e-15)
(9.79981 2.37431 2.75265e-15)
(10.8033 1.10807 -2.66036e-15)
(11.8797 0.0815041 -1.22091e-15)
(12.9834 -0.729229 1.18284e-15)
(14.0809 -1.34948 -2.71665e-15)
(15.1525 -1.80927 5.06537e-16)
(16.1862 -2.13544 0)
(17.1765 -2.35157 -2.16989e-15)
(18.1249 -2.4764 8.06071e-16)
(19.0364 -2.52199 -3.34629e-15)
(19.9159 -2.49397 0)
(20.7666 -2.39109 2.4998e-15)
(21.5864 -2.20706 2.16718e-15)
(22.361 -1.93208 -1.97751e-15)
(23.0602 -1.57212 0)
(23.6618 -1.15831 -1.854e-15)
(24.1667 -0.714061 0)
(24.5822 -0.251532 0)
(24.9117 0.219354 0)
(25.1573 0.688113 7.6289e-16)
(25.3227 1.14543 0)
(25.4132 1.58389 0)
(25.4323 1.99858 -5.69035e-15)
(25.3832 2.38516 -5.57196e-15)
(25.2587 2.74205 0)
(25.061 3.06713 -1.11257e-14)
(24.6963 3.36176 6.35317e-17)
(24.2557 3.54682 0)
(22.8561 3.59685 -2.23935e-14)
(13.9004 20.0995 5.38474e-17)
(15.0053 21.1154 -3.97394e-17)
(16.315 22.1165 0)
(17.7915 23.0434 6.33375e-18)
(19.3878 23.8224 1.432e-16)
(21.1356 24.4512 1.37352e-17)
(22.9897 24.8931 4.86253e-17)
(24.9077 25.1173 -2.68079e-16)
(26.8671 25.1115 -1.05981e-16)
(28.8274 24.8671 6.57526e-16)
(30.7513 24.3821 -2.49192e-16)
(32.6085 23.6622 5.96111e-16)
(34.3652 22.72 2.9728e-16)
(35.9929 21.5718 1.57506e-16)
(37.4667 20.2374 0)
(38.7638 18.7404 -4.60291e-16)
(39.8584 17.1157 -1.03581e-15)
(40.7294 15.3978 -3.70646e-15)
(41.3637 13.6175 1.06747e-15)
(41.7547 11.8057 -1.39239e-15)
(41.8998 9.99742 -2.13635e-16)
(41.8046 8.23512 0)
(41.487 6.56274 1.42616e-15)
(40.9802 5.02347 8.85659e-17)
(40.3369 3.65004 -3.63462e-17)
(39.6157 2.42863 -4.87704e-16)
(38.846 1.32021 1.07269e-16)
(38.0271 0.313341 2.04964e-16)
(37.1588 -0.591583 -7.04538e-16)
(36.2437 -1.39809 -2.96005e-17)
(35.2772 -2.10801 8.24492e-16)
(34.2459 -2.72029 9.23448e-16)
(33.1257 -3.23226 0)
(31.8866 -3.63848 -6.72064e-17)
(30.4733 -3.92954 1.7867e-15)
(28.8511 -4.08507 0)
(26.7998 -4.0707 1.60935e-14)
(24.4661 -3.72904 0)
(20.0287 -3.10378 2.29364e-14)
(12.9409 19.0361 -5.49936e-17)
(12.0589 17.8888 1.31205e-16)
(11.2239 16.5218 0)
(10.4516 14.9615 0)
(9.8506 13.2698 7.83416e-16)
(9.4424 11.4544 3.74383e-15)
(9.26134 9.57361 0)
(9.32201 7.73618 -2.54283e-15)
(9.61358 6.00435 -2.48571e-15)
(10.1195 4.40717 2.455e-15)
(10.7992 2.98747 -6.0649e-17)
(11.6065 1.77034 1.11717e-15)
(12.5021 0.752365 2.59572e-17)
(13.4489 -0.0799964 3.09378e-15)
(14.4164 -0.741265 2.9003e-15)
(15.3842 -1.25239 -2.77944e-15)
(16.3378 -1.63319 4.21705e-16)
(17.2679 -1.90252 -8.02843e-16)
(18.1711 -2.07618 3.81232e-16)
(19.0478 -2.16537 2.42246e-15)
(19.8995 -2.17615 3.26578e-16)
(20.7265 -2.10906 -2.85621e-16)
(21.5254 -1.95978 -1.8732e-15)
(22.2825 -1.72203 0)
(22.9717 -1.40095 1.13574e-16)
(23.5714 -1.02182 3.37556e-15)
(24.0792 -0.607056 -2.51802e-17)
(24.5001 -0.169297 2.49315e-17)
(24.8366 0.281066 0)
(25.0903 0.73295 -7.15545e-16)
(25.2646 1.17639 0)
(25.3641 1.6034 0)
(25.3921 2.00809 5.26023e-15)
(25.3518 2.3856 5.35007e-15)
(25.2361 2.73409 0)
(25.0475 3.04992 1.03601e-14)
(24.698 3.33412 -4.19393e-14)
(24.2741 3.49629 1.57266e-16)
(23.0193 3.52317 2.05203e-14)
(15.1026 18.8888 6.60107e-18)
(16.0964 19.8016 -3.87241e-17)
(17.2746 20.7091 9.37444e-17)
(18.5978 21.5561 -9.16104e-17)
(20.0199 22.2766 -8.43422e-17)
(21.579 22.8743 0)
(23.2338 23.3167 -9.0316e-18)
(24.9486 23.5752 1.90256e-17)
(26.7098 23.6386 -1.91543e-16)
(28.4826 23.4964 -3.87157e-16)
(30.2374 23.1426 0)
(31.9493 22.5772 -1.0495e-15)
(33.5871 21.8063 -9.67105e-16)
(35.1238 20.839 -2.37711e-15)
(36.5349 19.689 0)
(37.7947 18.3745 -1.48521e-15)
(38.8821 16.9148 -1.563e-15)
(39.7802 15.3293 1.72274e-15)
(40.4714 13.6471 -1.69068e-15)
(40.941 11.905 1.51702e-15)
(41.1796 10.144 1.84729e-16)
(41.1851 8.41253 -1.56413e-15)
(40.9687 6.75878 0)
(40.5564 5.22699 -1.26486e-15)
(39.9917 3.84882 7.3593e-17)
(39.326 2.61672 5.11918e-16)
(38.5903 1.49905 0)
(37.7905 0.483977 -1.82195e-17)
(36.9317 -0.428346 2.86662e-17)
(36.0234 -1.24103 9.58159e-16)
(35.0719 -1.9564 -7.36163e-16)
(34.0783 -2.5748 -8.90875e-16)
(33.0353 -3.09576 2.67579e-16)
(31.9272 -3.51668 -5.97097e-17)
(30.7054 -3.83043 -1.72651e-15)
(29.3301 -4.01576 -5.79974e-15)
(27.5693 -4.03715 -7.89403e-15)
(25.5429 -3.71 1.45275e-16)
(21.4964 -3.12927 -7.48088e-17)
(14.2342 17.9359 2.50146e-17)
(13.4332 16.9145 2.56822e-16)
(12.6623 15.696 3.04087e-16)
(11.9362 14.3044 -5.99453e-16)
(11.3534 12.7984 -2.19603e-15)
(10.9294 11.1789 7.62216e-16)
(10.6968 9.49323 1.9444e-15)
(10.6716 7.83508 5.35074e-15)
(10.8489 6.26029 2.12782e-15)
(11.2167 4.79518 -2.02453e-15)
(11.7424 3.47382 -4.79339e-17)
(12.3911 2.31901 -9.99977e-16)
(13.1336 1.32949 0)
(13.9408 0.497723 -3.04147e-17)
(14.7866 -0.183862 -1.7702e-15)
(15.6524 -0.729562 8.21271e-16)
(16.5233 -1.15313 -8.03679e-16)
(17.3879 -1.46809 0)
(18.2398 -1.68663 1.38048e-15)
(19.0761 -1.8182 -2.57121e-15)
(19.8951 -1.86799 0)
(20.6948 -1.83726 2.20466e-15)
(21.4701 -1.72341 0)
(22.2081 -1.52263 -1.15054e-16)
(22.8854 -1.23961 1.13646e-16)
(23.4813 -0.895162 -1.59988e-15)
(23.9905 -0.510179 -2.61915e-17)
(24.4157 -0.0978137 -2.37597e-17)
(24.7586 0.331059 1.09475e-17)
(25.0201 0.765131 -6.98742e-16)
(25.203 1.19409 -1.33694e-15)
(25.3111 1.60949 2.54e-15)
(25.3477 2.00507 8.01926e-17)
(25.3153 2.37535 2.55469e-17)
(25.2072 2.7176 0)
(25.0253 3.02612 1.54887e-16)
(24.687 3.30082 1.92329e-14)
(24.2727 3.44196 -9.37502e-18)
(23.1275 3.44262 1.91132e-14)
(16.1632 17.8235 1.05297e-17)
(17.0741 18.6474 6.98097e-17)
(18.1528 19.4705 0)
(19.3602 20.2408 -2.82663e-17)
(20.6505 20.8991 -1.35172e-16)
(22.065 21.4529 0)
(23.5663 21.872 4.0444e-17)
(25.1231 22.1312 2.20117e-16)
(26.7278 22.2201 -4.45504e-16)
(28.3516 22.1273 1.29407e-16)
(29.9696 21.8449 2.88922e-16)
(31.5616 21.3698 1.21632e-15)
(33.1004 20.703 9.05861e-16)
(34.5606 19.849 1.20262e-15)
(35.9177 18.8168 3.20624e-16)
(37.1462 17.6198 1.10467e-15)
(38.2229 16.2756 1.51325e-15)
(39.1239 14.8108 1.38529e-15)
(39.8288 13.255 -1.01757e-15)
(40.3234 11.6391 -3.16354e-15)
(40.5989 9.99782 0)
(40.6541 8.37143 8.70502e-17)
(40.4983 6.80235 1.15945e-15)
(40.154 5.33073 1.2018e-15)
(39.6569 3.98677 -6.64499e-17)
(39.0493 2.77066 -4.44834e-16)
(38.3597 1.66068 2.92048e-18)
(37.5961 0.647797 -1.99228e-16)
(36.7634 -0.266359 1.99192e-17)
(35.8706 -1.08283 -1.78162e-15)
(34.9257 -1.80284 -8.11119e-18)
(33.9343 -2.42603 -1.64703e-17)
(32.8982 -2.95159 -2.62813e-16)
(31.8169 -3.37761 -5.97697e-17)
(30.6636 -3.69915 1.74052e-15)
(29.4264 -3.89724 1.12669e-14)
(27.9011 -3.94163 -7.64379e-15)
(26.2316 -3.63201 -8.97791e-15)
(22.7071 -3.10938 1.99663e-14)
(15.3623 16.9653 -1.04605e-16)
(14.622 16.0493 -3.58355e-16)
(13.9008 14.9549 -2.50301e-16)
(13.2127 13.7032 -5.86282e-16)
(12.6479 12.3505 1.28603e-15)
(12.2172 10.8935 -4.36278e-17)
(11.9503 9.37104 -5.07807e-15)
(11.8645 7.86566 -1.8407e-15)
(11.958 6.42957 7.0244e-18)
(12.2206 5.08464 0)
(12.6259 3.85854 -1.75467e-15)
(13.1467 2.77156 1.69821e-15)
(13.7609 1.82271 -1.66977e-15)
(14.4459 1.00724 -8.48054e-16)
(15.1806 0.321921 7.72638e-16)
(15.9493 -0.242712 7.64172e-16)
(16.7378 -0.69543 2.88965e-15)
(17.5346 -1.04513 -6.97285e-16)
(18.3316 -1.30043 -1.28649e-15)
(19.1235 -1.46869 0)
(19.9061 -1.55403 -2.23336e-15)
(20.6754 -1.55774 -1.81638e-15)
(21.4249 -1.47812 -1.2492e-17)
(22.1421 -1.31325 -2.30157e-16)
(22.8055 -1.06737 -1.02505e-16)
(23.3951 -0.757393 1.68881e-15)
(23.9037 -0.402656 -4.58115e-17)
(24.3317 -0.0164977 4.02631e-16)
(24.6797 0.389976 9.59571e-17)
(24.9482 0.805304 6.43445e-16)
(25.1389 1.21887 -9.72251e-18)
(25.2553 1.62177 -5.08512e-15)
(25.3001 2.00716 -4.77087e-15)
(25.2756 2.36886 -4.76394e-15)
(25.175 2.70336 -1.46907e-16)
(24.9998 3.0032 7.18333e-17)
(24.6726 3.26692 -1.8506e-14)
(24.2692 3.38796 -1.80473e-14)
(23.2167 3.36307 -1.75632e-14)
(17.0784 16.8821 -3.77409e-17)
(17.9176 17.6304 -3.03152e-17)
(18.9105 18.381 -1.85657e-16)
(20.0178 19.0854 6.55512e-16)
(21.1948 19.6892 -2.6375e-16)
(22.4838 20.2033 1.64775e-16)
(23.8505 20.6005 -1.30545e-16)
(25.2667 20.8579 0)
(26.7293 20.9673 1.24363e-16)
(28.2134 20.9176 7.10708e-18)
(29.6988 20.7001 -2.1342e-16)
(31.17 20.31 -1.08467e-15)
(32.6032 19.7455 -5.04915e-16)
(33.9757 19.0074 0)
(35.2648 18.1007 0)
(36.4458 17.0348 0)
(37.4947 15.8242 0)
(38.3896 14.4863 -1.34951e-15)
(39.1102 13.0439 1.33611e-15)
(39.6392 11.5259 1.30451e-15)
(39.9647 9.9673 -1.01091e-15)
(40.0817 8.40875 9.03042e-16)
(39.9955 6.89274 -9.07867e-16)
(39.7241 5.45917 -6.46317e-17)
(39.2974 4.13738 -2.71823e-17)
(38.7515 2.93147 4.50544e-16)
(38.1136 1.82632 8.90212e-17)
(37.3945 0.814713 0)
(36.5997 -0.101347 0)
(35.7373 -0.921576 3.85655e-17)
(34.8143 -1.64644 0)
(33.8359 -2.27479 6.62501e-16)
(32.8043 -2.80513 -1.70589e-16)
(31.7231 -3.23478 6.048e-16)
(30.576 -3.55882 -3.31261e-15)
(29.3742 -3.75828 -5.43584e-15)
(27.9579 -3.80948 7.3527e-15)
(26.5553 -3.5053 1.75586e-14)
(23.6039 -3.03832 -1.92467e-14)
(16.3367 16.1037 0)
(15.6496 15.276 1.06798e-16)
(14.9727 14.2855 4.68132e-16)
(14.3198 13.1511 -2.0366e-15)
(13.7746 11.9269 1.71664e-15)
(13.3436 10.6068 -1.34596e-15)
(13.0546 9.22255 -7.61423e-19)
(12.9257 7.84859 1.46131e-15)
(12.9573 6.53487 1.514e-15)
(13.1391 5.29856 0)
(13.45 4.16245 7.53086e-16)
(13.8677 3.14449 -2.29559e-15)
(14.3751 2.24318 3.7519e-15)
(14.9547 1.45492 7.1901e-16)
(15.5899 0.778306 -1.45261e-15)
(16.2679 0.207369 -1.39938e-15)
(16.9766 -0.262993 -1.33768e-15)
(17.7051 -0.638133 0)
(18.4449 -0.923364 0)
(19.1892 -1.12349 0)
(19.9322 -1.24139 2.09558e-15)
(20.6681 -1.27784 0)
(21.3897 -1.23151 -1.59666e-15)
(22.0842 -1.10155 -2.18153e-16)
(22.7318 -0.891794 -1.60404e-15)
(23.3131 -0.616006 -1.50367e-15)
(23.8191 -0.291686 0)
(24.2484 0.0677874 -3.39554e-16)
(24.6005 0.451252 -1.01521e-16)
(24.875 0.847185 2.00553e-17)
(25.0731 1.24466 2.45625e-15)
(25.1975 1.6344 -1.67099e-17)
(25.2503 2.00903 4.6509e-15)
(25.2337 2.36178 -4.53705e-15)
(25.1407 2.68825 0)
(24.9727 2.97924 -1.40384e-16)
(24.6571 3.23172 8.65397e-17)
(24.2663 3.33439 1.71601e-14)
(23.2997 3.28579 -1.23426e-16)
(17.8841 16.039 3.92876e-17)
(18.6632 16.7213 0)
(19.584 17.4076 3.77794e-16)
(20.6077 18.0525 -3.36484e-16)
(21.6901 18.6057 1.17143e-16)
(22.8743 19.0802 -1.55055e-16)
(24.1276 19.4512 7.93804e-17)
(25.4247 19.6988 3.85852e-17)
(26.7653 19.8158 0)
(28.128 19.7919 -1.52592e-16)
(29.4964 19.6188 -1.78266e-16)
(30.8586 19.2905 1.75184e-16)
(32.1942 18.8034 8.6956e-16)
(33.4837 18.1555 4.03342e-16)
(34.7063 17.3486 -1.21686e-15)
(35.8386 16.3888 -9.10553e-16)
(36.8573 15.2865 7.28703e-16)
(37.7401 14.0569 5.59435e-16)
(38.465 12.7223 -2.76237e-16)
(39.0132 11.3092 2.76133e-16)
(39.3716 9.84867 7.17461e-16)
(39.5341 8.37685 1.2964e-16)
(39.5035 6.93243 -1.16888e-16)
(39.2939 5.5527 -7.53347e-16)
(38.9298 4.26585 0)
(38.4412 3.07946 -3.63853e-16)
(37.8531 1.98521 -1.65256e-16)
(37.1782 0.978997 -1.38735e-16)
(36.4231 0.0638863 -4.59607e-16)
(35.5959 -0.758317 1.4937e-15)
(34.7032 -1.487 4.7456e-16)
(33.7492 -2.12029 -3.64223e-17)
(32.7352 -2.65573 3.86677e-17)
(31.6633 -3.08953 0)
(30.5183 -3.41596 1.60259e-15)
(29.3173 -3.6141 0)
(27.9254 -3.66446 0)
(26.6387 -3.35192 -8.52265e-15)
(24.1919 -2.92149 1.28416e-16)
(17.1922 15.3296 -1.27955e-16)
(16.5503 14.5775 3.89268e-16)
(15.912 13.6759 7.86762e-18)
(15.2909 12.6419 4.60977e-16)
(14.7648 11.5271 -1.59325e-15)
(14.3378 10.324 1.20885e-15)
(14.035 9.05805 4.80153e-17)
(13.8756 7.7986 -1.24846e-15)
(13.8609 6.59294 -1.24238e-15)
(13.9806 5.45409 -1.29222e-15)
(14.217 4.40163 -2.62134e-15)
(14.5515 3.45143 0)
(14.9703 2.60073 -1.36062e-15)
(15.4598 1.84626 -2.73293e-17)
(16.0069 1.18765 0)
(16.6019 0.620498 -1.2614e-15)
(17.2348 0.142432 -6.13631e-16)
(17.8962 -0.249205 -5.9463e-16)
(18.5778 -0.557196 2.21258e-15)
(19.2725 -0.78393 2.0898e-15)
(19.9734 -0.930497 -2.4066e-16)
(20.6737 -0.997128 1.84879e-15)
(21.3652 -0.98249 4.25922e-16)
(22.0353 -0.885968 -2.06795e-16)
(22.6652 -0.711018 1.42487e-15)
(23.2361 -0.468943 9.24862e-17)
(23.7376 -0.175139 0)
(24.1667 0.157317 0)
(24.5216 0.517149 -1.93562e-17)
(24.8013 0.892929 5.68514e-17)
(25.0061 1.27357 -2.40469e-15)
(25.1381 1.64938 -1.62176e-17)
(25.1988 2.01251 4.67533e-15)
(25.19 2.35561 4.3576e-15)
(25.1048 2.67338 1.36411e-16)
(24.9443 2.95497 2.82309e-18)
(24.6411 3.19578 3.34342e-14)
(24.2643 3.28144 -1.63093e-14)
(23.3797 3.21154 1.15957e-16)
(18.5956 15.2781 1.74279e-17)
(19.3225 15.9026 0)
(20.1808 16.532 -1.85256e-16)
(21.132 17.1237 0)
(22.1328 17.6312 2.14911e-16)
(23.226 18.0689 -2.08818e-16)
(24.3808 18.4141 -1.24996e-16)
(25.5737 18.6492 -3.64705e-17)
(26.8064 18.7685 0)
(28.0601 18.7628 -1.06338e-17)
(29.3217 18.6244 2.10861e-16)
(30.5823 18.3469 -4.38057e-16)
(31.8244 17.9257 -2.78878e-16)
(33.0315 17.3575 -2.79684e-16)
(34.1851 16.6415 7.75402e-16)
(35.2637 15.7809 8.72045e-16)
(36.2453 14.7831 -9.59069e-16)
(37.1079 13.6603 -9.25148e-16)
(37.8303 12.4296 0)
(38.3927 11.1141 2.44904e-16)
(38.7805 9.74229 -4.7347e-16)
(38.9854 8.3481 1.18188e-16)
(39.0072 6.96848 5.07347e-18)
(38.8562 5.63917 1.76456e-15)
(38.552 4.38722 -9.2877e-17)
(38.1192 3.22218 6.41326e-17)
(37.5805 2.14087 1.49389e-16)
(36.9495 1.14202 1.46807e-16)
(36.234 0.229624 3.98506e-16)
(35.4422 -0.593091 -6.75812e-16)
(34.5813 -1.32445 -4.40732e-16)
(33.6558 -1.9619 -1.06876e-15)
(32.6664 -2.50218 1.93388e-16)
(31.6143 -2.94043 3.46242e-18)
(30.4832 -3.26999 -1.62775e-15)
(29.288 -3.46734 1.23118e-16)
(27.9037 -3.51643 -8.87288e-17)
(26.6267 -3.19073 1.37245e-16)
(24.5426 -2.77104 -1.74739e-14)
(17.9475 14.6289 7.3932e-17)
(17.3452 13.942 -1.90604e-16)
(16.7415 13.1174 3.69691e-16)
(16.1494 12.1702 0)
(15.6424 11.1502 9.60054e-16)
(15.2219 10.0479 0)
(14.9116 8.88473 0)
(14.7307 7.72575 0)
(14.6809 6.61579 2.27539e-15)
(14.7526 5.56446 -1.14492e-15)
(14.93 4.58898 1.23585e-15)
(15.1973 3.70366 0)
(15.5428 2.9045 0)
(15.9557 2.18766 -1.21934e-15)
(16.4256 1.55326 0)
(16.9455 0.997855 1.17274e-15)
(17.5078 0.520107 1.49953e-17)
(18.1045 0.119557 0)
(18.7283 -0.204356 -1.5651e-15)
(19.3724 -0.452268 -2.46014e-15)
(20.0295 -0.623733 -1.8409e-15)
(20.6921 -0.71783 -1.73197e-15)
(21.3517 -0.732878 3.24561e-15)
(21.9959 -0.668276 0)
(22.6063 -0.526787 1.36412e-15)
(23.1647 -0.317525 1.46948e-15)
(23.6599 -0.054075 6.58657e-16)
(24.0872 0.251136 0)
(24.4437 0.586931 -7.5869e-17)
(24.7277 0.941916 -5.87665e-16)
(24.9386 1.30501 2.28308e-15)
(25.0776 1.66622 -1.56981e-17)
(25.1461 2.01718 -4.29131e-15)
(25.145 2.35003 4.03865e-15)
(25.0677 2.65855 -1.29804e-18)
(24.9151 2.9304 1.26939e-16)
(24.6251 3.15917 -3.2039e-14)
(24.2631 3.22943 1.52998e-14)
(23.4574 3.1409 2.8832e-14)
(19.2289 14.5861 1.34287e-17)
(19.9101 15.1595 -5.82419e-17)
(20.7136 15.7382 0)
(21.6017 16.2817 -3.05543e-16)
(22.5317 16.7475 0)
(23.5459 17.1503 0)
(24.6149 17.4699 1.71043e-17)
(25.7167 17.6904 -6.43488e-17)
(26.8546 17.8072 -5.79659e-17)
(28.0117 17.8124 1.56006e-16)
(29.1772 17.699 1.525e-16)
(30.345 17.461 2.55862e-16)
(31.5 17.0932 0)
(32.6287 16.5909 7.23379e-16)
(33.7148 15.9519 -2.71629e-16)
(34.7389 15.1773 0)
(35.6805 14.2716 7.16716e-16)
(36.5186 13.2442 8.87556e-16)
(37.2324 12.1094 0)
(37.8017 10.8878 8.20339e-16)
(38.2105 9.60483 -8.04105e-16)
(38.4495 8.29106 0)
(38.516 6.98034 -9.36908e-17)
(38.4172 5.70611 -3.4958e-18)
(38.1681 4.49418 4.33865e-17)
(37.7886 3.3555 6.07516e-16)
(37.2983 2.291 -4.05185e-18)
(36.7108 1.30246 -1.32687e-17)
(36.0348 0.395176 -8.06323e-18)
(35.2786 -0.426321 2.13692e-17)
(34.4496 -1.15905 3.97977e-16)
(33.5529 -1.79962 8.89418e-16)
(32.5898 -2.34403 -2.9854e-17)
(31.5614 -2.78644 7.28729e-16)
(30.4519 -3.1194 1.45017e-15)
(29.2735 -3.31688 4.82025e-15)
(27.9098 -3.3657 6.43839e-15)
(26.6115 -3.03148 -2.31806e-16)
(24.7534 -2.60272 1.64944e-14)
(18.6191 13.9901 -1.50398e-16)
(18.052 13.3603 -5.09949e-16)
(17.4793 12.603 9.80233e-16)
(16.9141 11.7318 0)
(16.4256 10.7945 1.69152e-15)
(16.0132 9.78022 0)
(15.6999 8.70726 -9.4589e-16)
(15.5042 7.63725 3.79084e-15)
(15.4281 6.61217 -2.91493e-15)
(15.4622 5.63976 0)
(15.5928 4.73492 2.12216e-15)
(15.8055 3.91056 2.12532e-15)
(16.0904 3.16199 0)
(16.4384 2.48484 -2.16482e-15)
(16.8413 1.87881 5.38205e-16)
(17.2942 1.3407 -5.38125e-16)
(17.7913 0.869939 5.32957e-16)
(18.3267 0.467107 1.00203e-15)
(18.8942 0.133239 -1.48989e-17)
(19.4876 -0.130599 1.35621e-15)
(20.0998 -0.322712 4.3178e-16)
(20.7234 -0.441128 -4.16271e-16)
(21.3496 -0.483513 -1.53335e-15)
(21.9663 -0.448913 1.45103e-15)
(22.5556 -0.339324 -1.20704e-15)
(23.0996 -0.161915 -1.47869e-15)
(23.5866 0.0715808 -6.25981e-16)
(24.0104 0.349424 -9.25546e-18)
(24.3673 0.660765 8.16276e-17)
(24.6545 0.994449 5.61552e-16)
(24.8707 1.33932 8.25578e-18)
(25.0165 1.68522 -1.51422e-17)
(25.0923 2.02337 4.31107e-15)
(25.0989 2.34532 -4.15043e-15)
(25.0298 2.644 1.27176e-16)
(24.8854 2.90568 -8.03071e-15)
(24.6092 3.12224 1.54274e-14)
(24.2632 3.17852 0)
(23.5327 3.07365 -2.76344e-14)
(19.7951 13.953 3.04116e-17)
(20.4357 14.4808 0)
(21.1908 15.0138 0)
(22.023 15.514 5.54192e-16)
(22.8906 15.9418 -1.92063e-17)
(23.8353 16.3123 0)
(24.8287 16.607 0)
(25.85 16.812 3.45922e-16)
(26.9035 16.9237 -4.25109e-17)
(27.9742 16.9353 -4.98288e-17)
(29.0529 16.8406 -3.12748e-16)
(30.1356 16.6338 -1.63029e-16)
(31.2096 16.3099 2.70098e-16)
(32.2634 15.8639 -7.52932e-17)
(33.2835 15.2922 0)
(34.2524 14.5943 0)
(35.1516 13.7725 -1.88557e-15)
(35.9609 12.8338 -3.65862e-16)
(36.6608 11.7894 3.65303e-16)
(37.2312 10.6566 -7.95618e-16)
(37.6555 9.45803 1.4837e-15)
(37.9227 8.22142 6.84866e-16)
(38.0284 6.97808 -6.54396e-16)
(37.9767 5.75934 -7.45599e-16)
(37.7786 4.58958 1.13094e-16)
(37.4499 3.48036 -5.80098e-16)
(37.007 2.43565 -6.2365e-17)
(36.4631 1.45999 1.18993e-17)
(35.8269 0.559982 -1.18975e-17)
(35.1067 -0.258482 2.81129e-17)
(34.31 -0.991176 -4.07378e-17)
(33.4424 -1.63382 -4.20964e-16)
(32.5057 -2.18151 -3.25703e-17)
(31.5018 -2.6275 5.1468e-17)
(30.4163 -2.9636 0)
(29.2599 -3.16175 -4.50947e-15)
(27.9297 -3.21039 -5.98644e-15)
(26.6229 -2.87517 0)
(24.9034 -2.42824 0)
(19.2197 13.4042 0)
(18.6838 12.8249 4.72191e-16)
(18.1396 12.1272 -1.5066e-15)
(17.5994 11.323 -6.86295e-16)
(17.1288 10.4588 -1.57016e-15)
(16.7257 9.52194 0)
(16.4124 8.52877 0)
(16.2069 7.5381 -1.70185e-15)
(16.111 6.58894 1.76425e-15)
(16.116 5.6875 0)
(16.2091 4.84723 -9.36608e-16)
(16.3775 4.07989 -9.9398e-16)
(16.6121 3.38015 9.80976e-16)
(16.9052 2.74304 1.01304e-15)
(17.2502 2.16772 -1.96485e-15)
(17.6437 1.65086 0)
(18.0817 1.19212 -4.73255e-16)
(18.5596 0.792702 1.15329e-17)
(19.073 0.454346 2.22895e-15)
(19.6165 0.179393 -4.33241e-16)
(20.1837 -0.0291585 4.2148e-16)
(20.7673 -0.168558 -3.76355e-16)
(21.3589 -0.235766 5.47524e-16)
(21.9467 -0.229087 -2.92249e-15)
(22.5133 -0.149635 -1.1524e-15)
(23.0411 -0.00291125 1.17276e-15)
(23.5181 0.201201 -7.68291e-17)
(23.9369 0.451851 0)
(24.2928 0.738513 -7.0066e-17)
(24.5821 1.05042 5.11216e-16)
(24.8029 1.37653 -1.02399e-15)
(24.9548 1.70646 2.08413e-15)
(25.0378 2.03109 -8.30789e-15)
(25.052 2.34154 8.21611e-15)
(24.9912 2.62982 -1.21954e-16)
(24.8554 2.88096 7.60187e-15)
(24.5938 3.08508 2.36742e-16)