/*--------------------------------*- C++ -*----------------------------------*\
| =========                 |                                                 |
| \\      /  F ield         | OpenFOAM: The Open Source CFD Toolbox           |
|  \\    /   O peration     | Version:  3.0.0                                 |
|   \\  /    A nd           | Web:      www.OpenFOAM.org                      |
|    \\/     M anipulation  |                                                 |
\*---------------------------------------------------------------------------*/
FoamFile
{
    version     2.0;
    format      ascii;
    class       volScalarField;
    location    "0.013";
    object      p;
}
// * * * * * * * * * * * * * * * * * * * * * * * * * * * * * * * * * * * * * //

dimensions      [1 -1 -2 0 0 0 0];

internalField   nonuniform List<scalar> 
1000
(
98273.4
98245.6
98213.5
98172
98121.4
98062
97994.2
97918
97833.8
97741.9
97642.6
97536.2
97423
97303.5
97178
97046.7
96910.2
96768.6
96622.3
96471.6
96316.9
96158.4
95996.4
95831.2
95663
95492
95318.5
95142.6
94964.6
94784.6
94602.7
94419.2
94234.1
94047.7
93859.8
93670.8
93480.7
93289.6
93097.5
92904.5
92710.8
92516.3
92321.1
92125.3
91929
91732.1
91534.8
91337
91138.8
90940.3
90741.4
90542.2
90342.8
90143.1
89943.2
89743.2
89543
89342.6
89142.1
88941.5
88740.9
88540.2
88339.4
88138.7
87937.9
87737.1
87536.4
87335.7
87135
86934.4
86733.9
86533.5
86333.2
86133
85932.9
85733
85533.1
85333.5
85134
84934.6
84735.5
84536.5
84337.7
84139.1
83940.8
83742.6
83544.6
83346.9
83149.4
82952.2
82755.1
82558.4
82361.8
82165.6
81969.6
81773.8
81578.3
81383.1
81188.2
80993.6
80799.2
80605.1
80411.3
80217.9
80024.7
79831.8
79639.2
79446.9
79254.9
79063.2
78871.8
78680.8
78490
78299.6
78109.5
77919.7
77730.2
77541.1
77352.3
77163.8
76975.6
76787.8
76600.3
76413.2
76226.3
76039.8
75853.7
75667.8
75482.3
75297.2
75112.4
74927.9
74743.8
74560
74376.6
74193.5
74010.7
73828.3
73646.2
73464.5
73283.1
73102.1
72921.4
72741.1
72561.1
72381.4
72202.1
72023.2
71844.6
71666.3
71488.4
71310.9
71133.7
70956.8
70780.3
70604.2
70428.4
70252.9
70077.8
69903.1
69728.6
69554.6
69380.9
69207.5
69034.5
68861.9
68689.6
68517.6
68346
68174.8
68003.9
67833.3
67663.1
67493.2
67323.7
67154.6
66985.8
66817.3
66649.2
66481.4
66314
66146.9
65980.2
65813.8
65647.8
65482.1
65316.8
65151.8
64987.2
64822.9
64658.9
64495.3
64332
64169.1
64006.5
63844.3
63682.4
63520.9
63359.7
63198.8
63038.3
62878.1
62718.3
62558.8
62399.6
62240.8
62082.3
61924.2
61766.4
61608.9
61451.8
61295
61138.6
60982.5
60826.7
60671.3
60516.2
60361.4
60207
60052.9
59899.1
59745.7
59592.6
59439.9
59287.5
59135.4
58983.6
58832.2
58681.1
58530.3
58379.9
58229.8
58080
57930.5
57781.4
57632.6
57484.1
57336
57188.2
57040.7
56893.5
56746.7
56600.2
56454
56308.1
56162.6
56017.4
55872.5
55727.9
55583.7
55439.7
55296.1
55152.8
55009.9
54867.2
54724.9
54582.9
54441.2
54299.8
54158.7
54018
53877.6
53737.5
53597.7
53458.2
53319
53180.2
53041.6
52903.4
52765.5
52627.9
52490.6
52353.6
52216.9
52080.6
51944.5
51808.8
51673.4
51538.2
51403.4
51268.9
51134.7
51000.8
50867.2
50734
50601
50468.3
50335.9
50203.9
50072.1
49940.7
49809.5
49678.7
49548.1
49417.9
49287.9
49158.3
49028.9
48899.9
48771.1
48642.7
48514.5
48386.7
48259.1
48131.9
48004.9
47878.3
47751.9
47625.8
47500
47374.6
47249.4
47124.5
46999.9
46875.6
46751.6
46627.9
46504.4
46381.3
46258.5
46135.9
46013.7
45891.7
45770
45648.7
45527.6
45406.8
45286.2
45166
45046.1
44926.4
44807.1
44688
44569.2
44450.7
44332.5
44214.6
44096.9
43979.6
43862.5
43745.8
43629.3
43513.1
43397.1
43281.5
43166.2
43051.1
42936.3
42821.8
42707.6
42593.7
42480
42366.7
42253.6
42140.8
42028.3
41916.1
41804.2
41692.5
41581.1
41470.1
41359.3
41248.8
41138.5
41028.6
40918.9
40809.5
40700.5
40591.7
40483.1
40374.9
40267
40159.3
40051.9
39944.8
39838.1
39731.5
39625.3
39519.4
39413.8
39308.4
39203.3
39098.6
38994.1
38889.9
38786
38682.4
38579.1
38476.1
38373.4
38271
38168.9
38067.1
37965.6
37864.4
37763.5
37662.9
37562.6
37462.7
37363
37263.7
37164.6
37065.9
36967.5
36869.4
36771.7
36674.3
36577.2
36480.4
36384
36287.9
36192.1
36096.7
36001.7
35907
35812.6
35718.6
35625
35531.7
35438.8
35346.3
35254.2
35162.4
35071.1
34980.1
34889.6
34799.4
34709.7
34620.4
34531.5
34443.1
34355.2
34267.7
34180.6
34094.1
34008
33922.4
33837.4
33752.9
33668.9
33585.4
33502.5
33420.2
33338.5
33257.4
33176.9
33097.1
33017.9
32939.4
32861.6
32784.5
32708.1
32632.5
32557.8
32483.8
32410.6
32338.3
32266.9
32196.5
32126.9
32058.4
31990.8
31924.3
31858.9
31794.5
31731.4
31669.3
31608.5
31549
31490.7
31433.7
31378.1
31323.9
31271
31219.7
31169.8
31121.4
31074.6
31029.3
30985.7
30943.6
30903.2
30864.5
30827.4
30792
30758.2
30726.1
30695.7
30666.9
30639.8
30614.3
30590.4
30568
30547.2
30527.8
30509.9
30493.3
30478.1
30464.1
30451.4
30439.8
30429.3
30419.8
30411.2
30403.5
30396.7
30390.6
30385.2
30380.5
30376.3
30372.6
30369.4
30366.6
30364.2
30362.2
30360.4
30358.9
30357.6
30356.4
30355.5
30354.7
30354
30353.5
30353
30352.6
30352.3
30352
30351.8
30351.6
30351.4
30351.3
30351.2
30351.1
30351
30351
30350.9
30350.9
30350.8
30350.8
30350.8
30350.7
30350.7
30350.7
30350.7
30350.7
30350.7
30350.6
30350.6
30350.6
30350.6
30350.6
30350.6
30350.6
30350.6
30350.6
30350.6
30350.5
30350.5
30350.5
30350.5
30350.5
30350.5
30350.5
30350.5
30350.5
30350.5
30350.5
30350.5
30350.5
30350.5
30350.5
30350.4
30350.4
30350.4
30350.4
30350.4
30350.4
30350.4
30350.4
30350.4
30350.4
30350.4
30350.4
30350.4
30350.3
30350.3
30350.3
30350.3
30350.3
30350.3
30350.3
30350.3
30350.3
30350.3
30350.3
30350.3
30350.2
30350.2
30350.2
30350.2
30350.2
30350.2
30350.2
30350.2
30350.2
30350.2
30350.2
30350.2
30350.2
30350.2
30350.2
30350.2
30350.2
30350.2
30350.2
30350.2
30350.2
30350.2
30350.2
30350.2
30350.2
30350.2
30350.2
30350.2
30350.2
30350.2
30350.2
30350.2
30350.2
30350.2
30350.2
30350.2
30350.2
30350.2
30350.2
30350.2
30350.2
30350.2
30350.2
30350.2
30350.1
30350.1
30350.1
30350.1
30350.1
30350.1
30350.1
30350.1
30350.1
30350.1
30350.1
30350.1
30350.1
30350.1
30350.1
30350.1
30350.1
30350.1
30350.1
30350.1
30350.1
30350.1
30350.1
30350.1
30350.1
30350.1
30350
30350
30350
30350
30350
30350
30350
30350
30350
30350
30350
30350
30350
30350
30350
30350
30350
30350
30350
30350
30350
30350
30350
30350
30350
30350
30350
30350
30350
30350
30350
30350
30350
30350
30349.9
30349.9
30349.9
30349.9
30349.9
30349.9
30349.9
30349.9
30349.9
30349.9
30349.9
30349.9
30349.9
30349.9
30349.9
30349.9
30349.9
30349.9
30349.9
30349.9
30349.9
30349.9
30349.9
30349.9
30349.9
30349.9
30349.9
30349.9
30349.9
30349.9
30349.9
30349.9
30349.9
30349.9
30349.9
30349.9
30349.9
30349.9
30349.9
30349.9
30349.8
30349.8
30349.8
30349.8
30349.8
30349.8
30349.8
30349.8
30349.8
30349.8
30349.8
30349.8
30349.8
30349.8
30349.8
30349.8
30349.8
30349.8
30349.8
30349.8
30349.8
30349.8
30349.8
30349.8
30349.8
30349.8
30349.8
30349.8
30349.8
30349.8
30349.8
30349.8
30349.8
30349.8
30349.8
30349.8
30349.8
30349.8
30349.8
30349.8
30349.8
30349.8
30349.8
30349.8
30349.8
30349.8
30349.8
30349.8
30349.8
30349.8
30349.8
30349.8
30349.8
30349.7
30349.7
30349.7
30349.7
30349.7
30349.7
30349.7
30349.7
30349.7
30349.7
30349.7
30349.7
30349.7
30349.7
30349.7
30349.7
30349.7
30349.7
30349.7
30349.7
30349.7
30349.7
30349.7
30349.7
30349.7
30349.7
30349.7
30349.7
30349.7
30349.7
30349.7
30349.7
30349.7
30349.7
30349.7
30349.7
30349.7
30349.7
30349.7
30349.7
30349.7
30349.7
30349.7
30349.7
30349.7
30349.7
30349.7
30349.7
30349.6
30349.6
30349.6
30349.6
30349.6
30349.6
30349.6
30349.6
30349.6
30349.6
30349.6
30349.6
30349.6
30349.6
30349.6
30349.6
30349.5
30349.5
30349.5
30349.5
30349.5
30349.4
30349.4
30349.4
30349.3
30349.3
30349.3
30349.3
30349.2
30349.2
30349.2
30349.2
30349.2
30349.2
30349.2
30349.2
30349.3
30349.3
30349.3
30349.4
30349.4
30349.5
30349.5
30349.5
30349.6
30349.6
30349.6
30349.7
30349.7
30349.7
30349.7
30349.7
30349.7
30349.7
30349.7
30349.7
30349.7
30349.7
30349.7
30349.6
30349.6
30349.6
30349.6
30349.6
30349.6
30349.6
30349.5
30349.5
30349.5
30349.5
30349.5
30349.5
30349.5
30349.5
30349.5
30349.5
30349.5
30349.5
30349.5
30349.5
30349.5
30349.5
30349.5
30349.5
30349.5
30349.5
30349.5
30349.5
30349.5
30349.6
30349.6
30349.8
30349.9
30350.1
30350.5
30350.9
30351.5
30352.3
30353.3
30354.6
30356.3
30358.4
30361
30364.1
30367.9
30372.4
30377.7
30383.8
30390.8
30398.6
30407.3
30416.7
30427
30437.9
30449.3
30461.1
30473.2
30485.3
30497.3
30509.1
30520.5
30531.2
30541.3
30550.6
30559
30566.5
30573.1
30578.9
30583.8
30587.8
30591.2
30594
30596.1
30597.8
30599.1
30600.1
30600.8
30601.3
30601.7
30601.9
30602.1
30602.2
30602.3
30602.3
30602.3
30602.3
30602.3
30602.3
30602.3
30602.3
30602.3
30602.3
30602.3
30602.3
30602.3
30602.3
30602.3
30602.3
30602.3
)
;

boundaryField
{
    sides
    {
        type            zeroGradient;
    }
    empty
    {
        type            empty;
    }
}


// ************************************************************************* //
