/*--------------------------------*- C++ -*----------------------------------*\
| =========                 |                                                 |
| \\      /  F ield         | OpenFOAM: The Open Source CFD Toolbox           |
|  \\    /   O peration     | Version:  3.0.0                                 |
|   \\  /    A nd           | Web:      www.OpenFOAM.org                      |
|    \\/     M anipulation  |                                                 |
\*---------------------------------------------------------------------------*/
FoamFile
{
    version     2.0;
    format      ascii;
    class       surfaceScalarField;
    location    "0.013";
    object      phi;
}
// * * * * * * * * * * * * * * * * * * * * * * * * * * * * * * * * * * * * * //

dimensions      [1 0 -1 0 0 0 0];

internalField   nonuniform List<scalar> 
999
(
3.83728
5.52388
7.21368
8.90758
10.606
12.3092
14.0175
15.7314
17.4513
19.1777
20.9108
22.6513
24.3996
26.1561
27.9212
29.6955
31.4791
33.2726
35.076
36.8898
38.714
40.5486
42.3939
44.2497
46.1158
47.9923
49.8788
51.7751
53.6809
55.5958
57.5195
59.4515
61.3914
63.3387
65.2931
67.2539
69.2207
71.193
73.1704
75.1524
77.1385
79.1282
81.1212
83.117
85.1152
87.1153
89.117
91.12
93.1238
95.1282
97.1328
99.1373
101.141
103.145
105.147
107.149
109.149
111.147
113.143
115.138
117.13
119.119
121.106
123.09
125.071
127.049
129.024
130.995
132.962
134.926
136.886
138.842
140.794
142.742
144.685
146.624
148.559
150.489
152.414
154.335
156.251
158.162
160.068
161.969
163.864
165.755
167.64
169.521
171.395
173.265
175.129
176.987
178.84
180.688
182.529
184.366
186.196
188.021
189.84
191.653
193.46
195.262
197.058
198.847
200.631
202.409
204.181
205.947
207.707
209.461
211.209
212.951
214.687
216.417
218.141
219.858
221.57
223.275
224.975
226.668
228.355
230.036
231.711
233.379
235.042
236.698
238.348
239.992
241.63
243.262
244.887
246.506
248.119
249.726
251.327
252.921
254.51
256.092
257.668
259.238
260.802
262.359
263.91
265.456
266.995
268.528
270.054
271.575
273.089
274.598
276.1
277.596
279.086
280.57
282.048
283.519
284.985
286.444
287.898
289.345
290.786
292.222
293.651
295.074
296.491
297.902
299.307
300.706
302.099
303.486
304.867
306.243
307.612
308.975
310.332
311.683
313.029
314.368
315.702
317.029
318.351
319.667
320.977
322.281
323.58
324.872
326.159
327.439
328.714
329.984
331.247
332.505
333.757
335.003
336.243
337.478
338.706
339.93
341.147
342.359
343.565
344.765
345.96
347.149
348.333
349.511
350.683
351.849
353.01
354.166
355.316
356.46
357.599
358.732
359.86
360.982
362.098
363.21
364.315
365.415
366.51
367.6
368.683
369.762
370.835
371.902
372.965
374.022
375.073
376.119
377.16
378.195
379.226
380.25
381.27
382.284
383.293
384.297
385.295
386.289
387.277
388.259
389.237
390.209
391.176
392.138
393.095
394.047
394.994
395.935
396.871
397.803
398.729
399.65
400.566
401.477
402.383
403.284
404.18
405.071
405.956
406.837
407.713
408.584
409.45
410.311
411.168
412.019
412.866
413.706
414.544
415.374
416.203
417.022
417.844
418.651
419.464
420.261
421.065
421.853
422.645
423.427
424.204
424.984
425.746
426.52
427.27
428.035
428.778
429.529
430.269
431.005
431.739
432.464
433.189
433.907
434.62
435.331
436.034
436.735
437.431
438.121
438.809
439.49
440.168
440.841
441.51
442.174
442.834
443.489
444.14
444.787
445.429
446.067
446.7
447.329
447.954
448.574
449.19
449.802
450.409
451.012
451.611
452.205
452.796
453.382
453.963
454.541
455.114
455.683
456.248
456.809
457.365
457.918
458.466
459.01
459.55
460.086
460.617
461.145
461.668
462.188
462.703
463.214
463.721
464.225
464.724
465.219
465.71
466.197
466.68
467.159
467.634
468.106
468.573
469.036
469.496
469.951
470.403
470.85
471.294
471.734
472.17
472.602
473.031
473.455
473.876
474.293
474.706
475.115
475.521
475.923
476.321
476.715
477.105
477.492
477.875
478.254
478.63
479.002
479.37
479.734
480.095
480.452
480.806
481.156
481.502
481.845
482.184
482.519
482.851
483.179
483.504
483.825
484.142
484.456
484.767
485.073
485.377
485.677
485.973
486.266
486.555
486.841
487.123
487.402
487.677
487.949
488.218
488.483
488.745
489.003
489.258
489.509
489.757
490.001
490.243
490.48
490.715
490.946
491.174
491.398
491.619
491.837
492.051
492.262
492.47
492.674
492.875
493.073
493.267
493.458
493.646
493.831
494.012
494.19
494.365
494.536
494.704
494.869
495.031
495.19
495.345
495.497
495.645
495.791
495.933
496.072
496.208
496.341
496.47
496.596
496.719
496.839
496.956
497.069
497.18
497.287
497.391
497.492
497.589
497.684
497.775
497.864
497.949
498.031
498.11
498.186
498.26
498.33
498.397
498.461
498.522
498.581
498.637
498.69
498.74
498.787
498.832
498.874
498.914
498.951
498.986
499.018
499.048
499.076
499.102
499.126
499.148
499.168
499.187
499.203
499.218
499.232
499.244
499.255
499.265
499.273
499.281
499.287
499.293
499.298
499.302
499.306
499.309
499.311
499.313
499.315
499.316
499.317
499.318
499.319
499.319
499.319
499.319
499.319
499.319
499.319
499.318
499.318
499.318
499.317
499.317
499.316
499.315
499.315
499.314
499.314
499.313
499.313
499.312
499.311
499.311
499.31
499.309
499.309
499.308
499.307
499.307
499.306
499.305
499.305
499.304
499.303
499.303
499.302
499.301
499.3
499.3
499.299
499.298
499.298
499.297
499.296
499.295
499.295
499.294
499.293
499.292
499.292
499.291
499.29
499.289
499.288
499.288
499.287
499.286
499.285
499.284
499.284
499.283
499.282
499.281
499.28
499.28
499.279
499.278
499.277
499.276
499.275
499.274
499.273
499.273
499.272
499.271
499.27
499.269
499.268
499.267
499.266
499.265
499.264
499.263
499.263
499.262
499.261
499.26
499.259
499.258
499.257
499.256
499.255
499.254
499.253
499.252
499.251
499.249
499.248
499.247
499.246
499.245
499.244
499.243
499.242
499.241
499.24
499.239
499.237
499.236
499.235
499.234
499.233
499.232
499.23
499.229
499.228
499.227
499.226
499.224
499.223
499.222
499.221
499.219
499.218
499.217
499.215
499.214
499.213
499.212
499.21
499.209
499.207
499.206
499.205
499.203
499.202
499.2
499.199
499.198
499.196
499.195
499.193
499.192
499.19
499.189
499.187
499.186
499.184
499.182
499.181
499.179
499.178
499.176
499.174
499.173
499.171
499.169
499.168
499.166
499.164
499.162
499.161
499.159
499.157
499.155
499.153
499.151
499.15
499.148
499.146
499.144
499.142
499.14
499.138
499.136
499.134
499.132
499.13
499.128
499.126
499.123
499.121
499.119
499.117
499.115
499.112
499.11
499.108
499.105
499.103
499.101
499.098
499.096
499.093
499.091
499.088
499.086
499.083
499.081
499.078
499.075
499.073
499.07
499.067
499.065
499.062
499.059
499.056
499.053
499.05
499.047
499.044
499.041
499.038
499.035
499.032
499.028
499.025
499.022
499.018
499.015
499.012
499.008
499.005
499.001
498.997
498.994
498.99
498.986
498.982
498.979
498.975
498.971
498.967
498.962
498.958
498.954
498.95
498.945
498.941
498.936
498.932
498.927
498.923
498.918
498.913
498.908
498.903
498.898
498.893
498.887
498.882
498.877
498.871
498.866
498.86
498.854
498.848
498.842
498.836
498.83
498.823
498.817
498.81
498.804
498.797
498.79
498.783
498.775
498.768
498.761
498.753
498.745
498.737
498.729
498.72
498.712
498.703
498.694
498.685
498.676
498.667
498.657
498.647
498.637
498.626
498.616
498.605
498.594
498.582
498.57
498.558
498.546
498.533
498.52
498.507
498.493
498.479
498.464
498.449
498.434
498.418
498.402
498.385
498.368
498.35
498.331
498.312
498.293
498.272
498.251
498.229
498.207
498.183
498.159
498.133
498.107
498.079
498.051
498.021
497.99
497.958
497.924
497.888
497.851
497.812
497.77
497.726
497.679
497.63
497.578
497.524
497.467
497.409
497.349
497.287
497.225
497.159
497.088
497.008
496.913
496.794
496.639
496.433
496.155
495.784
495.29
494.644
493.812
492.756
491.44
489.826
487.878
485.561
482.848
479.715
476.145
472.13
467.671
462.778
457.471
451.78
445.743
439.407
432.823
426.051
419.15
412.185
405.219
398.312
391.522
384.904
378.504
372.364
366.519
360.995
355.813
350.985
346.519
342.414
338.667
335.267
332.201
329.454
327.008
324.841
322.934
321.264
319.81
318.551
317.467
316.538
315.747
315.076
314.509
314.034
313.637
313.307
313.034
312.809
312.625
312.474
312.352
312.253
312.173
312.108
312.057
312.016
311.983
311.957
311.936
311.919
311.906
311.896
311.888
311.881
311.876
311.872
311.869
311.866
311.864
311.862
311.86
311.858
311.856
311.854
311.851
311.849
311.845
311.841
311.836
311.83
311.822
311.813
311.802
311.789
311.774
311.757
311.737
311.715
311.691
311.665
311.637
311.607
311.576
311.543
311.51
311.477
311.445
311.413
311.382
311.353
311.326
311.301
311.279
311.259
311.242
311.226
311.214
311.203
311.194
311.187
311.181
311.177
311.173
311.17
311.169
311.167
311.166
311.165
311.165
311.164
311.164
311.164
311.164
311.164
311.163
311.163
311.163
311.163
311.163
311.163
311.163
311.163
311.162
311.162
311.162
311.162
311.162
)
;

boundaryField
{
    sides
    {
        type            calculated;
        value           nonuniform List<scalar> 2(311.162 -2.15727);
    }
    empty
    {
        type            empty;
        value           nonuniform 0();
    }
}


// ************************************************************************* //
