/*--------------------------------*- C++ -*----------------------------------*\
| =========                 |                                                 |
| \\      /  F ield         | OpenFOAM: The Open Source CFD Toolbox           |
|  \\    /   O peration     | Version:  3.0.0                                 |
|   \\  /    A nd           | Web:      www.OpenFOAM.org                      |
|    \\/     M anipulation  |                                                 |
\*---------------------------------------------------------------------------*/
FoamFile
{
    version     2.0;
    format      ascii;
    class       volScalarField;
    location    "0.013";
    object      T;
}
// * * * * * * * * * * * * * * * * * * * * * * * * * * * * * * * * * * * * * //

dimensions      [0 0 0 1 0 0 0];

internalField   nonuniform List<scalar> 
1000
(
346.698
346.672
346.639
346.597
346.546
346.486
346.417
346.34
346.255
346.162
346.061
345.953
345.838
345.717
345.589
345.455
345.316
345.172
345.022
344.868
344.71
344.548
344.381
344.212
344.039
343.863
343.684
343.502
343.318
343.132
342.943
342.753
342.561
342.366
342.171
341.973
341.775
341.575
341.373
341.171
340.967
340.762
340.556
340.349
340.142
339.933
339.724
339.514
339.303
339.091
338.879
338.666
338.452
338.238
338.023
337.808
337.592
337.376
337.159
336.942
336.724
336.506
336.287
336.068
335.849
335.63
335.41
335.19
334.969
334.748
334.527
334.306
334.084
333.862
333.64
333.418
333.195
332.973
332.75
332.527
332.303
332.08
331.856
331.632
331.409
331.184
330.96
330.736
330.511
330.287
330.062
329.838
329.613
329.388
329.163
328.938
328.712
328.487
328.262
328.036
327.811
327.585
327.36
327.134
326.909
326.683
326.457
326.231
326.006
325.78
325.554
325.328
325.102
324.876
324.651
324.425
324.199
323.973
323.747
323.521
323.295
323.069
322.843
322.617
322.391
322.165
321.939
321.713
321.488
321.262
321.036
320.81
320.584
320.359
320.133
319.907
319.681
319.456
319.23
319.004
318.779
318.553
318.328
318.102
317.877
317.651
317.426
317.201
316.975
316.75
316.525
316.3
316.075
315.85
315.624
315.399
315.175
314.95
314.725
314.5
314.275
314.051
313.826
313.601
313.377
313.152
312.928
312.703
312.479
312.255
312.031
311.806
311.582
311.358
311.134
310.91
310.686
310.463
310.239
310.015
309.792
309.568
309.344
309.121
308.898
308.674
308.451
308.228
308.005
307.782
307.559
307.336
307.113
306.89
306.667
306.445
306.222
306
305.777
305.555
305.332
305.11
304.888
304.666
304.444
304.222
304
303.778
303.556
303.335
303.113
302.892
302.67
302.449
302.227
302.006
301.785
301.564
301.343
301.122
300.901
300.68
300.46
300.239
300.018
299.798
299.577
299.357
299.137
298.917
298.697
298.477
298.257
298.037
297.817
297.597
297.378
297.158
296.939
296.719
296.5
296.281
296.062
295.842
295.624
295.405
295.186
294.967
294.748
294.53
294.311
294.093
293.875
293.656
293.438
293.22
293.002
292.784
292.566
292.349
292.131
291.913
291.696
291.478
291.261
291.044
290.827
290.609
290.394
290.174
289.962
289.738
289.531
289.301
289.103
288.862
288.678
288.422
288.254
287.982
287.829
287.546
287.398
287.117
286.961
286.696
286.517
286.279
286.074
285.859
285.637
285.432
285.208
284.999
284.783
284.567
284.355
284.138
283.925
283.711
283.496
283.283
283.068
282.855
282.641
282.427
282.214
282.001
281.787
281.574
281.361
281.148
280.935
280.722
280.51
280.297
280.084
279.872
279.66
279.448
279.235
279.023
278.811
278.6
278.388
278.176
277.965
277.754
277.542
277.331
277.12
276.909
276.698
276.488
276.277
276.066
275.856
275.646
275.436
275.226
275.016
274.806
274.596
274.386
274.177
273.968
273.758
273.549
273.34
273.131
272.923
272.714
272.505
272.297
272.089
271.881
271.673
271.465
271.257
271.05
270.842
270.635
270.428
270.221
270.014
269.807
269.6
269.394
269.188
268.981
268.775
268.569
268.364
268.158
267.953
267.748
267.542
267.338
267.133
266.928
266.724
266.52
266.315
266.112
265.908
265.704
265.501
265.298
265.095
264.892
264.69
264.488
264.286
264.084
263.882
263.681
263.479
263.278
263.078
262.877
262.677
262.477
262.277
262.078
261.879
261.68
261.481
261.283
261.085
260.888
260.69
260.493
260.297
260.1
259.904
259.709
259.514
259.319
259.124
258.93
258.737
258.544
258.351
258.159
257.967
257.776
257.585
257.395
257.206
257.017
256.829
256.641
256.454
256.267
256.082
255.897
255.713
255.529
255.347
255.165
254.984
254.804
254.625
254.447
254.27
254.094
253.92
253.746
253.574
253.403
253.233
253.064
252.897
252.732
252.568
252.406
252.245
252.086
251.93
251.774
251.621
251.47
251.322
251.175
251.031
250.889
250.749
250.613
250.479
250.347
250.219
250.093
249.971
249.852
249.736
249.623
249.513
249.407
249.305
249.206
249.111
249.02
248.932
248.848
248.768
248.692
248.619
248.551
248.486
248.425
248.367
248.313
248.263
248.216
248.173
248.133
248.096
248.062
248.031
248.003
247.977
247.954
247.933
247.914
247.897
247.883
247.869
247.858
247.848
247.839
247.831
247.824
247.818
247.813
247.809
247.806
247.802
247.8
247.798
247.796
247.795
247.794
247.793
247.792
247.791
247.791
247.791
247.791
247.79
247.79
247.79
247.791
247.791
247.791
247.791
247.791
247.791
247.792
247.792
247.792
247.792
247.793
247.793
247.793
247.794
247.794
247.794
247.795
247.795
247.795
247.796
247.796
247.796
247.797
247.797
247.797
247.798
247.798
247.798
247.799
247.799
247.8
247.8
247.8
247.801
247.801
247.801
247.802
247.802
247.803
247.803
247.803
247.804
247.804
247.804
247.805
247.805
247.806
247.806
247.807
247.807
247.807
247.808
247.808
247.809
247.809
247.809
247.81
247.81
247.811
247.811
247.812
247.812
247.813
247.813
247.813
247.814
247.814
247.815
247.815
247.816
247.816
247.817
247.817
247.818
247.818
247.819
247.819
247.82
247.82
247.821
247.821
247.822
247.822
247.823
247.824
247.824
247.825
247.825
247.826
247.826
247.827
247.827
247.828
247.829
247.829
247.83
247.83
247.831
247.832
247.832
247.833
247.833
247.834
247.835
247.835
247.836
247.837
247.837
247.838
247.839
247.839
247.84
247.841
247.841
247.842
247.843
247.843
247.844
247.845
247.845
247.846
247.847
247.848
247.848
247.849
247.85
247.851
247.851
247.852
247.853
247.854
247.854
247.855
247.856
247.857
247.858
247.859
247.859
247.86
247.861
247.862
247.863
247.864
247.865
247.866
247.866
247.867
247.868
247.869
247.87
247.871
247.872
247.873
247.874
247.875
247.876
247.877
247.878
247.879
247.88
247.881
247.882
247.883
247.884
247.885
247.887
247.888
247.889
247.89
247.891
247.892
247.894
247.895
247.896
247.897
247.898
247.9
247.901
247.902
247.903
247.905
247.906
247.908
247.909
247.91
247.912
247.913
247.914
247.916
247.917
247.919
247.92
247.922
247.923
247.925
247.927
247.928
247.93
247.931
247.933
247.935
247.936
247.938
247.94
247.942
247.943
247.945
247.947
247.949
247.951
247.953
247.955
247.957
247.959
247.961
247.963
247.965
247.967
247.969
247.972
247.974
247.976
247.978
247.981
247.983
247.986
247.988
247.99
247.993
247.996
247.998
248.001
248.004
248.006
248.009
248.012
248.015
248.018
248.021
248.024
248.027
248.03
248.033
248.037
248.04
248.043
248.047
248.051
248.054
248.058
248.062
248.065
248.069
248.073
248.078
248.082
248.086
248.09
248.095
248.099
248.104
248.109
248.114
248.119
248.124
248.129
248.134
248.14
248.145
248.151
248.157
248.163
248.169
248.176
248.182
248.189
248.196
248.203
248.21
248.218
248.226
248.234
248.242
248.25
248.259
248.268
248.277
248.287
248.297
248.307
248.318
248.329
248.341
248.353
248.365
248.378
248.391
248.405
248.42
248.435
248.45
248.467
248.484
248.502
248.521
248.542
248.563
248.586
248.609
248.635
248.661
248.689
248.718
248.748
248.778
248.809
248.841
248.875
248.912
248.955
249.007
249.074
249.162
249.281
249.441
249.654
249.937
250.307
250.781
251.38
252.125
253.038
254.142
255.458
257.005
258.805
260.873
263.224
265.87
268.819
272.073
275.633
279.492
283.639
288.059
292.728
297.621
302.705
307.943
313.295
318.717
324.163
329.587
334.942
340.185
345.273
350.168
354.837
359.254
363.397
367.25
370.805
374.06
377.015
379.678
382.061
384.177
386.043
387.678
389.1
390.33
391.387
392.289
393.055
393.702
394.245
394.699
395.076
395.388
395.644
395.854
396.025
396.164
396.277
396.367
396.44
396.498
396.545
396.582
396.611
396.634
396.653
396.667
396.679
396.688
396.695
396.701
396.706
396.71
396.713
396.715
396.718
396.72
396.722
396.725
396.727
396.731
396.734
396.739
396.745
396.752
396.761
396.771
396.784
396.799
396.817
396.838
396.862
396.889
396.919
396.953
396.989
397.028
397.07
397.113
397.158
397.203
397.249
397.293
397.337
397.379
397.419
397.456
397.49
397.52
397.548
397.572
397.592
397.61
397.624
397.636
397.646
397.654
397.66
397.665
397.668
397.671
397.673
397.674
397.675
397.675
397.676
397.676
397.676
397.677
397.677
397.677
397.677
397.677
397.677
397.677
397.677
397.678
397.678
397.678
397.678
397.678
397.678
397.678
)
;

boundaryField
{
    sides
    {
        type            zeroGradient;
    }
    empty
    {
        type            empty;
    }
}


// ************************************************************************* //
