/*--------------------------------*- C++ -*----------------------------------*\
| =========                 |                                                 |
| \\      /  F ield         | OpenFOAM: The Open Source CFD Toolbox           |
|  \\    /   O peration     | Version:  3.0.0                                 |
|   \\  /    A nd           | Web:      www.OpenFOAM.org                      |
|    \\/     M anipulation  |                                                 |
\*---------------------------------------------------------------------------*/
FoamFile
{
    version     2.0;
    format      ascii;
    class       volVectorField;
    location    "0.013";
    object      U;
}
// * * * * * * * * * * * * * * * * * * * * * * * * * * * * * * * * * * * * * //

dimensions      [0 1 -1 0 0 0 0];

internalField   nonuniform List<vector> 
1000
(
(0.561494 0 0)
(1.24926 0 0)
(1.61105 0 0)
(2.04551 0 0)
(2.47728 0 0)
(2.91033 0 0)
(3.34525 0 0)
(3.78219 0 0)
(4.22133 0 0)
(4.66284 0 0)
(5.10691 0 0)
(5.55371 0 0)
(6.00343 0 0)
(6.45624 0 0)
(6.9123 0 0)
(7.37178 0 0)
(7.83483 0 0)
(8.30159 0 0)
(8.77217 0 0)
(9.24668 0 0)
(9.72521 0 0)
(10.2078 0 0)
(10.6946 0 0)
(11.1855 0 0)
(11.6807 0 0)
(12.18 0 0)
(12.6835 0 0)
(13.1911 0 0)
(13.7028 0 0)
(14.2186 0 0)
(14.7383 0 0)
(15.2619 0 0)
(15.7892 0 0)
(16.3203 0 0)
(16.8549 0 0)
(17.3931 0 0)
(17.9346 0 0)
(18.4793 0 0)
(19.0273 0 0)
(19.5783 0 0)
(20.1322 0 0)
(20.689 0 0)
(21.2485 0 0)
(21.8106 0 0)
(22.3752 0 0)
(22.9423 0 0)
(23.5117 0 0)
(24.0834 0 0)
(24.6573 0 0)
(25.2332 0 0)
(25.8111 0 0)
(26.3909 0 0)
(26.9726 0 0)
(27.5561 0 0)
(28.1413 0 0)
(28.7282 0 0)
(29.3166 0 0)
(29.9066 0 0)
(30.498 0 0)
(31.0909 0 0)
(31.6851 0 0)
(32.2807 0 0)
(32.8775 0 0)
(33.4756 0 0)
(34.0748 0 0)
(34.6752 0 0)
(35.2767 0 0)
(35.8793 0 0)
(36.4829 0 0)
(37.0875 0 0)
(37.6931 0 0)
(38.2996 0 0)
(38.907 0 0)
(39.5152 0 0)
(40.1243 0 0)
(40.7342 0 0)
(41.3449 0 0)
(41.9564 0 0)
(42.5686 0 0)
(43.1815 0 0)
(43.7951 0 0)
(44.4094 0 0)
(45.0243 0 0)
(45.6399 0 0)
(46.256 0 0)
(46.8727 0 0)
(47.4901 0 0)
(48.1079 0 0)
(48.7263 0 0)
(49.3452 0 0)
(49.9647 0 0)
(50.5846 0 0)
(51.2049 0 0)
(51.8258 0 0)
(52.4471 0 0)
(53.0688 0 0)
(53.6909 0 0)
(54.3135 0 0)
(54.9364 0 0)
(55.5598 0 0)
(56.1835 0 0)
(56.8075 0 0)
(57.432 0 0)
(58.0567 0 0)
(58.6818 0 0)
(59.3073 0 0)
(59.933 0 0)
(60.559 0 0)
(61.1854 0 0)
(61.812 0 0)
(62.4389 0 0)
(63.0661 0 0)
(63.6936 0 0)
(64.3213 0 0)
(64.9493 0 0)
(65.5775 0 0)
(66.206 0 0)
(66.8347 0 0)
(67.4636 0 0)
(68.0928 0 0)
(68.7222 0 0)
(69.3518 0 0)
(69.9816 0 0)
(70.6116 0 0)
(71.2418 0 0)
(71.8721 0 0)
(72.5027 0 0)
(73.1335 0 0)
(73.7644 0 0)
(74.3955 0 0)
(75.0268 0 0)
(75.6583 0 0)
(76.2899 0 0)
(76.9216 0 0)
(77.5536 0 0)
(78.1856 0 0)
(78.8179 0 0)
(79.4502 0 0)
(80.0827 0 0)
(80.7154 0 0)
(81.3482 0 0)
(81.9811 0 0)
(82.6141 0 0)
(83.2473 0 0)
(83.8806 0 0)
(84.514 0 0)
(85.1475 0 0)
(85.7812 0 0)
(86.4149 0 0)
(87.0488 0 0)
(87.6827 0 0)
(88.3168 0 0)
(88.951 0 0)
(89.5853 0 0)
(90.2196 0 0)
(90.8541 0 0)
(91.4887 0 0)
(92.1233 0 0)
(92.7581 0 0)
(93.3929 0 0)
(94.0278 0 0)
(94.6628 0 0)
(95.2979 0 0)
(95.933 0 0)
(96.5683 0 0)
(97.2036 0 0)
(97.839 0 0)
(98.4744 0 0)
(99.11 0 0)
(99.7456 0 0)
(100.381 0 0)
(101.017 0 0)
(101.653 0 0)
(102.289 0 0)
(102.925 0 0)
(103.561 0 0)
(104.197 0 0)
(104.833 0 0)
(105.469 0 0)
(106.105 0 0)
(106.741 0 0)
(107.378 0 0)
(108.014 0 0)
(108.65 0 0)
(109.287 0 0)
(109.923 0 0)
(110.56 0 0)
(111.197 0 0)
(111.833 0 0)
(112.47 0 0)
(113.107 0 0)
(113.743 0 0)
(114.38 0 0)
(115.017 0 0)
(115.654 0 0)
(116.291 0 0)
(116.928 0 0)
(117.565 0 0)
(118.202 0 0)
(118.839 0 0)
(119.476 0 0)
(120.113 0 0)
(120.75 0 0)
(121.388 0 0)
(122.025 0 0)
(122.662 0 0)
(123.299 0 0)
(123.937 0 0)
(124.574 0 0)
(125.211 0 0)
(125.849 0 0)
(126.486 0 0)
(127.123 0 0)
(127.761 0 0)
(128.398 0 0)
(129.036 0 0)
(129.673 0 0)
(130.311 0 0)
(130.948 0 0)
(131.586 0 0)
(132.223 0 0)
(132.861 0 0)
(133.499 0 0)
(134.136 0 0)
(134.774 0 0)
(135.411 0 0)
(136.049 0 0)
(136.687 0 0)
(137.324 0 0)
(137.962 0 0)
(138.6 0 0)
(139.237 0 0)
(139.875 0 0)
(140.513 0 0)
(141.15 0 0)
(141.788 0 0)
(142.426 0 0)
(143.063 0 0)
(143.701 0 0)
(144.339 0 0)
(144.977 0 0)
(145.614 0 0)
(146.252 0 0)
(146.89 0 0)
(147.527 0 0)
(148.165 0 0)
(148.803 0 0)
(149.441 0 0)
(150.078 0 0)
(150.716 0 0)
(151.354 0 0)
(151.991 0 0)
(152.629 0 0)
(153.267 0 0)
(153.904 0 0)
(154.542 0 0)
(155.18 0 0)
(155.817 0 0)
(156.455 0 0)
(157.093 0 0)
(157.73 0 0)
(158.368 0 0)
(159.005 0 0)
(159.643 0 0)
(160.28 0 0)
(160.918 0 0)
(161.556 0 0)
(162.193 0 0)
(162.831 0 0)
(163.468 0 0)
(164.105 0 0)
(164.743 0 0)
(165.38 0 0)
(166.018 0 0)
(166.655 0 0)
(167.292 0 0)
(167.93 0 0)
(168.567 0 0)
(169.204 0 0)
(169.842 0 0)
(170.479 0 0)
(171.116 0 0)
(171.753 0 0)
(172.39 0 0)
(173.028 0 0)
(173.665 0 0)
(174.302 0 0)
(174.939 0 0)
(175.576 0 0)
(176.213 0 0)
(176.85 0 0)
(177.487 0 0)
(178.123 0 0)
(178.76 0 0)
(179.397 0 0)
(180.034 0 0)
(180.671 0 0)
(181.307 0 0)
(181.944 0 0)
(182.58 0 0)
(183.217 0 0)
(183.854 0 0)
(184.49 0 0)
(185.126 0 0)
(185.763 0 0)
(186.399 0 0)
(187.035 0 0)
(187.672 0 0)
(188.308 0 0)
(188.944 0 0)
(189.58 0 0)
(190.216 0 0)
(190.852 0 0)
(191.488 0 0)
(192.124 0 0)
(192.76 0 0)
(193.395 0 0)
(194.031 0 0)
(194.667 0 0)
(195.302 0 0)
(195.938 0 0)
(196.573 0 0)
(197.208 0 0)
(197.844 0 0)
(198.479 0 0)
(199.114 0 0)
(199.749 0 0)
(200.384 0 0)
(201.019 0 0)
(201.654 0 0)
(202.288 0 0)
(202.923 0 0)
(203.557 0 0)
(204.192 0 0)
(204.826 0 0)
(205.461 0 0)
(206.095 0 0)
(206.729 0 0)
(207.363 0 0)
(207.997 0 0)
(208.631 0 0)
(209.264 0 0)
(209.898 0 0)
(210.531 0 0)
(211.165 0 0)
(211.798 0 0)
(212.431 0 0)
(213.064 0 0)
(213.697 0 0)
(214.329 0 0)
(214.962 0 0)
(215.595 0 0)
(216.227 0 0)
(216.859 0 0)
(217.491 0 0)
(218.123 0 0)
(218.755 0 0)
(219.386 0 0)
(220.018 0 0)
(220.649 0 0)
(221.28 0 0)
(221.911 0 0)
(222.542 0 0)
(223.172 0 0)
(223.803 0 0)
(224.433 0 0)
(225.063 0 0)
(225.693 0 0)
(226.322 0 0)
(226.952 0 0)
(227.581 0 0)
(228.21 0 0)
(228.838 0 0)
(229.467 0 0)
(230.095 0 0)
(230.723 0 0)
(231.351 0 0)
(231.978 0 0)
(232.605 0 0)
(233.232 0 0)
(233.859 0 0)
(234.485 0 0)
(235.111 0 0)
(235.737 0 0)
(236.362 0 0)
(236.987 0 0)
(237.612 0 0)
(238.236 0 0)
(238.86 0 0)
(239.484 0 0)
(240.107 0 0)
(240.73 0 0)
(241.352 0 0)
(241.974 0 0)
(242.596 0 0)
(243.217 0 0)
(243.837 0 0)
(244.457 0 0)
(245.077 0 0)
(245.696 0 0)
(246.315 0 0)
(246.932 0 0)
(247.55 0 0)
(248.167 0 0)
(248.783 0 0)
(249.398 0 0)
(250.013 0 0)
(250.628 0 0)
(251.241 0 0)
(251.854 0 0)
(252.466 0 0)
(253.077 0 0)
(253.687 0 0)
(254.297 0 0)
(254.906 0 0)
(255.513 0 0)
(256.12 0 0)
(256.726 0 0)
(257.331 0 0)
(257.934 0 0)
(258.537 0 0)
(259.139 0 0)
(259.739 0 0)
(260.338 0 0)
(260.936 0 0)
(261.532 0 0)
(262.127 0 0)
(262.72 0 0)
(263.312 0 0)
(263.903 0 0)
(264.491 0 0)
(265.078 0 0)
(265.664 0 0)
(266.247 0 0)
(266.828 0 0)
(267.408 0 0)
(267.985 0 0)
(268.56 0 0)
(269.133 0 0)
(269.703 0 0)
(270.27 0 0)
(270.835 0 0)
(271.398 0 0)
(271.957 0 0)
(272.513 0 0)
(273.067 0 0)
(273.617 0 0)
(274.163 0 0)
(274.706 0 0)
(275.245 0 0)
(275.78 0 0)
(276.311 0 0)
(276.838 0 0)
(277.36 0 0)
(277.878 0 0)
(278.391 0 0)
(278.898 0 0)
(279.401 0 0)
(279.897 0 0)
(280.388 0 0)
(280.873 0 0)
(281.352 0 0)
(281.824 0 0)
(282.289 0 0)
(282.747 0 0)
(283.197 0 0)
(283.64 0 0)
(284.075 0 0)
(284.502 0 0)
(284.92 0 0)
(285.329 0 0)
(285.729 0 0)
(286.12 0 0)
(286.501 0 0)
(286.872 0 0)
(287.233 0 0)
(287.583 0 0)
(287.922 0 0)
(288.25 0 0)
(288.567 0 0)
(288.873 0 0)
(289.166 0 0)
(289.448 0 0)
(289.719 0 0)
(289.977 0 0)
(290.223 0 0)
(290.457 0 0)
(290.679 0 0)
(290.889 0 0)
(291.087 0 0)
(291.274 0 0)
(291.449 0 0)
(291.612 0 0)
(291.765 0 0)
(291.906 0 0)
(292.038 0 0)
(292.159 0 0)
(292.27 0 0)
(292.372 0 0)
(292.465 0 0)
(292.55 0 0)
(292.627 0 0)
(292.696 0 0)
(292.759 0 0)
(292.815 0 0)
(292.865 0 0)
(292.909 0 0)
(292.948 0 0)
(292.983 0 0)
(293.013 0 0)
(293.04 0 0)
(293.063 0 0)
(293.084 0 0)
(293.101 0 0)
(293.116 0 0)
(293.129 0 0)
(293.14 0 0)
(293.15 0 0)
(293.158 0 0)
(293.164 0 0)
(293.17 0 0)
(293.175 0 0)
(293.179 0 0)
(293.182 0 0)
(293.185 0 0)
(293.188 0 0)
(293.19 0 0)
(293.191 0 0)
(293.193 0 0)
(293.194 0 0)
(293.195 0 0)
(293.196 0 0)
(293.196 0 0)
(293.197 0 0)
(293.197 0 0)
(293.198 0 0)
(293.198 0 0)
(293.198 0 0)
(293.198 0 0)
(293.199 0 0)
(293.199 0 0)
(293.199 0 0)
(293.199 0 0)
(293.199 0 0)
(293.199 0 0)
(293.199 0 0)
(293.199 0 0)
(293.2 0 0)
(293.2 0 0)
(293.2 0 0)
(293.2 0 0)
(293.2 0 0)
(293.2 0 0)
(293.2 0 0)
(293.2 0 0)
(293.2 0 0)
(293.2 0 0)
(293.2 0 0)
(293.2 0 0)
(293.2 0 0)
(293.2 0 0)
(293.2 0 0)
(293.2 0 0)
(293.2 0 0)
(293.2 0 0)
(293.2 0 0)
(293.201 0 0)
(293.201 0 0)
(293.201 0 0)
(293.201 0 0)
(293.201 0 0)
(293.201 0 0)
(293.201 0 0)
(293.201 0 0)
(293.201 0 0)
(293.201 0 0)
(293.201 0 0)
(293.201 0 0)
(293.201 0 0)
(293.201 0 0)
(293.201 0 0)
(293.201 0 0)
(293.201 0 0)
(293.201 0 0)
(293.201 0 0)
(293.201 0 0)
(293.202 0 0)
(293.202 0 0)
(293.202 0 0)
(293.202 0 0)
(293.202 0 0)
(293.202 0 0)
(293.202 0 0)
(293.202 0 0)
(293.202 0 0)
(293.202 0 0)
(293.202 0 0)
(293.202 0 0)
(293.202 0 0)
(293.202 0 0)
(293.202 0 0)
(293.202 0 0)
(293.202 0 0)
(293.202 0 0)
(293.202 0 0)
(293.202 0 0)
(293.202 0 0)
(293.202 0 0)
(293.202 0 0)
(293.202 0 0)
(293.203 0 0)
(293.203 0 0)
(293.203 0 0)
(293.203 0 0)
(293.202 0 0)
(293.202 0 0)
(293.202 0 0)
(293.202 0 0)
(293.202 0 0)
(293.202 0 0)
(293.202 0 0)
(293.202 0 0)
(293.202 0 0)
(293.202 0 0)
(293.202 0 0)
(293.202 0 0)
(293.202 0 0)
(293.202 0 0)
(293.202 0 0)
(293.202 0 0)
(293.202 0 0)
(293.202 0 0)
(293.202 0 0)
(293.202 0 0)
(293.202 0 0)
(293.202 0 0)
(293.202 0 0)
(293.202 0 0)
(293.202 0 0)
(293.202 0 0)
(293.202 0 0)
(293.203 0 0)
(293.203 0 0)
(293.203 0 0)
(293.203 0 0)
(293.203 0 0)
(293.203 0 0)
(293.203 0 0)
(293.203 0 0)
(293.203 0 0)
(293.203 0 0)
(293.203 0 0)
(293.203 0 0)
(293.203 0 0)
(293.203 0 0)
(293.203 0 0)
(293.203 0 0)
(293.203 0 0)
(293.203 0 0)
(293.203 0 0)
(293.203 0 0)
(293.203 0 0)
(293.203 0 0)
(293.203 0 0)
(293.203 0 0)
(293.203 0 0)
(293.203 0 0)
(293.203 0 0)
(293.203 0 0)
(293.203 0 0)
(293.203 0 0)
(293.203 0 0)
(293.203 0 0)
(293.203 0 0)
(293.203 0 0)
(293.203 0 0)
(293.203 0 0)
(293.203 0 0)
(293.203 0 0)
(293.203 0 0)
(293.203 0 0)
(293.203 0 0)
(293.203 0 0)
(293.203 0 0)
(293.203 0 0)
(293.203 0 0)
(293.203 0 0)
(293.203 0 0)
(293.203 0 0)
(293.203 0 0)
(293.203 0 0)
(293.203 0 0)
(293.203 0 0)
(293.203 0 0)
(293.203 0 0)
(293.203 0 0)
(293.203 0 0)
(293.203 0 0)
(293.203 0 0)
(293.203 0 0)
(293.203 0 0)
(293.203 0 0)
(293.203 0 0)
(293.204 0 0)
(293.204 0 0)
(293.204 0 0)
(293.204 0 0)
(293.204 0 0)
(293.204 0 0)
(293.204 0 0)
(293.204 0 0)
(293.204 0 0)
(293.204 0 0)
(293.204 0 0)
(293.204 0 0)
(293.204 0 0)
(293.204 0 0)
(293.204 0 0)
(293.204 0 0)
(293.204 0 0)
(293.204 0 0)
(293.204 0 0)
(293.204 0 0)
(293.204 0 0)
(293.204 0 0)
(293.204 0 0)
(293.204 0 0)
(293.204 0 0)
(293.204 0 0)
(293.204 0 0)
(293.204 0 0)
(293.204 0 0)
(293.204 0 0)
(293.204 0 0)
(293.204 0 0)
(293.204 0 0)
(293.204 0 0)
(293.204 0 0)
(293.204 0 0)
(293.204 0 0)
(293.204 0 0)
(293.204 0 0)
(293.204 0 0)
(293.204 0 0)
(293.204 0 0)
(293.204 0 0)
(293.204 0 0)
(293.204 0 0)
(293.204 0 0)
(293.204 0 0)
(293.204 0 0)
(293.204 0 0)
(293.204 0 0)
(293.204 0 0)
(293.204 0 0)
(293.204 0 0)
(293.204 0 0)
(293.204 0 0)
(293.204 0 0)
(293.204 0 0)
(293.204 0 0)
(293.204 0 0)
(293.204 0 0)
(293.204 0 0)
(293.204 0 0)
(293.204 0 0)
(293.204 0 0)
(293.204 0 0)
(293.204 0 0)
(293.204 0 0)
(293.204 0 0)
(293.204 0 0)
(293.204 0 0)
(293.204 0 0)
(293.204 0 0)
(293.204 0 0)
(293.204 0 0)
(293.204 0 0)
(293.204 0 0)
(293.204 0 0)
(293.204 0 0)
(293.204 0 0)
(293.204 0 0)
(293.204 0 0)
(293.204 0 0)
(293.204 0 0)
(293.204 0 0)
(293.204 0 0)
(293.204 0 0)
(293.204 0 0)
(293.204 0 0)
(293.204 0 0)
(293.204 0 0)
(293.204 0 0)
(293.204 0 0)
(293.204 0 0)
(293.204 0 0)
(293.204 0 0)
(293.204 0 0)
(293.204 0 0)
(293.204 0 0)
(293.204 0 0)
(293.204 0 0)
(293.204 0 0)
(293.204 0 0)
(293.204 0 0)
(293.204 0 0)
(293.204 0 0)
(293.204 0 0)
(293.204 0 0)
(293.204 0 0)
(293.204 0 0)
(293.204 0 0)
(293.204 0 0)
(293.204 0 0)
(293.204 0 0)
(293.204 0 0)
(293.204 0 0)
(293.204 0 0)
(293.204 0 0)
(293.204 0 0)
(293.204 0 0)
(293.204 0 0)
(293.204 0 0)
(293.204 0 0)
(293.204 0 0)
(293.204 0 0)
(293.204 0 0)
(293.204 0 0)
(293.204 0 0)
(293.204 0 0)
(293.204 0 0)
(293.204 0 0)
(293.204 0 0)
(293.204 0 0)
(293.204 0 0)
(293.204 0 0)
(293.204 0 0)
(293.204 0 0)
(293.204 0 0)
(293.204 0 0)
(293.204 0 0)
(293.204 0 0)
(293.204 0 0)
(293.204 0 0)
(293.204 0 0)
(293.204 0 0)
(293.204 0 0)
(293.204 0 0)
(293.204 0 0)
(293.204 0 0)
(293.204 0 0)
(293.204 0 0)
(293.204 0 0)
(293.204 0 0)
(293.204 0 0)
(293.204 0 0)
(293.204 0 0)
(293.204 0 0)
(293.203 0 0)
(293.203 0 0)
(293.203 0 0)
(293.203 0 0)
(293.203 0 0)
(293.202 0 0)
(293.202 0 0)
(293.201 0 0)
(293.2 0 0)
(293.199 0 0)
(293.198 0 0)
(293.197 0 0)
(293.195 0 0)
(293.194 0 0)
(293.193 0 0)
(293.192 0 0)
(293.191 0 0)
(293.19 0 0)
(293.189 0 0)
(293.188 0 0)
(293.188 0 0)
(293.188 0 0)
(293.188 0 0)
(293.188 0 0)
(293.189 0 0)
(293.19 0 0)
(293.191 0 0)
(293.192 0 0)
(293.193 0 0)
(293.195 0 0)
(293.196 0 0)
(293.197 0 0)
(293.198 0 0)
(293.199 0 0)
(293.2 0 0)
(293.2 0 0)
(293.201 0 0)
(293.201 0 0)
(293.202 0 0)
(293.202 0 0)
(293.202 0 0)
(293.203 0 0)
(293.203 0 0)
(293.203 0 0)
(293.203 0 0)
(293.203 0 0)
(293.203 0 0)
(293.203 0 0)
(293.203 0 0)
(293.203 0 0)
(293.203 0 0)
(293.203 0 0)
(293.203 0 0)
(293.203 0 0)
(293.203 0 0)
(293.203 0 0)
(293.203 0 0)
(293.203 0 0)
(293.203 0 0)
(293.203 0 0)
(293.203 0 0)
(293.203 0 0)
(293.203 0 0)
(293.203 0 0)
(293.203 0 0)
(293.203 0 0)
(293.203 0 0)
(293.203 0 0)
(293.203 0 0)
(293.202 0 0)
(293.202 0 0)
(293.202 0 0)
(293.201 0 0)
(293.2 0 0)
(293.198 0 0)
(293.196 0 0)
(293.193 0 0)
(293.189 0 0)
(293.183 0 0)
(293.175 0 0)
(293.165 0 0)
(293.152 0 0)
(293.136 0 0)
(293.116 0 0)
(293.091 0 0)
(293.06 0 0)
(293.024 0 0)
(292.98 0 0)
(292.93 0 0)
(292.871 0 0)
(292.805 0 0)
(292.73 0 0)
(292.648 0 0)
(292.558 0 0)
(292.461 0 0)
(292.358 0 0)
(292.251 0 0)
(292.139 0 0)
(292.026 0 0)
(291.912 0 0)
(291.8 0 0)
(291.69 0 0)
(291.584 0 0)
(291.484 0 0)
(291.391 0 0)
(291.305 0 0)
(291.228 0 0)
(291.158 0 0)
(291.097 0 0)
(291.045 0 0)
(291 0 0)
(290.963 0 0)
(290.932 0 0)
(290.907 0 0)
(290.887 0 0)
(290.872 0 0)
(290.86 0 0)
(290.851 0 0)
(290.845 0 0)
(290.84 0 0)
(290.837 0 0)
(290.835 0 0)
(290.834 0 0)
(290.833 0 0)
(290.832 0 0)
(290.832 0 0)
(290.832 0 0)
(290.831 0 0)
(290.831 0 0)
(290.831 0 0)
(290.831 0 0)
(290.831 0 0)
(290.831 0 0)
(290.831 0 0)
(290.831 0 0)
(290.831 0 0)
(290.831 0 0)
(290.831 0 0)
(290.831 0 0)
(290.831 0 0)
(290.831 0 0)
)
;

boundaryField
{
    sides
    {
        type            zeroGradient;
    }
    empty
    {
        type            empty;
    }
}


// ************************************************************************* //
