/*--------------------------------*- C++ -*----------------------------------*\
| =========                 |                                                 |
| \\      /  F ield         | OpenFOAM: The Open Source CFD Toolbox           |
|  \\    /   O peration     | Version:  3.0.0                                 |
|   \\  /    A nd           | Web:      www.OpenFOAM.org                      |
|    \\/     M anipulation  |                                                 |
\*---------------------------------------------------------------------------*/
FoamFile
{
    version     2.0;
    format      ascii;
    class       volScalarField;
    location    "0.022";
    object      p;
}
// * * * * * * * * * * * * * * * * * * * * * * * * * * * * * * * * * * * * * //

dimensions      [1 -1 -2 0 0 0 0];

internalField   nonuniform List<scalar> 
1000
(
35374.6
35367.8
35361.3
35355.5
35349.8
35344.1
35338.3
35332.4
35326.6
35320.7
35314.9
35309
35303.2
35297.3
35291.4
35285.5
35279.5
35273.6
35267.7
35261.7
35255.7
35249.7
35243.7
35237.7
35231.7
35225.7
35219.6
35213.6
35207.5
35201.4
35195.4
35189.2
35183.1
35177
35170.9
35164.7
35158.5
35152.4
35146.2
35140
35133.7
35127.5
35121.3
35115
35108.7
35102.5
35096.2
35089.9
35083.5
35077.2
35070.9
35064.5
35058.1
35051.7
35045.3
35038.9
35032.5
35026.1
35019.6
35013.1
35006.7
35000.2
34993.7
34987.1
34980.6
34974
34967.5
34960.9
34954.3
34947.7
34941.1
34934.5
34927.8
34921.2
34914.5
34907.8
34901.1
34894.4
34887.6
34880.9
34874.1
34867.4
34860.6
34853.8
34847
34840.1
34833.3
34826.4
34819.5
34812.6
34805.7
34798.8
34791.9
34784.9
34778
34771
34764
34757
34750
34742.9
34735.9
34728.8
34721.7
34714.6
34707.5
34700.4
34693.2
34686.1
34678.9
34671.7
34664.5
34657.3
34650
34642.8
34635.5
34628.2
34621
34613.6
34606.3
34599
34591.6
34584.2
34576.8
34569.4
34562
34554.5
34547.1
34539.6
34532.1
34524.6
34517.1
34509.5
34502
34494.4
34486.8
34479.2
34471.6
34463.9
34456.3
34448.6
34440.9
34433.2
34425.5
34417.7
34410
34402.2
34394.4
34386.6
34378.8
34370.9
34363.1
34355.2
34347.3
34339.4
34331.4
34323.5
34315.5
34307.5
34299.6
34291.5
34283.5
34275.5
34267.4
34259.3
34251.2
34243.1
34234.9
34226.8
34218.6
34210.4
34202.2
34194
34185.7
34177.5
34169.2
34160.9
34152.6
34144.2
34135.9
34127.5
34119.1
34110.7
34102.3
34093.8
34085.3
34076.9
34068.4
34059.8
34051.3
34042.7
34034.1
34025.6
34016.9
34008.3
33999.6
33991
33982.3
33973.6
33964.8
33956.1
33947.3
33938.5
33929.7
33920.9
33912
33903.2
33894.3
33885.4
33876.5
33867.5
33858.5
33849.6
33840.6
33831.5
33822.5
33813.4
33804.3
33795.2
33786.1
33777
33767.8
33758.6
33749.4
33740.2
33730.9
33721.6
33712.4
33703
33693.7
33684.4
33675
33665.6
33656.2
33646.7
33637.3
33627.8
33618.3
33608.8
33599.2
33589.7
33580.1
33570.5
33560.8
33551.2
33541.5
33531.8
33522.1
33512.4
33502.6
33492.8
33483
33473.2
33463.3
33453.4
33443.5
33433.6
33423.7
33413.7
33403.7
33393.7
33383.7
33373.6
33363.5
33353.4
33343.3
33333.1
33322.9
33312.7
33302.5
33292.3
33282
33271.7
33261.4
33251
33240.6
33230.2
33219.8
33209.4
33198.9
33188.4
33177.9
33167.3
33156.8
33146.2
33135.5
33124.9
33114.2
33103.5
33092.8
33082
33071.2
33060.4
33049.6
33038.7
33027.8
33016.9
33006
32995
32984
32973
32961.9
32950.8
32939.7
32928.6
32917.4
32906.2
32895
32883.7
32872.4
32861.1
32849.8
32838.4
32827
32815.6
32804.1
32792.6
32781.1
32769.5
32757.9
32746.3
32734.7
32723
32711.3
32699.5
32687.8
32676
32664.1
32652.2
32640.3
32628.4
32616.4
32604.4
32592.4
32580.3
32568.2
32556
32543.8
32531.6
32519.4
32507.1
32494.7
32482.4
32470
32457.5
32445
32432.5
32420
32407.4
32394.7
32382.1
32369.4
32356.6
32343.8
32331
32318.1
32305.2
32292.2
32279.2
32266.1
32253
32239.9
32226.7
32213.5
32200.2
32186.8
32173.5
32160
32146.6
32133
32119.4
32105.8
32092.1
32078.4
32064.6
32050.8
32036.9
32022.9
32008.9
31994.8
31980.7
31966.5
31952.2
31937.9
31923.6
31909.1
31894.6
31880
31865.4
31850.7
31835.9
31821.1
31806.2
31791.2
31776.2
31761
31745.8
31730.6
31715.2
31699.8
31684.3
31668.7
31653
31637.3
31621.5
31605.6
31589.6
31573.5
31557.4
31541.1
31524.8
31508.4
31491.9
31475.3
31458.7
31442
31425.1
31408.3
31391.3
31374.2
31357.1
31339.9
31322.6
31305.2
31287.8
31270.3
31252.8
31235.1
31217.5
31199.7
31181.9
31164.1
31146.3
31128.4
31110.4
31092.5
31074.5
31056.6
31038.6
31020.6
31002.7
30984.8
30966.9
30949.1
30931.3
30913.6
30896
30878.4
30861
30843.7
30826.5
30809.4
30792.5
30775.8
30759.3
30742.9
30726.8
30710.9
30695.3
30679.9
30664.7
30649.9
30635.3
30621.1
30607.2
30593.6
30580.4
30567.5
30555
30542.9
30531.2
30519.8
30508.9
30498.4
30488.3
30478.6
30469.3
30460.5
30452.1
30444
30436.5
30429.3
30422.5
30416.1
30410.1
30404.5
30399.3
30394.4
30389.9
30385.7
30381.8
30378.3
30375
30372.1
30369.4
30366.9
30364.7
30362.7
30360.9
30359.3
30357.9
30356.6
30355.5
30354.6
30353.7
30353
30352.4
30351.8
30351.4
30351
30350.7
30350.5
30350.3
30350.1
30350
30349.9
30349.8
30349.8
30349.8
30349.8
30349.8
30349.8
30349.8
30349.9
30349.9
30349.9
30350
30350
30350.1
30350.1
30350.1
30350.2
30350.2
30350.3
30350.3
30350.3
30350.3
30350.4
30350.4
30350.4
30350.4
30350.4
30350.5
30350.5
30350.5
30350.5
30350.5
30350.5
30350.5
30350.5
30350.5
30350.5
30350.5
30350.5
30350.5
30350.5
30350.5
30350.5
30350.5
30350.5
30350.5
30350.5
30350.5
30350.5
30350.5
30350.4
30350.4
30350.4
30350.4
30350.4
30350.4
30350.4
30350.4
30350.4
30350.4
30350.4
30350.4
30350.4
30350.4
30350.4
30350.4
30350.4
30350.4
30350.4
30350.3
30350.3
30350.3
30350.3
30350.3
30350.3
30350.3
30350.3
30350.3
30350.3
30350.3
30350.3
30350.3
30350.3
30350.3
30350.3
30350.3
30350.3
30350.3
30350.3
30350.3
30350.3
30350.3
30350.3
30350.3
30350.3
30350.3
30350.3
30350.3
30350.3
30350.3
30350.3
30350.3
30350.3
30350.3
30350.3
30350.3
30350.3
30350.3
30350.3
30350.3
30350.3
30350.3
30350.3
30350.3
30350.3
30350.2
30350.2
30350.2
30350.2
30350.2
30350.2
30350.2
30350.2
30350.2
30350.2
30350.2
30350.2
30350.2
30350.2
30350.2
30350.2
30350.2
30350.2
30350.2
30350.2
30350.2
30350.2
30350.2
30350.2
30350.2
30350.2
30350.2
30350.2
30350.2
30350.2
30350.2
30350.2
30350.2
30350.2
30350.2
30350.1
30350.1
30350.1
30350.1
30350.1
30350.1
30350.1
30350.1
30350.1
30350.1
30350.1
30350.1
30350.1
30350.1
30350.1
30350.1
30350.1
30350.1
30350.1
30350.1
30350.1
30350.1
30350.1
30350.1
30350.1
30350.1
30350.1
30350.1
30350.1
30350.1
30350.1
30350.1
30350.1
30350.1
30350.1
30350.1
30350.1
30350.1
30350.1
30350.1
30350.1
30350.1
30350.1
30350.1
30350.1
30350.1
30350.1
30350.1
30350
30350
30350
30350
30350
30350
30350
30350
30350
30350
30350
30350
30350
30350
30350
30350
30350
30350
30350
30350
30350
30350
30350
30350
30350
30350
30350
30350
30350
30350
30350
30350
30350
30350
30350
30350
30350
30350
30350
30350
30350
30350
30350
30350
30350
30350
30350
30350
30350
30350
30350
30350
30350
30350
30350
30350
30350
30350
30350
30350
30350
30350
30350
30350
30350
30350
30350
30350
30350
30350
30350
30350
30350
30350
30350
30350
30350
30350
30350
30350
30350
30350
30350
30349.9
30349.9
30349.9
30349.9
30349.9
30349.9
30349.9
30349.9
30349.9
30349.9
30349.9
30349.9
30349.9
30349.9
30349.9
30349.9
30349.9
30349.9
30349.9
30349.9
30349.9
30349.9
30349.9
30349.9
30349.9
30349.9
30349.9
30349.9
30349.9
30349.9
30349.9
30349.9
30349.9
30349.9
30349.9
30349.9
30349.9
30349.9
30349.9
30349.9
30349.9
30349.9
30349.9
30349.9
30349.9
30349.9
30349.9
30349.9
30349.9
30349.9
30349.9
30349.9
30349.9
30349.9
30349.9
30349.9
30349.9
30349.9
30349.9
30349.9
30349.9
30349.9
30349.9
30349.9
30349.9
30349.9
30349.9
30349.9
30349.9
30349.9
30349.9
30349.9
30350
30350
30350
30350
30350
30350
30350
30350.1
30350.2
30350.3
30350.4
30350.5
30350.6
30350.8
30351
30351.2
30351.5
30351.9
30352.3
30352.7
30353.3
30353.9
30354.7
30355.6
30356.6
30357.7
30359.1
30360.6
30362.3
30364.2
30366.4
30368.8
30371.5
30374.4
30377.7
30381.3
30385.2
30389.4
30394
30399
30404.3
30409.9
30415.9
30422.2
30428.8
30435.7
30442.9
30450.4
30458
30465.9
30473.8
30481.9
30490.1
30498.2
30506.3
30514.4
30522.4
30530.2
30537.8
30545.2
30552.3
30559.2
30565.8
30572
30577.9
30583.4
30588.6
30593.4
30597.8
30601.9
30605.7
30609.1
30612.2
30615
30617.5
30619.7
30621.7
30623.4
30624.9
30626.3
30627.4
30628.5
30629.3
30630.1
30630.7
30631.3
30631.8
30632.2
30632.6
30632.9
30633.1
30633.4
30633.6
30633.8
30634
30634.1
30634.3
30634.4
30634.5
30634.5
30634.6
30634.6
30634.5
30634.5
30634.4
30634.3
30634.1
30633.8
30633.5
30633.1
30632.6
30632
30631.4
30630.8
30630.1
30629.3
30628.6
30627.8
30627
30626.2
30625.5
30624.8
30624.1
30623.5
30623
30622.5
30622.1
30621.8
30621.5
30621.3
30621.2
30621.1
30621
)
;

boundaryField
{
    sides
    {
        type            zeroGradient;
    }
    empty
    {
        type            empty;
    }
}


// ************************************************************************* //
