/*--------------------------------*- C++ -*----------------------------------*\
| =========                 |                                                 |
| \\      /  F ield         | OpenFOAM: The Open Source CFD Toolbox           |
|  \\    /   O peration     | Version:  3.0.0                                 |
|   \\  /    A nd           | Web:      www.OpenFOAM.org                      |
|    \\/     M anipulation  |                                                 |
\*---------------------------------------------------------------------------*/
FoamFile
{
    version     2.0;
    format      ascii;
    class       surfaceScalarField;
    location    "0.022";
    object      phi;
}
// * * * * * * * * * * * * * * * * * * * * * * * * * * * * * * * * * * * * * //

dimensions      [1 0 -1 0 0 0 0];

internalField   nonuniform List<scalar> 
999
(
16.7462
17.9287
19.1098
20.2902
21.4712
22.6536
23.8371
25.0213
26.2055
27.3901
28.5754
29.7606
30.9457
32.1306
33.3154
34.5
35.6846
36.869
38.0533
39.2375
40.4216
41.6055
42.7894
43.9731
45.1566
46.3401
47.5234
48.7066
49.8896
51.0726
52.2553
53.438
54.6205
55.8029
56.9851
58.1672
59.3491
60.531
61.7126
62.8941
64.0755
65.2567
66.4377
67.6186
68.7994
69.98
71.1604
72.3406
73.5208
74.7007
75.8805
77.0601
78.2395
79.4188
80.5979
81.7768
82.9556
84.1341
85.3125
86.4907
87.6688
88.8466
90.0243
91.2018
92.3791
93.5562
94.7331
95.9098
97.0864
98.2627
99.4388
100.615
101.79
102.966
104.141
105.316
106.491
107.666
108.841
110.015
111.189
112.363
113.536
114.71
115.883
117.056
118.229
119.401
120.574
121.746
122.917
124.089
125.26
126.432
127.602
128.773
129.944
131.114
132.284
133.453
134.623
135.792
136.961
138.129
139.298
140.466
141.634
142.801
143.969
145.136
146.302
147.469
148.635
149.801
150.967
152.132
153.297
154.462
155.626
156.791
157.954
159.118
160.282
161.445
162.608
163.77
164.932
166.094
167.256
168.417
169.578
170.739
171.899
173.059
174.219
175.378
176.538
177.696
178.855
180.013
181.171
182.328
183.485
184.642
185.799
186.955
188.111
189.266
190.421
191.576
192.73
193.884
195.038
196.191
197.344
198.497
199.649
200.801
201.952
203.103
204.254
205.404
206.554
207.704
208.853
210.002
211.15
212.298
213.446
214.593
215.74
216.887
218.033
219.178
220.323
221.468
222.613
223.757
224.9
226.043
227.186
228.328
229.47
230.612
231.753
232.893
234.033
235.173
236.312
237.451
238.589
239.727
240.865
242.002
243.138
244.274
245.41
246.545
247.679
248.814
249.947
251.08
252.213
253.345
254.477
255.608
256.739
257.869
258.999
260.128
261.257
262.385
263.512
264.64
265.766
266.892
268.018
269.143
270.267
271.391
272.514
273.637
274.76
275.881
277.002
278.123
279.243
280.362
281.481
282.6
283.717
284.834
285.951
287.067
288.182
289.297
290.411
291.525
292.637
293.75
294.861
295.972
297.083
298.193
299.302
300.41
301.518
302.625
303.731
304.837
305.942
307.047
308.151
309.254
310.356
311.458
312.559
313.659
314.759
315.858
316.956
318.053
319.15
320.246
321.341
322.435
323.529
324.622
325.714
326.806
327.896
328.986
330.075
331.163
332.25
333.337
334.423
335.508
336.592
337.675
338.757
339.839
340.92
341.999
343.078
344.156
345.233
346.31
347.385
348.459
349.533
350.605
351.677
352.748
353.817
354.886
355.954
357.02
358.086
359.151
360.214
361.277
362.339
363.399
364.459
365.517
366.575
367.631
368.686
369.74
370.793
371.844
372.895
373.944
374.993
376.04
377.085
378.13
379.173
380.216
381.256
382.296
383.334
384.371
385.407
386.441
387.474
388.506
389.536
390.565
391.592
392.618
393.642
394.665
395.687
396.706
397.725
398.742
399.757
400.77
401.782
402.793
403.801
404.808
405.813
406.817
407.819
408.818
409.816
410.813
411.807
412.799
413.789
414.778
415.764
416.748
417.73
418.71
419.688
420.664
421.637
422.608
423.577
424.544
425.508
426.469
427.428
428.385
429.338
430.29
431.238
432.184
433.127
434.067
435.004
435.938
436.869
437.797
438.721
439.643
440.561
441.476
442.387
443.295
444.199
445.099
445.995
446.888
447.777
448.661
449.542
450.418
451.29
452.158
453.021
453.879
454.732
455.581
456.425
457.264
458.097
458.925
459.748
460.565
461.377
462.182
462.982
463.776
464.564
465.345
466.119
466.888
467.649
468.403
469.151
469.891
470.624
471.35
472.067
472.777
473.48
474.174
474.86
475.537
476.206
476.866
477.518
478.161
478.794
479.418
480.033
480.639
481.235
481.821
482.397
482.963
483.519
484.065
484.601
485.126
485.641
486.145
486.638
487.121
487.593
488.054
488.504
488.944
489.372
489.789
490.196
490.591
490.976
491.35
491.712
492.064
492.406
492.736
493.056
493.365
493.664
493.952
494.23
494.498
494.756
495.004
495.243
495.471
495.691
495.902
496.103
496.296
496.48
496.655
496.823
496.982
497.134
497.279
497.416
497.546
497.669
497.785
497.895
498
498.098
498.19
498.277
498.359
498.436
498.509
498.576
498.64
498.699
498.754
498.806
498.854
498.899
498.941
498.979
499.015
499.049
499.079
499.108
499.134
499.159
499.181
499.202
499.221
499.238
499.254
499.269
499.282
499.295
499.306
499.316
499.325
499.334
499.342
499.349
499.355
499.361
499.366
499.371
499.375
499.379
499.382
499.385
499.388
499.39
499.393
499.395
499.396
499.398
499.399
499.4
499.401
499.402
499.403
499.404
499.404
499.405
499.405
499.406
499.406
499.406
499.406
499.406
499.406
499.406
499.406
499.406
499.406
499.406
499.406
499.406
499.406
499.406
499.406
499.406
499.405
499.405
499.405
499.405
499.405
499.405
499.404
499.404
499.404
499.404
499.403
499.403
499.403
499.403
499.403
499.402
499.402
499.402
499.402
499.401
499.401
499.401
499.401
499.4
499.4
499.4
499.4
499.399
499.399
499.399
499.399
499.398
499.398
499.398
499.397
499.397
499.397
499.397
499.396
499.396
499.396
499.396
499.395
499.395
499.395
499.394
499.394
499.394
499.394
499.393
499.393
499.393
499.393
499.392
499.392
499.392
499.391
499.391
499.391
499.391
499.39
499.39
499.39
499.389
499.389
499.389
499.388
499.388
499.388
499.388
499.387
499.387
499.387
499.386
499.386
499.386
499.385
499.385
499.385
499.384
499.384
499.384
499.384
499.383
499.383
499.383
499.382
499.382
499.382
499.381
499.381
499.381
499.38
499.38
499.38
499.379
499.379
499.379
499.378
499.378
499.378
499.377
499.377
499.377
499.376
499.376
499.376
499.375
499.375
499.375
499.374
499.374
499.373
499.373
499.373
499.372
499.372
499.372
499.371
499.371
499.371
499.37
499.37
499.369
499.369
499.369
499.368
499.368
499.368
499.367
499.367
499.366
499.366
499.366
499.365
499.365
499.364
499.364
499.364
499.363
499.363
499.362
499.362
499.362
499.361
499.361
499.36
499.36
499.359
499.359
499.359
499.358
499.358
499.357
499.357
499.357
499.356
499.356
499.355
499.355
499.354
499.354
499.353
499.353
499.353
499.352
499.352
499.351
499.351
499.35
499.35
499.349
499.349
499.348
499.348
499.347
499.347
499.346
499.346
499.346
499.345
499.345
499.344
499.344
499.343
499.343
499.342
499.342
499.341
499.341
499.34
499.34
499.339
499.338
499.338
499.337
499.337
499.336
499.336
499.335
499.335
499.334
499.334
499.333
499.333
499.332
499.332
499.331
499.33
499.33
499.329
499.329
499.328
499.328
499.327
499.326
499.326
499.325
499.325
499.324
499.323
499.323
499.322
499.322
499.321
499.32
499.32
499.319
499.319
499.318
499.317
499.317
499.316
499.315
499.315
499.314
499.313
499.313
499.312
499.312
499.311
499.31
499.309
499.309
499.308
499.307
499.307
499.306
499.305
499.305
499.304
499.303
499.303
499.302
499.301
499.3
499.3
499.299
499.298
499.297
499.297
499.296
499.295
499.294
499.294
499.293
499.292
499.291
499.291
499.29
499.289
499.288
499.287
499.287
499.286
499.285
499.284
499.283
499.282
499.282
499.281
499.28
499.279
499.278
499.277
499.276
499.276
499.275
499.274
499.273
499.272
499.271
499.27
499.269
499.268
499.267
499.266
499.265
499.264
499.263
499.262
499.261
499.26
499.259
499.258
499.257
499.256
499.255
499.254
499.253
499.252
499.251
499.25
499.249
499.248
499.247
499.245
499.244
499.243
499.242
499.24
499.239
499.237
499.236
499.234
499.232
499.231
499.229
499.227
499.224
499.222
499.219
499.217
499.214
499.21
499.207
499.203
499.199
499.195
499.19
499.185
499.18
499.174
499.168
499.161
499.155
499.147
499.14
499.132
499.124
499.115
499.107
499.098
499.089
499.079
499.07
499.06
499.051
499.041
499.031
499.022
499.013
499.003
498.994
498.986
498.977
498.969
498.961
498.954
498.947
498.94
498.933
498.927
498.922
498.916
498.911
498.907
498.902
498.898
498.894
498.891
498.887
498.884
498.881
498.878
498.875
498.872
498.87
498.867
498.865
498.862
498.86
498.858
498.855
498.853
498.851
498.848
498.846
498.843
498.841
498.839
498.836
498.834
498.831
498.829
498.826
498.824
498.822
498.819
498.817
498.815
498.812
498.81
498.808
498.805
498.803
498.801
498.799
498.797
498.795
498.793
498.791
498.789
498.787
498.785
498.782
498.78
498.778
498.775
498.772
498.769
498.767
498.763
498.76
498.757
498.753
498.75
498.746
498.743
498.739
)
;

boundaryField
{
    sides
    {
        type            calculated;
        value           nonuniform List<scalar> 2(498.735 -15.563);
    }
    empty
    {
        type            empty;
        value           nonuniform 0();
    }
}


// ************************************************************************* //
