/*--------------------------------*- C++ -*----------------------------------*\
| =========                 |                                                 |
| \\      /  F ield         | OpenFOAM: The Open Source CFD Toolbox           |
|  \\    /   O peration     | Version:  3.0.0                                 |
|   \\  /    A nd           | Web:      www.OpenFOAM.org                      |
|    \\/     M anipulation  |                                                 |
\*---------------------------------------------------------------------------*/
FoamFile
{
    version     2.0;
    format      ascii;
    class       volScalarField;
    location    "0.022";
    object      T;
}
// * * * * * * * * * * * * * * * * * * * * * * * * * * * * * * * * * * * * * //

dimensions      [0 0 0 1 0 0 0];

internalField   nonuniform List<scalar> 
1000
(
258.364
258.404
258.476
258.556
258.623
258.666
258.687
258.694
258.694
258.692
258.682
258.669
258.656
258.643
258.63
258.618
258.605
258.592
258.58
258.567
258.554
258.542
258.529
258.516
258.503
258.491
258.478
258.465
258.452
258.439
258.426
258.413
258.4
258.387
258.374
258.361
258.348
258.335
258.322
258.308
258.295
258.282
258.269
258.255
258.242
258.229
258.215
258.202
258.188
258.175
258.161
258.148
258.134
258.121
258.107
258.094
258.08
258.066
258.052
258.039
258.025
258.011
257.997
257.983
257.969
257.955
257.941
257.927
257.913
257.899
257.885
257.871
257.857
257.843
257.829
257.814
257.8
257.786
257.771
257.757
257.743
257.728
257.714
257.699
257.685
257.67
257.656
257.641
257.626
257.612
257.597
257.582
257.567
257.553
257.538
257.523
257.508
257.493
257.478
257.463
257.448
257.433
257.418
257.402
257.387
257.372
257.357
257.342
257.326
257.311
257.295
257.28
257.265
257.249
257.234
257.218
257.202
257.187
257.171
257.156
257.14
257.124
257.108
257.092
257.077
257.061
257.045
257.029
257.013
256.996
256.981
256.964
256.949
256.931
256.917
256.898
256.885
256.864
256.853
256.831
256.82
256.798
256.787
256.765
256.754
256.732
256.721
256.698
256.687
256.665
256.653
256.631
256.619
256.599
256.583
256.567
256.547
256.534
256.513
256.498
256.48
256.462
256.447
256.427
256.411
256.394
256.375
256.359
256.341
256.323
256.306
256.288
256.27
256.253
256.235
256.217
256.199
256.181
256.163
256.145
256.127
256.109
256.091
256.073
256.054
256.036
256.018
256
255.981
255.963
255.944
255.926
255.907
255.889
255.87
255.851
255.833
255.814
255.795
255.776
255.757
255.738
255.719
255.7
255.681
255.662
255.643
255.624
255.604
255.585
255.566
255.546
255.527
255.507
255.488
255.468
255.449
255.429
255.409
255.389
255.37
255.35
255.33
255.31
255.29
255.27
255.25
255.23
255.209
255.189
255.169
255.148
255.128
255.108
255.087
255.067
255.046
255.025
255.005
254.984
254.963
254.942
254.921
254.9
254.879
254.858
254.837
254.816
254.795
254.774
254.752
254.731
254.71
254.688
254.667
254.645
254.623
254.602
254.58
254.558
254.536
254.515
254.493
254.471
254.449
254.426
254.404
254.382
254.36
254.337
254.315
254.293
254.27
254.248
254.225
254.202
254.18
254.157
254.134
254.111
254.088
254.065
254.042
254.019
253.995
253.972
253.949
253.925
253.902
253.878
253.855
253.831
253.807
253.784
253.76
253.736
253.712
253.688
253.664
253.64
253.615
253.591
253.567
253.542
253.518
253.493
253.468
253.444
253.419
253.394
253.369
253.344
253.319
253.294
253.269
253.243
253.218
253.193
253.167
253.141
253.116
253.09
253.064
253.038
253.012
252.986
252.96
252.934
252.908
252.881
252.855
252.828
252.802
252.775
252.748
252.721
252.694
252.667
252.64
252.613
252.586
252.558
252.531
252.503
252.476
252.448
252.42
252.392
252.364
252.336
252.308
252.28
252.251
252.223
252.194
252.165
252.136
252.107
252.078
252.049
252.02
251.991
251.961
251.932
251.902
251.872
251.842
251.812
251.782
251.751
251.721
251.69
251.66
251.629
251.598
251.567
251.536
251.504
251.473
251.441
251.409
251.377
251.345
251.313
251.281
251.248
251.215
251.183
251.15
251.116
251.083
251.049
251.016
250.982
250.948
250.914
250.879
250.845
250.81
250.775
250.74
250.704
250.669
250.633
250.597
250.561
250.524
250.488
250.451
250.414
250.377
250.34
250.302
250.264
250.226
250.188
250.15
250.111
250.072
250.033
249.994
249.955
249.915
249.876
249.836
249.796
249.756
249.715
249.675
249.634
249.594
249.553
249.512
249.471
249.43
249.389
249.348
249.306
249.265
249.224
249.183
249.142
249.101
249.061
249.02
248.98
248.939
248.899
248.86
248.82
248.781
248.742
248.704
248.666
248.629
248.592
248.555
248.519
248.484
248.449
248.415
248.382
248.349
248.317
248.286
248.256
248.227
248.198
248.17
248.144
248.118
248.093
248.069
248.046
248.024
248.003
247.983
247.964
247.945
247.928
247.912
247.897
247.882
247.869
247.856
247.845
247.834
247.824
247.814
247.806
247.798
247.791
247.784
247.778
247.773
247.768
247.763
247.76
247.756
247.753
247.75
247.748
247.746
247.744
247.743
247.742
247.74
247.74
247.739
247.738
247.738
247.738
247.737
247.737
247.737
247.737
247.737
247.737
247.737
247.738
247.738
247.738
247.738
247.738
247.738
247.739
247.739
247.739
247.739
247.739
247.74
247.74
247.74
247.74
247.74
247.74
247.741
247.741
247.741
247.741
247.741
247.741
247.742
247.742
247.742
247.742
247.742
247.742
247.742
247.742
247.742
247.743
247.743
247.743
247.743
247.743
247.743
247.743
247.743
247.743
247.744
247.744
247.744
247.744
247.744
247.744
247.744
247.744
247.744
247.745
247.745
247.745
247.745
247.745
247.745
247.745
247.745
247.745
247.745
247.746
247.746
247.746
247.746
247.746
247.746
247.746
247.746
247.747
247.747
247.747
247.747
247.747
247.747
247.747
247.747
247.748
247.748
247.748
247.748
247.748
247.748
247.748
247.748
247.749
247.749
247.749
247.749
247.749
247.749
247.749
247.75
247.75
247.75
247.75
247.75
247.75
247.75
247.75
247.751
247.751
247.751
247.751
247.751
247.751
247.751
247.752
247.752
247.752
247.752
247.752
247.752
247.752
247.753
247.753
247.753
247.753
247.753
247.753
247.753
247.754
247.754
247.754
247.754
247.754
247.754
247.755
247.755
247.755
247.755
247.755
247.755
247.755
247.756
247.756
247.756
247.756
247.756
247.756
247.757
247.757
247.757
247.757
247.757
247.757
247.758
247.758
247.758
247.758
247.758
247.758
247.759
247.759
247.759
247.759
247.759
247.759
247.76
247.76
247.76
247.76
247.76
247.76
247.761
247.761
247.761
247.761
247.761
247.762
247.762
247.762
247.762
247.762
247.763
247.763
247.763
247.763
247.763
247.763
247.764
247.764
247.764
247.764
247.764
247.765
247.765
247.765
247.765
247.765
247.766
247.766
247.766
247.766
247.766
247.767
247.767
247.767
247.767
247.768
247.768
247.768
247.768
247.768
247.769
247.769
247.769
247.769
247.769
247.77
247.77
247.77
247.77
247.771
247.771
247.771
247.771
247.772
247.772
247.772
247.772
247.772
247.773
247.773
247.773
247.773
247.774
247.774
247.774
247.774
247.775
247.775
247.775
247.775
247.776
247.776
247.776
247.776
247.777
247.777
247.777
247.777
247.778
247.778
247.778
247.778
247.779
247.779
247.779
247.78
247.78
247.78
247.78
247.781
247.781
247.781
247.782
247.782
247.782
247.782
247.783
247.783
247.783
247.784
247.784
247.784
247.784
247.785
247.785
247.785
247.786
247.786
247.786
247.787
247.787
247.787
247.787
247.788
247.788
247.789
247.789
247.789
247.789
247.79
247.79
247.791
247.791
247.791
247.791
247.792
247.792
247.793
247.793
247.793
247.793
247.794
247.794
247.795
247.795
247.795
247.796
247.796
247.796
247.797
247.797
247.798
247.798
247.798
247.799
247.799
247.799
247.8
247.8
247.801
247.801
247.802
247.802
247.802
247.803
247.803
247.803
247.804
247.804
247.805
247.805
247.806
247.806
247.807
247.807
247.807
247.808
247.808
247.809
247.809
247.809
247.81
247.81
247.811
247.811
247.812
247.812
247.813
247.813
247.814
247.814
247.815
247.815
247.816
247.816
247.817
247.817
247.818
247.818
247.819
247.819
247.82
247.821
247.822
247.822
247.823
247.824
247.825
247.826
247.827
247.828
247.83
247.831
247.833
247.834
247.836
247.838
247.841
247.843
247.847
247.85
247.855
247.858
247.864
247.868
247.875
247.88
247.889
247.896
247.905
247.913
247.925
247.935
247.947
247.959
247.973
247.987
248.002
248.017
248.035
248.051
248.07
248.087
248.107
248.125
248.145
248.164
248.185
248.204
248.224
248.243
248.263
248.281
248.3
248.317
248.335
248.351
248.367
248.382
248.396
248.409
248.422
248.433
248.445
248.454
248.464
248.472
248.48
248.487
248.494
248.499
248.505
248.51
248.514
248.518
248.521
248.525
248.528
248.53
248.533
248.535
248.537
248.539
248.541
248.543
248.544
248.546
248.548
248.549
248.551
248.552
248.554
248.555
248.557
248.558
248.559
248.56
248.562
248.563
248.564
248.565
248.565
248.566
248.567
248.567
248.567
248.567
248.567
248.567
248.567
248.567
248.566
248.566
248.566
248.565
248.565
248.565
248.565
248.566
248.566
248.567
248.568
248.568
248.57
248.571
248.573
248.574
248.577
)
;

boundaryField
{
    sides
    {
        type            zeroGradient;
    }
    empty
    {
        type            empty;
    }
}


// ************************************************************************* //
