/*--------------------------------*- C++ -*----------------------------------*\
| =========                 |                                                 |
| \\      /  F ield         | OpenFOAM: The Open Source CFD Toolbox           |
|  \\    /   O peration     | Version:  3.0.0                                 |
|   \\  /    A nd           | Web:      www.OpenFOAM.org                      |
|    \\/     M anipulation  |                                                 |
\*---------------------------------------------------------------------------*/
FoamFile
{
    version     2.0;
    format      ascii;
    class       volVectorField;
    location    "0.022";
    object      U;
}
// * * * * * * * * * * * * * * * * * * * * * * * * * * * * * * * * * * * * * //

dimensions      [0 1 -1 0 0 0 0];

internalField   nonuniform List<vector> 
1000
(
(8.18261 0 0)
(9.04645 0 0)
(9.76712 0 0)
(10.3767 0 0)
(10.9816 0 0)
(11.6053 0 0)
(12.2352 0 0)
(12.8631 0 0)
(13.4891 0 0)
(14.115 0 0)
(14.7412 0 0)
(15.3676 0 0)
(15.994 0 0)
(16.6204 0 0)
(17.2469 0 0)
(17.8735 0 0)
(18.5003 0 0)
(19.1271 0 0)
(19.754 0 0)
(20.3809 0 0)
(21.008 0 0)
(21.6352 0 0)
(22.2624 0 0)
(22.8898 0 0)
(23.5172 0 0)
(24.1448 0 0)
(24.7724 0 0)
(25.4001 0 0)
(26.0279 0 0)
(26.6558 0 0)
(27.2837 0 0)
(27.9118 0 0)
(28.54 0 0)
(29.1682 0 0)
(29.7965 0 0)
(30.425 0 0)
(31.0535 0 0)
(31.6821 0 0)
(32.3108 0 0)
(32.9395 0 0)
(33.5684 0 0)
(34.1973 0 0)
(34.8264 0 0)
(35.4555 0 0)
(36.0847 0 0)
(36.714 0 0)
(37.3434 0 0)
(37.9729 0 0)
(38.6024 0 0)
(39.2321 0 0)
(39.8618 0 0)
(40.4916 0 0)
(41.1215 0 0)
(41.7515 0 0)
(42.3815 0 0)
(43.0117 0 0)
(43.6419 0 0)
(44.2722 0 0)
(44.9026 0 0)
(45.5331 0 0)
(46.1637 0 0)
(46.7944 0 0)
(47.4251 0 0)
(48.0559 0 0)
(48.6868 0 0)
(49.3178 0 0)
(49.9488 0 0)
(50.58 0 0)
(51.2112 0 0)
(51.8425 0 0)
(52.4739 0 0)
(53.1054 0 0)
(53.7369 0 0)
(54.3685 0 0)
(55.0003 0 0)
(55.632 0 0)
(56.2639 0 0)
(56.8958 0 0)
(57.5279 0 0)
(58.16 0 0)
(58.7921 0 0)
(59.4244 0 0)
(60.0567 0 0)
(60.6892 0 0)
(61.3216 0 0)
(61.9542 0 0)
(62.5869 0 0)
(63.2196 0 0)
(63.8524 0 0)
(64.4853 0 0)
(65.1182 0 0)
(65.7513 0 0)
(66.3844 0 0)
(67.0175 0 0)
(67.6508 0 0)
(68.2841 0 0)
(68.9176 0 0)
(69.551 0 0)
(70.1846 0 0)
(70.8182 0 0)
(71.4519 0 0)
(72.0857 0 0)
(72.7195 0 0)
(73.3534 0 0)
(73.9874 0 0)
(74.6214 0 0)
(75.2556 0 0)
(75.8897 0 0)
(76.524 0 0)
(77.1583 0 0)
(77.7926 0 0)
(78.4271 0 0)
(79.0616 0 0)
(79.6961 0 0)
(80.3308 0 0)
(80.9655 0 0)
(81.6002 0 0)
(82.2351 0 0)
(82.87 0 0)
(83.505 0 0)
(84.14 0 0)
(84.7752 0 0)
(85.4104 0 0)
(86.0456 0 0)
(86.681 0 0)
(87.3164 0 0)
(87.9519 0 0)
(88.5875 0 0)
(89.2231 0 0)
(89.8588 0 0)
(90.4945 0 0)
(91.1303 0 0)
(91.7662 0 0)
(92.4022 0 0)
(93.0382 0 0)
(93.6742 0 0)
(94.3104 0 0)
(94.9465 0 0)
(95.5828 0 0)
(96.2191 0 0)
(96.8554 0 0)
(97.4919 0 0)
(98.1283 0 0)
(98.7649 0 0)
(99.4015 0 0)
(100.038 0 0)
(100.675 0 0)
(101.312 0 0)
(101.948 0 0)
(102.585 0 0)
(103.222 0 0)
(103.859 0 0)
(104.496 0 0)
(105.133 0 0)
(105.771 0 0)
(106.408 0 0)
(107.045 0 0)
(107.682 0 0)
(108.32 0 0)
(108.957 0 0)
(109.595 0 0)
(110.232 0 0)
(110.87 0 0)
(111.508 0 0)
(112.145 0 0)
(112.783 0 0)
(113.421 0 0)
(114.059 0 0)
(114.697 0 0)
(115.335 0 0)
(115.973 0 0)
(116.611 0 0)
(117.249 0 0)
(117.887 0 0)
(118.525 0 0)
(119.163 0 0)
(119.802 0 0)
(120.44 0 0)
(121.078 0 0)
(121.717 0 0)
(122.355 0 0)
(122.994 0 0)
(123.632 0 0)
(124.271 0 0)
(124.909 0 0)
(125.548 0 0)
(126.187 0 0)
(126.826 0 0)
(127.464 0 0)
(128.103 0 0)
(128.742 0 0)
(129.381 0 0)
(130.02 0 0)
(130.659 0 0)
(131.298 0 0)
(131.937 0 0)
(132.576 0 0)
(133.215 0 0)
(133.854 0 0)
(134.494 0 0)
(135.133 0 0)
(135.772 0 0)
(136.411 0 0)
(137.051 0 0)
(137.69 0 0)
(138.329 0 0)
(138.969 0 0)
(139.608 0 0)
(140.248 0 0)
(140.887 0 0)
(141.527 0 0)
(142.166 0 0)
(142.806 0 0)
(143.445 0 0)
(144.085 0 0)
(144.725 0 0)
(145.364 0 0)
(146.004 0 0)
(146.644 0 0)
(147.283 0 0)
(147.923 0 0)
(148.563 0 0)
(149.203 0 0)
(149.843 0 0)
(150.482 0 0)
(151.122 0 0)
(151.762 0 0)
(152.402 0 0)
(153.042 0 0)
(153.681 0 0)
(154.321 0 0)
(154.961 0 0)
(155.601 0 0)
(156.241 0 0)
(156.881 0 0)
(157.521 0 0)
(158.161 0 0)
(158.801 0 0)
(159.44 0 0)
(160.08 0 0)
(160.72 0 0)
(161.36 0 0)
(162 0 0)
(162.64 0 0)
(163.28 0 0)
(163.92 0 0)
(164.559 0 0)
(165.199 0 0)
(165.839 0 0)
(166.479 0 0)
(167.119 0 0)
(167.758 0 0)
(168.398 0 0)
(169.038 0 0)
(169.678 0 0)
(170.317 0 0)
(170.957 0 0)
(171.597 0 0)
(172.236 0 0)
(172.876 0 0)
(173.515 0 0)
(174.155 0 0)
(174.794 0 0)
(175.434 0 0)
(176.073 0 0)
(176.713 0 0)
(177.352 0 0)
(177.991 0 0)
(178.631 0 0)
(179.27 0 0)
(179.909 0 0)
(180.548 0 0)
(181.187 0 0)
(181.826 0 0)
(182.465 0 0)
(183.104 0 0)
(183.743 0 0)
(184.381 0 0)
(185.02 0 0)
(185.659 0 0)
(186.297 0 0)
(186.936 0 0)
(187.574 0 0)
(188.212 0 0)
(188.851 0 0)
(189.489 0 0)
(190.127 0 0)
(190.765 0 0)
(191.403 0 0)
(192.04 0 0)
(192.678 0 0)
(193.316 0 0)
(193.953 0 0)
(194.59 0 0)
(195.228 0 0)
(195.865 0 0)
(196.502 0 0)
(197.139 0 0)
(197.775 0 0)
(198.412 0 0)
(199.049 0 0)
(199.685 0 0)
(200.321 0 0)
(200.957 0 0)
(201.593 0 0)
(202.229 0 0)
(202.865 0 0)
(203.5 0 0)
(204.135 0 0)
(204.77 0 0)
(205.405 0 0)
(206.04 0 0)
(206.675 0 0)
(207.309 0 0)
(207.943 0 0)
(208.577 0 0)
(209.211 0 0)
(209.845 0 0)
(210.478 0 0)
(211.111 0 0)
(211.744 0 0)
(212.377 0 0)
(213.009 0 0)
(213.642 0 0)
(214.274 0 0)
(214.905 0 0)
(215.537 0 0)
(216.168 0 0)
(216.799 0 0)
(217.429 0 0)
(218.06 0 0)
(218.69 0 0)
(219.319 0 0)
(219.949 0 0)
(220.578 0 0)
(221.207 0 0)
(221.835 0 0)
(222.463 0 0)
(223.091 0 0)
(223.718 0 0)
(224.345 0 0)
(224.972 0 0)
(225.598 0 0)
(226.223 0 0)
(226.849 0 0)
(227.474 0 0)
(228.098 0 0)
(228.722 0 0)
(229.345 0 0)
(229.969 0 0)
(230.591 0 0)
(231.213 0 0)
(231.835 0 0)
(232.456 0 0)
(233.076 0 0)
(233.696 0 0)
(234.315 0 0)
(234.934 0 0)
(235.552 0 0)
(236.169 0 0)
(236.786 0 0)
(237.402 0 0)
(238.018 0 0)
(238.632 0 0)
(239.246 0 0)
(239.859 0 0)
(240.472 0 0)
(241.084 0 0)
(241.695 0 0)
(242.305 0 0)
(242.914 0 0)
(243.522 0 0)
(244.129 0 0)
(244.736 0 0)
(245.341 0 0)
(245.946 0 0)
(246.549 0 0)
(247.152 0 0)
(247.753 0 0)
(248.354 0 0)
(248.953 0 0)
(249.551 0 0)
(250.147 0 0)
(250.743 0 0)
(251.337 0 0)
(251.93 0 0)
(252.521 0 0)
(253.112 0 0)
(253.7 0 0)
(254.287 0 0)
(254.873 0 0)
(255.457 0 0)
(256.04 0 0)
(256.62 0 0)
(257.2 0 0)
(257.777 0 0)
(258.352 0 0)
(258.926 0 0)
(259.498 0 0)
(260.067 0 0)
(260.635 0 0)
(261.2 0 0)
(261.764 0 0)
(262.325 0 0)
(262.884 0 0)
(263.44 0 0)
(263.994 0 0)
(264.545 0 0)
(265.094 0 0)
(265.641 0 0)
(266.184 0 0)
(266.725 0 0)
(267.262 0 0)
(267.797 0 0)
(268.329 0 0)
(268.858 0 0)
(269.383 0 0)
(269.905 0 0)
(270.424 0 0)
(270.939 0 0)
(271.45 0 0)
(271.958 0 0)
(272.462 0 0)
(272.962 0 0)
(273.458 0 0)
(273.95 0 0)
(274.437 0 0)
(274.921 0 0)
(275.4 0 0)
(275.874 0 0)
(276.344 0 0)
(276.809 0 0)
(277.269 0 0)
(277.724 0 0)
(278.174 0 0)
(278.618 0 0)
(279.058 0 0)
(279.492 0 0)
(279.92 0 0)
(280.342 0 0)
(280.759 0 0)
(281.17 0 0)
(281.574 0 0)
(281.973 0 0)
(282.365 0 0)
(282.751 0 0)
(283.13 0 0)
(283.502 0 0)
(283.868 0 0)
(284.227 0 0)
(284.579 0 0)
(284.923 0 0)
(285.261 0 0)
(285.591 0 0)
(285.914 0 0)
(286.23 0 0)
(286.537 0 0)
(286.838 0 0)
(287.13 0 0)
(287.415 0 0)
(287.692 0 0)
(287.961 0 0)
(288.223 0 0)
(288.476 0 0)
(288.721 0 0)
(288.959 0 0)
(289.188 0 0)
(289.41 0 0)
(289.623 0 0)
(289.829 0 0)
(290.027 0 0)
(290.217 0 0)
(290.399 0 0)
(290.573 0 0)
(290.74 0 0)
(290.9 0 0)
(291.052 0 0)
(291.197 0 0)
(291.334 0 0)
(291.465 0 0)
(291.589 0 0)
(291.706 0 0)
(291.817 0 0)
(291.921 0 0)
(292.019 0 0)
(292.112 0 0)
(292.198 0 0)
(292.279 0 0)
(292.355 0 0)
(292.426 0 0)
(292.492 0 0)
(292.553 0 0)
(292.61 0 0)
(292.663 0 0)
(292.711 0 0)
(292.756 0 0)
(292.798 0 0)
(292.836 0 0)
(292.871 0 0)
(292.903 0 0)
(292.932 0 0)
(292.958 0 0)
(292.983 0 0)
(293.005 0 0)
(293.025 0 0)
(293.043 0 0)
(293.06 0 0)
(293.075 0 0)
(293.088 0 0)
(293.1 0 0)
(293.111 0 0)
(293.121 0 0)
(293.13 0 0)
(293.138 0 0)
(293.145 0 0)
(293.151 0 0)
(293.157 0 0)
(293.162 0 0)
(293.166 0 0)
(293.17 0 0)
(293.174 0 0)
(293.177 0 0)
(293.18 0 0)
(293.182 0 0)
(293.184 0 0)
(293.186 0 0)
(293.188 0 0)
(293.19 0 0)
(293.191 0 0)
(293.192 0 0)
(293.193 0 0)
(293.194 0 0)
(293.195 0 0)
(293.196 0 0)
(293.196 0 0)
(293.197 0 0)
(293.197 0 0)
(293.198 0 0)
(293.198 0 0)
(293.199 0 0)
(293.199 0 0)
(293.199 0 0)
(293.2 0 0)
(293.2 0 0)
(293.2 0 0)
(293.2 0 0)
(293.2 0 0)
(293.201 0 0)
(293.201 0 0)
(293.201 0 0)
(293.201 0 0)
(293.201 0 0)
(293.201 0 0)
(293.201 0 0)
(293.202 0 0)
(293.202 0 0)
(293.202 0 0)
(293.202 0 0)
(293.202 0 0)
(293.202 0 0)
(293.202 0 0)
(293.202 0 0)
(293.202 0 0)
(293.202 0 0)
(293.202 0 0)
(293.202 0 0)
(293.202 0 0)
(293.202 0 0)
(293.202 0 0)
(293.203 0 0)
(293.203 0 0)
(293.203 0 0)
(293.203 0 0)
(293.203 0 0)
(293.203 0 0)
(293.203 0 0)
(293.203 0 0)
(293.203 0 0)
(293.203 0 0)
(293.203 0 0)
(293.203 0 0)
(293.203 0 0)
(293.203 0 0)
(293.203 0 0)
(293.203 0 0)
(293.203 0 0)
(293.203 0 0)
(293.203 0 0)
(293.203 0 0)
(293.203 0 0)
(293.203 0 0)
(293.203 0 0)
(293.203 0 0)
(293.203 0 0)
(293.203 0 0)
(293.203 0 0)
(293.203 0 0)
(293.203 0 0)
(293.203 0 0)
(293.203 0 0)
(293.203 0 0)
(293.203 0 0)
(293.203 0 0)
(293.203 0 0)
(293.203 0 0)
(293.203 0 0)
(293.203 0 0)
(293.203 0 0)
(293.203 0 0)
(293.203 0 0)
(293.203 0 0)
(293.203 0 0)
(293.203 0 0)
(293.203 0 0)
(293.204 0 0)
(293.204 0 0)
(293.204 0 0)
(293.204 0 0)
(293.204 0 0)
(293.204 0 0)
(293.204 0 0)
(293.204 0 0)
(293.204 0 0)
(293.204 0 0)
(293.204 0 0)
(293.204 0 0)
(293.204 0 0)
(293.204 0 0)
(293.204 0 0)
(293.204 0 0)
(293.204 0 0)
(293.204 0 0)
(293.204 0 0)
(293.204 0 0)
(293.204 0 0)
(293.204 0 0)
(293.204 0 0)
(293.204 0 0)
(293.204 0 0)
(293.204 0 0)
(293.204 0 0)
(293.204 0 0)
(293.204 0 0)
(293.204 0 0)
(293.204 0 0)
(293.204 0 0)
(293.204 0 0)
(293.204 0 0)
(293.204 0 0)
(293.204 0 0)
(293.204 0 0)
(293.204 0 0)
(293.204 0 0)
(293.204 0 0)
(293.204 0 0)
(293.204 0 0)
(293.204 0 0)
(293.204 0 0)
(293.204 0 0)
(293.204 0 0)
(293.204 0 0)
(293.204 0 0)
(293.204 0 0)
(293.204 0 0)
(293.204 0 0)
(293.204 0 0)
(293.204 0 0)
(293.204 0 0)
(293.205 0 0)
(293.205 0 0)
(293.205 0 0)
(293.205 0 0)
(293.205 0 0)
(293.205 0 0)
(293.205 0 0)
(293.205 0 0)
(293.205 0 0)
(293.205 0 0)
(293.205 0 0)
(293.205 0 0)
(293.205 0 0)
(293.205 0 0)
(293.205 0 0)
(293.205 0 0)
(293.205 0 0)
(293.205 0 0)
(293.205 0 0)
(293.205 0 0)
(293.205 0 0)
(293.205 0 0)
(293.205 0 0)
(293.205 0 0)
(293.205 0 0)
(293.205 0 0)
(293.205 0 0)
(293.205 0 0)
(293.205 0 0)
(293.205 0 0)
(293.205 0 0)
(293.205 0 0)
(293.205 0 0)
(293.205 0 0)
(293.205 0 0)
(293.205 0 0)
(293.205 0 0)
(293.205 0 0)
(293.205 0 0)
(293.205 0 0)
(293.205 0 0)
(293.205 0 0)
(293.205 0 0)
(293.205 0 0)
(293.205 0 0)
(293.205 0 0)
(293.205 0 0)
(293.205 0 0)
(293.205 0 0)
(293.205 0 0)
(293.205 0 0)
(293.205 0 0)
(293.205 0 0)
(293.205 0 0)
(293.205 0 0)
(293.205 0 0)
(293.205 0 0)
(293.205 0 0)
(293.205 0 0)
(293.205 0 0)
(293.205 0 0)
(293.205 0 0)
(293.205 0 0)
(293.205 0 0)
(293.205 0 0)
(293.205 0 0)
(293.205 0 0)
(293.205 0 0)
(293.205 0 0)
(293.205 0 0)
(293.205 0 0)
(293.205 0 0)
(293.205 0 0)
(293.205 0 0)
(293.205 0 0)
(293.205 0 0)
(293.205 0 0)
(293.205 0 0)
(293.205 0 0)
(293.205 0 0)
(293.205 0 0)
(293.205 0 0)
(293.205 0 0)
(293.205 0 0)
(293.205 0 0)
(293.205 0 0)
(293.205 0 0)
(293.205 0 0)
(293.205 0 0)
(293.205 0 0)
(293.205 0 0)
(293.205 0 0)
(293.205 0 0)
(293.205 0 0)
(293.205 0 0)
(293.205 0 0)
(293.205 0 0)
(293.205 0 0)
(293.205 0 0)
(293.205 0 0)
(293.205 0 0)
(293.206 0 0)
(293.206 0 0)
(293.206 0 0)
(293.206 0 0)
(293.206 0 0)
(293.206 0 0)
(293.206 0 0)
(293.206 0 0)
(293.206 0 0)
(293.206 0 0)
(293.206 0 0)
(293.206 0 0)
(293.206 0 0)
(293.206 0 0)
(293.206 0 0)
(293.206 0 0)
(293.206 0 0)
(293.206 0 0)
(293.206 0 0)
(293.206 0 0)
(293.206 0 0)
(293.206 0 0)
(293.206 0 0)
(293.206 0 0)
(293.206 0 0)
(293.206 0 0)
(293.206 0 0)
(293.206 0 0)
(293.206 0 0)
(293.206 0 0)
(293.206 0 0)
(293.206 0 0)
(293.206 0 0)
(293.206 0 0)
(293.206 0 0)
(293.206 0 0)
(293.206 0 0)
(293.206 0 0)
(293.206 0 0)
(293.206 0 0)
(293.206 0 0)
(293.206 0 0)
(293.206 0 0)
(293.206 0 0)
(293.206 0 0)
(293.206 0 0)
(293.206 0 0)
(293.206 0 0)
(293.206 0 0)
(293.206 0 0)
(293.206 0 0)
(293.206 0 0)
(293.206 0 0)
(293.206 0 0)
(293.206 0 0)
(293.206 0 0)
(293.206 0 0)
(293.206 0 0)
(293.206 0 0)
(293.206 0 0)
(293.206 0 0)
(293.206 0 0)
(293.206 0 0)
(293.206 0 0)
(293.206 0 0)
(293.206 0 0)
(293.206 0 0)
(293.206 0 0)
(293.206 0 0)
(293.206 0 0)
(293.206 0 0)
(293.206 0 0)
(293.206 0 0)
(293.206 0 0)
(293.206 0 0)
(293.206 0 0)
(293.206 0 0)
(293.206 0 0)
(293.206 0 0)
(293.206 0 0)
(293.206 0 0)
(293.206 0 0)
(293.206 0 0)
(293.206 0 0)
(293.206 0 0)
(293.206 0 0)
(293.206 0 0)
(293.206 0 0)
(293.206 0 0)
(293.206 0 0)
(293.206 0 0)
(293.206 0 0)
(293.206 0 0)
(293.206 0 0)
(293.206 0 0)
(293.206 0 0)
(293.206 0 0)
(293.206 0 0)
(293.205 0 0)
(293.205 0 0)
(293.205 0 0)
(293.205 0 0)
(293.205 0 0)
(293.205 0 0)
(293.205 0 0)
(293.204 0 0)
(293.204 0 0)
(293.203 0 0)
(293.202 0 0)
(293.201 0 0)
(293.2 0 0)
(293.199 0 0)
(293.198 0 0)
(293.196 0 0)
(293.193 0 0)
(293.191 0 0)
(293.188 0 0)
(293.184 0 0)
(293.18 0 0)
(293.175 0 0)
(293.169 0 0)
(293.163 0 0)
(293.155 0 0)
(293.146 0 0)
(293.136 0 0)
(293.125 0 0)
(293.112 0 0)
(293.097 0 0)
(293.081 0 0)
(293.063 0 0)
(293.043 0 0)
(293.02 0 0)
(292.996 0 0)
(292.969 0 0)
(292.939 0 0)
(292.907 0 0)
(292.873 0 0)
(292.836 0 0)
(292.796 0 0)
(292.754 0 0)
(292.709 0 0)
(292.662 0 0)
(292.612 0 0)
(292.561 0 0)
(292.507 0 0)
(292.452 0 0)
(292.395 0 0)
(292.337 0 0)
(292.277 0 0)
(292.218 0 0)
(292.157 0 0)
(292.097 0 0)
(292.037 0 0)
(291.977 0 0)
(291.918 0 0)
(291.861 0 0)
(291.805 0 0)
(291.75 0 0)
(291.698 0 0)
(291.647 0 0)
(291.599 0 0)
(291.553 0 0)
(291.51 0 0)
(291.47 0 0)
(291.432 0 0)
(291.397 0 0)
(291.364 0 0)
(291.335 0 0)
(291.307 0 0)
(291.282 0 0)
(291.26 0 0)
(291.24 0 0)
(291.222 0 0)
(291.205 0 0)
(291.191 0 0)
(291.179 0 0)
(291.167 0 0)
(291.158 0 0)
(291.149 0 0)
(291.142 0 0)
(291.136 0 0)
(291.13 0 0)
(291.126 0 0)
(291.122 0 0)
(291.118 0 0)
(291.115 0 0)
(291.112 0 0)
(291.11 0 0)
(291.108 0 0)
(291.106 0 0)
(291.105 0 0)
(291.103 0 0)
(291.102 0 0)
(291.101 0 0)
(291.1 0 0)
(291.099 0 0)
(291.099 0 0)
(291.098 0 0)
(291.098 0 0)
(291.098 0 0)
(291.098 0 0)
(291.098 0 0)
(291.099 0 0)
(291.1 0 0)
(291.102 0 0)
(291.104 0 0)
(291.106 0 0)
(291.109 0 0)
(291.113 0 0)
(291.117 0 0)
(291.122 0 0)
(291.126 0 0)
(291.132 0 0)
(291.137 0 0)
(291.143 0 0)
(291.149 0 0)
(291.154 0 0)
(291.16 0 0)
(291.165 0 0)
(291.171 0 0)
(291.175 0 0)
(291.18 0 0)
(291.184 0 0)
(291.187 0 0)
(291.19 0 0)
(291.192 0 0)
(291.194 0 0)
(291.196 0 0)
(291.197 0 0)
(291.197 0 0)
(291.198 0 0)
)
;

boundaryField
{
    sides
    {
        type            zeroGradient;
    }
    empty
    {
        type            empty;
    }
}


// ************************************************************************* //
