# vtk DataFile Version 2.0
sampleSurface
ASCII
DATASET POLYDATA
POINTS 11753 float
0 0 0
-0.0833333 0 0.0833333
0.0833333 0 0.0833333
-0.166667 0 0
-7.40149e-17 0 0.166667
0.166667 0 0
-0.166667 0 0.166667
0.166667 0 0.166667
-0.25 0 0.0833333
0.25 0 0.0833333
-0.0833333 0 0.25
0.0833333 0 0.25
-0.333333 0 0
0.333333 0 0
7.40149e-17 0 0.333333
0.25 0 0.25
-0.25 0 0.25
-0.333333 0 0.166667
0.333333 0 0.166667
-0.166667 0 0.333333
0.166667 0 0.333333
-0.416667 6.93889e-18 0.0833333
-0.0833333 0 0.416667
0.0833333 0 0.416667
0.416667 0 0.0833333
-0.333333 0 0.333333
0.333333 0 0.333333
-0.416667 6.93889e-18 0.25
-0.25 0 0.416667
0.25 0 0.416667
0.416667 0 0.25
-0.5 0 0
0.5 0 0
0 0 0.5
-0.5 9.25186e-18 0.166667
0.5 0 0.166667
-0.166667 0 0.5
0.166667 0 0.5
-0.416667 0 0.416667
0.416667 6.93889e-18 0.416667
-0.583333 6.93889e-18 0.0833333
0.583333 -1.38778e-17 0.0833333
0.0833333 0 0.583333
-0.0833333 0 0.583333
-0.5 0 0.333333
0.5 0 0.333333
-0.333333 0 0.5
0.333333 0 0.5
-0.583333 1.38778e-17 0.25
0.583333 -6.93889e-18 0.25
-0.25 6.93889e-18 0.583333
0.25 6.93889e-18 0.583333
-0.666667 0 0
0.666667 0 0
-7.40149e-17 0 0.666667
0.666667 -2.62935e-36 0.166667
-0.166667 0 0.666667
0.166667 0 0.666667
-0.666667 0 0.166667
-0.5 0 0.5
0.5 0 0.5
0.583333 0 0.416667
-0.416667 0 0.583333
-0.583333 0 0.416667
0.416667 0 0.583333
-0.666667 0 0.333333
0.666667 0 0.333333
-0.333333 0 0.666667
0.333333 0 0.666667
-0.75 0 0.0833333
0.75 -6.93889e-18 0.0833333
-0.0833333 6.93889e-18 0.75
0.0833333 0 0.75
-0.25 6.93889e-18 0.75
-0.75 6.93889e-18 0.25
0.75 0 0.25
0.25 -6.93889e-18 0.75
-0.583333 0 0.583333
0.583333 0 0.583333
-0.833333 0 0
0.833333 0 0
7.40149e-17 0 0.833333
-0.666667 0 0.5
0.666667 0 0.5
-0.5 0 0.666667
0.5 0 0.666667
-0.166667 9.25186e-18 0.833333
-0.833333 0 0.166667
0.833333 0 0.166667
0.166667 0 0.833333
-0.416667 0 0.75
0.416667 0 0.75
-0.75 6.93889e-18 0.416667
0.75 0 0.416667
-0.833333 9.25186e-18 0.333333
0.833333 0 0.333333
-0.333333 0 0.833333
0.333333 0 0.833333
-0.0833333 6.93889e-18 0.916667
0.916667 0 0.0833333
-0.916667 0 0.0833333
0.0833333 0 0.916667
-0.666667 0 0.666667
0.666667 0 0.666667
-0.25 6.93889e-18 0.916667
0.25 -6.93889e-18 0.916667
-0.916667 1.38778e-17 0.25
0.916667 6.93889e-18 0.25
0.583333 6.93889e-18 0.75
-0.75 0 0.583333
-0.583333 0 0.75
0.75 0 0.583333
0.5 9.25186e-18 0.833333
-0.833333 0 0.5
0.833333 0 0.5
-0.5 0 0.833333
-1 0 0
1 0 0
0 0 1
-0.916667 6.93889e-18 0.416667
-0.416667 0 0.916667
0.916667 0 0.416667
0.416667 0 0.916667
-1 0 0.166667
1 0 0.166667
-0.166667 0 1
0.166667 0 1
-1 0 0.333333
1 0 0.333333
-0.333333 0 1
0.333333 0 1
-0.75 1.15648e-17 0.75
0.75 0 0.75
-0.833333 4.10602e-33 0.666667
0.833333 0 0.666667
-0.666667 0 0.833333
0.666667 0 0.833333
-0.916667 0 0.583333
0.916667 0 0.583333
-0.583333 0 0.916667
0.583333 6.93889e-18 0.916667
-1.08333 -6.93889e-18 0.0833333
1.08333 0 0.0833333
-0.0833333 0 1.08333
0.0833333 0 1.08333
-1.08333 -6.93889e-18 0.25
-0.25 6.93889e-18 1.08333
0.25 0 1.08333
1.08333 0 0.25
-1 0 0.5
1 0 0.5
-0.5 0 1
0.5 0 1
-0.416667 0 1.08333
-1.08333 0 0.416667
1.08333 -6.93889e-18 0.416667
0.416667 0 1.08333
-1.16667 0 0
1.16667 0 0
0 0 1.16667
-0.833333 0 0.833333
0.833333 0 0.833333
-1.16667 4.10602e-33 0.166667
-0.166667 9.25186e-18 1.16667
1.16667 0 0.166667
0.166667 0 1.16667
-0.916667 0 0.75
0.916667 0 0.75
-0.75 0 0.916667
0.75 0 0.916667
-1 0 0.666667
1 0 0.666667
-0.666667 0 1
0.666667 0 1
-0.333333 0 1.16667
0.333333 0 1.16667
-1.16667 0 0.333333
1.16667 0 0.333333
1.08333 6.93889e-18 0.583333
-0.583333 0 1.08333
0.583333 0 1.08333
-1.08333 0 0.583333
0.0833333 0 1.25
-1.25 -1.38778e-17 0.0833333
1.25 0 0.0833333
-0.0833333 -4.62593e-18 1.25
-1.16667 0 0.5
1.16667 0 0.5
-0.5 0 1.16667
0.5 0 1.16667
-1.25 -6.93889e-18 0.25
1.25 6.93889e-18 0.25
-0.25 6.93889e-18 1.25
0.25 0 1.25
-0.916667 6.93889e-18 0.916667
0.916667 0 0.916667
-1 0 0.833333
1 0 0.833333
-0.833333 0 1
0.833333 0 1
0.416667 0 1.25
-1.25 0 0.416667
1.25 0 0.416667
-0.416667 0 1.25
-0.75 0 1.08333
0.75 0 1.08333
1.08333 0 0.75
-1.08333 0 0.75
-1.33333 0 0
1.33333 0 0
0 0 1.33333
-1.33333 0 0.166667
1.33333 0 0.166667
-0.166667 0 1.33333
0.166667 0 1.33333
-1.16667 0 0.666667
1.16667 0 0.666667
-0.666667 0 1.16667
0.666667 0 1.16667
-0.333333 0 1.33333
0.333333 0 1.33333
-1.33333 0 0.333333
1.33333 0 0.333333
-1.25 0 0.583333
-0.583333 0 1.25
0.583333 0 1.25
1.25 0 0.583333
-1 0 1
1 0 1
-1.41667 6.93889e-18 0.0833333
1.41667 0 0.0833333
-0.0833333 0 1.41667
0.0833333 0 1.41667
-1.08333 0 0.916667
1.08333 0 0.916667
-0.916667 0 1.08333
0.916667 0 1.08333
-1.33333 0 0.5
1.33333 0 0.5
-0.5 0 1.33333
0.5 0 1.33333
-1.16667 0 0.833333
1.16667 0 0.833333
-0.833333 0 1.16667
0.833333 0 1.16667
-1.41667 6.93889e-18 0.25
1.41667 0 0.25
0.25 0 1.41667
-0.25 -6.93889e-18 1.41667
-0.75 0 1.25
0.75 6.93889e-18 1.25
-1.25 6.93889e-18 0.75
1.25 6.93889e-18 0.75
0.416667 0 1.41667
-1.41667 6.93889e-18 0.416667
-0.416667 0 1.41667
1.41667 0 0.416667
-1.33333 0 0.666667
1.33333 0 0.666667
-0.666667 0 1.33333
0.666667 0 1.33333
-1.5 0 0
1.5 0 0
0 0 1.5
-1.5 9.25186e-18 0.166667
1.5 0 0.166667
-0.166667 0 1.5
0.166667 0 1.5
1.41667 0 0.583333
0.583333 0 1.41667
-1.41667 0 0.583333
-0.583333 0 1.41667
-1.08333 -6.93889e-18 1.08333
1.08333 -6.93889e-18 1.08333
-1.5 9.25186e-18 0.333333
1.5 0 0.333333
-0.333333 0 1.5
0.333333 0 1.5
-1 0 1.16667
1 0 1.16667
-1.16667 0 1
1.16667 0 1
-0.916667 0 1.25
0.916667 1.38778e-17 1.25
-1.25 0 0.916667
1.25 0 0.916667
0.833333 9.25186e-18 1.33333
-1.33333 0 0.833333
1.33333 0 0.833333
-0.833333 0 1.33333
-1.5 0 0.5
1.5 0 0.5
-0.5 0 1.5
0.5 9.25186e-18 1.5
-1.58333 6.93889e-18 0.0833333
1.58333 0 0.0833333
-0.0833333 0 1.58333
0.0833333 0 1.58333
-0.75 0 1.41667
0.75 6.93889e-18 1.41667
-1.41667 -6.93889e-18 0.75
1.41667 6.93889e-18 0.75
-1.58333 -4.62593e-18 0.25
1.58333 0 0.25
-0.25 0 1.58333
0.25 0 1.58333
-1.58333 6.93889e-18 0.416667
-0.416667 6.93889e-18 1.58333
0.416667 6.93889e-18 1.58333
1.58333 0 0.416667
-1.5 0 0.666667
1.5 0 0.666667
-0.666667 0 1.5
0.666667 0 1.5
-1.16667 0 1.16667
1.16667 0 1.16667
1.25 6.93889e-18 1.08333
-1.25 0 1.08333
-1.08333 0 1.25
1.08333 -4.62593e-18 1.25
1 9.25186e-18 1.33333
-1.33333 0 1
1.33333 0 1
-1 0 1.33333
-1.66667 0 0
1.66667 0 0
0 0 1.66667
-1.66667 0 0.166667
1.66667 0 0.166667
-0.166667 0 1.66667
0.166667 0 1.66667
1.41667 6.93889e-18 0.916667
0.916667 6.93889e-18 1.41667
-1.41667 0 0.916667
-0.916667 0 1.41667
-0.583333 0 1.58333
-1.58333 0 0.583333
0.583333 -1.15648e-17 1.58333
1.58333 0 0.583333
-0.333333 9.25186e-18 1.66667
-1.66667 0 0.333333
1.66667 0 0.333333
0.333333 0 1.66667
1.5 9.25186e-18 0.833333
-1.5 0 0.833333
-0.833333 0 1.5
0.833333 0 1.5
0.5 9.25186e-18 1.66667
-1.66667 0 0.5
1.66667 0 0.5
-0.5 0 1.66667
0.0833333 -6.93889e-18 1.75
-1.75 0 0.0833333
1.75 0 0.0833333
-0.0833333 6.93889e-18 1.75
1.58333 6.93889e-18 0.75
-0.75 0 1.58333
-1.58333 1.38778e-17 0.75
0.75 0 1.58333
1.75 6.93889e-18 0.25
-1.75 -4.62593e-18 0.25
-1.25 6.93889e-18 1.25
1.25 -4.62593e-18 1.25
-0.25 0 1.75
0.25 0 1.75
-1.33333 9.25186e-18 1.16667
1.16667 9.25186e-18 1.33333
1.33333 0 1.16667
-1.16667 0 1.33333
-1.08333 -6.93889e-18 1.41667
-1.41667 0 1.08333
1.08333 2.31296e-18 1.41667
1.41667 0 1.08333
-1.66667 9.25186e-18 0.666667
1.66667 0 0.666667
-0.666667 0 1.66667
0.666667 0 1.66667
1.75 0 0.416667
-1.75 0 0.416667
0.416667 0 1.75
-0.416667 -4.62593e-18 1.75
-1.5 0 1
1.5 0 1
-1 0 1.5
1 0 1.5
1.58333 6.93889e-18 0.916667
-1.58333 0 0.916667
-0.916667 0 1.58333
0.916667 0 1.58333
-1.83333 0 0
1.83333 0 0
0 0 1.83333
-1.83333 0 0.166667
1.83333 0 0.166667
-0.166667 0 1.83333
0.166667 0 1.83333
0.583333 1.38778e-17 1.75
-1.75 1.38778e-17 0.583333
-0.583333 6.93889e-18 1.75
1.75 6.93889e-18 0.583333
-1.83333 9.25186e-18 0.333333
1.83333 0 0.333333
-0.333333 0 1.83333
0.333333 0 1.83333
-1.66667 0 0.833333
1.66667 0 0.833333
-0.833333 0 1.66667
0.833333 0 1.66667
-1.33333 0 1.33333
1.33333 9.25186e-18 1.33333
1.25 1.38778e-17 1.41667
-1.41667 6.93889e-18 1.25
1.41667 6.93889e-18 1.25
-1.25 6.93889e-18 1.41667
-1.83333 0 0.5
1.83333 0 0.5
-0.5 9.25186e-18 1.83333
0.5 0 1.83333
-1.5 0 1.16667
1.5 0 1.16667
-1.16667 0 1.5
1.16667 0 1.5
0.75 0 1.75
1.75 6.93889e-18 0.75
-1.75 -4.62593e-18 0.75
-0.75 0 1.75
-1.91667 -6.93889e-18 0.0833333
1.91667 1.15648e-17 0.0833333
-0.0833333 0 1.91667
0.0833333 0 1.91667
-1.08333 -6.93889e-18 1.58333
-1.58333 -6.93889e-18 1.08333
1.58333 0 1.08333
1.08333 0 1.58333
-1.91667 -6.93889e-18 0.25
1.91667 -6.93889e-18 0.25
-0.25 0 1.91667
0.25 0 1.91667
-1.66667 0 1
1.66667 0 1
-1 0 1.66667
1 0 1.66667
-1.83333 0 0.666667
1.83333 0 0.666667
-0.666667 0 1.83333
0.666667 0 1.83333
-0.416667 6.93889e-18 1.91667
-1.91667 6.93889e-18 0.416667
0.416667 0 1.91667
1.91667 0 0.416667
0.916667 0 1.75
-1.75 6.93889e-18 0.916667
1.75 1.38778e-17 0.916667
-0.916667 0 1.75
-2 0 0
2 0 0
0 0 2
1.41667 1.38778e-17 1.41667
-1.41667 0 1.41667
-1.91667 0 0.583333
-0.583333 0 1.91667
1.91667 0 0.583333
0.583333 0 1.91667
-1.5 0 1.33333
1.5 0 1.33333
-1.33333 0 1.5
1.33333 0 1.5
-2 -2.62935e-36 0.166667
2 -2.62935e-36 0.166667
-0.166667 0 2
0.166667 0 2
-1.83333 9.25186e-18 0.833333
1.83333 9.25186e-18 0.833333
-0.833333 9.25186e-18 1.83333
0.833333 0 1.83333
-1.58333 6.93889e-18 1.25
-1.25 0 1.58333
1.25 0 1.58333
1.58333 -6.93889e-18 1.25
-2 0 0.333333
2 0 0.333333
-0.333333 0 2
0.333333 0 2
-1.66667 0 1.16667
1.66667 0 1.16667
-1.16667 0 1.66667
1.16667 0 1.66667
0.75 0 1.91667
-1.91667 0 0.75
1.91667 6.93889e-18 0.75
-0.75 6.93889e-18 1.91667
-1.75 6.93889e-18 1.08333
1.75 6.93889e-18 1.08333
1.08333 0 1.75
-1.08333 0 1.75
-2 0 0.5
2 0 0.5
-0.5 0 2
0.5 0 2
2.08333 -6.93889e-18 0.0833333
-0.0833333 0 2.08333
-2.08333 4.62593e-18 0.0833333
0.0833333 0 2.08333
-1.83333 0 1
1.83333 0 1
-1 0 1.83333
1 0 1.83333
-2.08333 -6.93889e-18 0.25
2.08333 -6.93889e-18 0.25
-0.25 0 2.08333
0.25 6.93889e-18 2.08333
-2 0 0.666667
2 0 0.666667
-0.666667 0 2
0.666667 0 2
-1.5 0 1.5
1.5 9.25186e-18 1.5
[...]
POINT_DATA 11753
FIELD attributes 1
p 1 11753 float
4.86465e-12 4.8848e-12 4.8445e-12 4.91605e-12 4.87346e-12 4.82572e-12 4.91189e-12 4.84098e-12 4.9473e-12 4.80695e-12
4.8923e-12 4.87223e-12 4.96279e-12 4.79158e-12 4.86829e-12 4.84027e-12 4.92316e-12 4.96316e-12 4.81282e-12 4.8996e-12
4.85366e-12 4.97827e-12 4.85698e-12 4.85166e-12 4.77621e-12 4.96741e-12 4.84564e-12 5.0039e-12 4.92594e-12 4.85049e-12
4.82787e-12 5.01546e-12 4.80355e-12 4.85335e-12 5.02892e-12 4.80738e-12 4.88901e-12 4.85121e-12 5.01665e-12 4.86395e-12
5.05264e-12 4.83089e-12 4.86203e-12 4.84275e-12 5.02431e-12 4.83477e-12 4.97246e-12 4.84653e-12 5.08086e-12 4.79454e-12
4.93035e-12 4.84064e-12 5.05803e-12 4.85394e-12 4.86122e-12 4.83938e-12 4.9002e-12 4.83972e-12 5.06938e-12 5.00694e-12
4.84348e-12 4.8527e-12 5.01689e-12 4.99582e-12 4.83103e-12 5.03491e-12 4.83401e-12 4.96962e-12 4.82171e-12 5.06342e-12
4.877e-12 4.88376e-12 4.85633e-12 4.94395e-12 5.08063e-12 4.85508e-12 4.79989e-12 4.99838e-12 4.82625e-12 5.04665e-12
4.87437e-12 4.87579e-12 5.00407e-12 4.8279e-12 5.00472e-12 4.82859e-12 4.91212e-12 5.05433e-12 4.8532e-12 4.82263e-12
4.98729e-12 4.81526e-12 4.98234e-12 4.83369e-12 5.04195e-12 4.82267e-12 4.95275e-12 4.79032e-12 4.90716e-12 4.87174e-12
5.02989e-12 4.85591e-12 5.01958e-12 4.81196e-12 4.91362e-12 4.77838e-12 5.04337e-12 4.80896e-12 4.84182e-12 5.03975e-12
5.01632e-12 4.79896e-12 4.81277e-12 5.02989e-12 4.80094e-12 4.98089e-12 4.98348e-12 4.86168e-12 4.85118e-12 5.06148e-12
4.96614e-12 4.79296e-12 4.76774e-12 4.99858e-12 4.82844e-12 4.88847e-12 4.80153e-12 5.03331e-12 4.7831e-12 4.94801e-12
4.76283e-12 5.02385e-12 4.78079e-12 5.02432e-12 4.76723e-12 4.99492e-12 4.81138e-12 5.03599e-12 4.77817e-12 4.95381e-12
4.82624e-12 4.93708e-12 4.85162e-12 4.83239e-12 4.80926e-12 4.98398e-12 4.90072e-12 4.76256e-12 4.78145e-12 5.04208e-12
4.77083e-12 4.97447e-12 4.77147e-12 5.01156e-12 5.0444e-12 4.74905e-12 4.74262e-12 4.98659e-12 4.80137e-12 4.82808e-12
5.01126e-12 4.74557e-12 4.99332e-12 4.86715e-12 4.78232e-12 4.77978e-12 4.99769e-12 4.71099e-12 4.98572e-12 4.79665e-12
5.02133e-12 4.73355e-12 4.96843e-12 4.79099e-12 4.94342e-12 4.73252e-12 5.02359e-12 4.74778e-12 4.76315e-12 4.96639e-12
4.74928e-12 5.02645e-12 4.82905e-12 5.0361e-12 4.75113e-12 4.84164e-12 5.04009e-12 4.72532e-12 4.97769e-12 4.73975e-12
5.0161e-12 4.7451e-12 4.89384e-12 4.71828e-12 5.03777e-12 4.69384e-12 5.02989e-12 4.68074e-12 5.0025e-12 4.75805e-12
4.70662e-12 5.04988e-12 4.7155e-12 4.96755e-12 4.96782e-12 4.79178e-12 4.68188e-12 5.02519e-12 5.04468e-12 4.7207e-12
4.81995e-12 5.04799e-12 4.72181e-12 4.8586e-12 4.76302e-12 5.04372e-12 4.68939e-12 4.97633e-12 4.76765e-12 4.93048e-12
4.72185e-12 5.04835e-12 4.71501e-12 5.03962e-12 4.96526e-12 4.76049e-12 4.67357e-12 5.0512e-12 4.69028e-12 5.05325e-12
4.69027e-12 4.82702e-12 4.78209e-12 5.05891e-12 4.63625e-12 5.0187e-12 4.74991e-12 5.046e-12 4.68527e-12 4.98264e-12
4.74429e-12 5.06233e-12 4.64461e-12 5.01053e-12 4.75859e-12 5.08652e-12 4.70075e-12 4.72266e-12 4.87192e-12 5.00585e-12
4.76906e-12 5.0836e-12 4.63897e-12 4.73986e-12 5.04089e-12 4.98859e-12 4.6987e-12 5.06411e-12 4.65224e-12 4.99989e-12
4.76624e-12 5.04151e-12 4.67755e-12 4.79921e-12 5.06095e-12 4.67691e-12 4.85185e-12 4.74876e-12 4.6533e-12 4.77019e-12
5.05362e-12 5.00915e-12 5.08942e-12 4.68112e-12 5.07862e-12 4.67928e-12 4.91504e-12 4.73317e-12 5.06465e-12 4.69804e-12
5.07542e-12 4.64236e-12 5.04977e-12 4.7236e-12 5.08164e-12 4.62134e-12 4.74053e-12 5.08003e-12 4.62642e-12 5.02605e-12
5.07539e-12 4.66353e-12 4.9765e-12 4.74663e-12 5.02977e-12 4.66484e-12 4.828e-12 4.75973e-12 5.01931e-12 4.76523e-12
5.07961e-12 4.64311e-12 5.07424e-12 4.65178e-12 4.88048e-12 4.73055e-12 5.11282e-12 4.91918e-12 4.73963e-12 4.6659e-12
5.07614e-12 4.64773e-12 5.01736e-12 4.74942e-12 5.08874e-12 4.64142e-12 4.63073e-12 5.07172e-12 5.10071e-12 4.63754e-12
4.67596e-12 5.07578e-12 4.61951e-12 5.07046e-12 5.05013e-12 4.65873e-12 4.81164e-12 5.0699e-12 4.64928e-12 4.85761e-12
4.75948e-12 4.60225e-12 4.70425e-12 5.07527e-12 5.02926e-12 4.98906e-12 5.09421e-12 4.73684e-12 4.63622e-12 4.90289e-12
5.10512e-12 4.64837e-12 4.733e-12 4.63351e-12 5.09261e-12 5.05423e-12 4.72508e-12 4.73438e-12 5.11442e-12 4.64263e-12
4.95838e-12 4.80787e-12 5.07048e-12 4.65262e-12 4.85098e-12 4.6583e-12 5.05193e-12 5.07714e-12 4.72541e-12 4.62788e-12
5.10513e-12 5.09311e-12 4.61627e-12 4.87098e-12 4.73977e-12 5.07957e-12 4.62936e-12 4.62285e-12 5.09556e-12 5.10209e-12
5.07449e-12 4.63844e-12 4.62372e-12 5.1099e-12 4.63219e-12 5.01104e-12 4.72572e-12 4.6479e-12 5.12831e-12 4.72205e-12
4.94091e-12 5.1069e-12 4.61281e-12 5.09228e-12 4.67246e-12 4.63039e-12 5.13845e-12 5.11641e-12 4.70545e-12 5.10737e-12
4.64474e-12 4.82443e-12 5.12192e-12 4.62298e-12 4.86561e-12 4.77269e-12 4.739e-12 5.12232e-12 4.98438e-12 4.6205e-12
5.14163e-12 4.62085e-12 4.90122e-12 4.73876e-12 5.13518e-12 4.63224e-12 5.06408e-12 4.69981e-12 5.08887e-12 4.61118e-12
4.62519e-12 5.07894e-12 4.62068e-12 5.08634e-12 5.14344e-12 4.63079e-12 4.96246e-12 4.7443e-12 5.10385e-12 4.60859e-12
5.09926e-12 4.63316e-12 4.70165e-12 4.61374e-12 5.14594e-12 5.01879e-12 5.14427e-12 4.63686e-12 4.84734e-12 4.79154e-12
5.12137e-12 5.13941e-12 4.59486e-12 4.6417e-12 5.1678e-12 4.57454e-12 4.89316e-12 4.7516e-12 5.1587e-12 4.61503e-12
5.10233e-12 4.67373e-12 5.14009e-12 4.61451e-12 5.00959e-12 4.73445e-12 4.89985e-12 5.1653e-12 4.74161e-12 4.63306e-12
4.66674e-12 5.17918e-12 4.62652e-12 5.06921e-12 5.15784e-12 4.60354e-12 4.82538e-12 4.58255e-12 5.09709e-12 5.15783e-12
5.0247e-12 4.62169e-12 4.77454e-12 5.12164e-12 4.6003e-12 5.09142e-12 4.61989e-12 5.15935e-12 4.59118e-12 4.88044e-12
4.77056e-12 5.15227e-12 4.61127e-12 5.03592e-12 4.6889e-12 5.12257e-12 5.08724e-12 4.6273e-12 4.59509e-12 5.16251e-12
4.5901e-12 4.91174e-12 4.75244e-12 5.15623e-12 4.60045e-12 5.10966e-12 4.63452e-12 4.72262e-12 5.13428e-12 4.60209e-12
5.01049e-12 5.17777e-12 4.60834e-12 4.68104e-12 5.10233e-12 5.16658e-12 4.5919e-12 4.96585e-12 4.75097e-12 4.57021e-12
4.86874e-12 5.17141e-12 4.7939e-12 5.17489e-12 4.61017e-12 5.07011e-12 4.65283e-12 5.15392e-12 4.58309e-12 4.91252e-12
4.7452e-12 5.15364e-12 4.5841e-12 5.01156e-12 4.73486e-12 5.14247e-12 4.59993e-12 5.14967e-12 5.0452e-12 4.60274e-12
4.6646e-12 4.60288e-12 5.09502e-12 4.64454e-12 5.18796e-12 4.77134e-12 5.16303e-12 4.56972e-12 4.94142e-12 5.17465e-12
4.59516e-12 5.11837e-12 4.60496e-12 4.60352e-12 5.18517e-12 5.12771e-12 4.58804e-12 4.7164e-12 5.18016e-12 4.54313e-12
4.99745e-12 5.15207e-12 4.58265e-12 5.01833e-12 4.69849e-12 5.18327e-12 4.53267e-12 4.83036e-12 5.19557e-12 4.59788e-12
5.11106e-12 4.60894e-12 5.16509e-12 4.54055e-12 4.89064e-12 4.77759e-12 5.14535e-12 4.54104e-12 4.93082e-12 4.75717e-12
5.0637e-12 5.19292e-12 4.60308e-12 4.59895e-12 5.1423e-12 4.56947e-12 4.72589e-12 5.0136e-12 5.15056e-12 4.5201e-12
4.96399e-12 4.73842e-12 5.17774e-12 4.57431e-12 5.0471e-12 4.64402e-12 4.56976e-12 5.18982e-12 5.1581e-12 4.58277e-12
5.20256e-12 4.57781e-12 4.57914e-12 5.20292e-12 5.16352e-12 4.55998e-12 4.86068e-12 5.19513e-12 4.49513e-12 4.79811e-12
5.13989e-12 4.51376e-12 4.92063e-12 4.77316e-12 5.21323e-12 4.57769e-12 5.15597e-12 4.56514e-12 5.15597e-12 4.51988e-12
4.98979e-12 4.71811e-12 4.68084e-12 4.5563e-12 5.18204e-12 5.00404e-12 4.56775e-12 5.22642e-12 5.15052e-12 4.5766e-12
5.12458e-12 4.4976e-12 4.94871e-12 4.73896e-12 5.20139e-12 4.55737e-12 5.10673e-12 4.59189e-12 5.16905e-12 4.52858e-12
5.01375e-12 4.69509e-12 5.13449e-12 4.46995e-12 4.96838e-12 4.72698e-12 5.17773e-12 4.45957e-12 4.82143e-12 5.15936e-12
4.47331e-12 4.86885e-12 4.78767e-12 5.07547e-12 4.63169e-12 5.18636e-12 4.53512e-12 4.93501e-12 5.12905e-12 4.47904e-12
4.75787e-12 5.20737e-12 4.55813e-12 5.22953e-12 4.55948e-12 5.18404e-12 4.55679e-12 5.22738e-12 4.55692e-12 5.17735e-12
4.54368e-12 4.97972e-12 5.16693e-12 4.49694e-12 4.70317e-12 4.55148e-12 5.18213e-12 4.5448e-12 5.23841e-12 4.72833e-12
5.1203e-12 4.46315e-12 4.97455e-12 5.18538e-12 4.51713e-12 5.05868e-12 4.65042e-12 5.2297e-12 4.54452e-12 5.16269e-12
4.55289e-12 4.42402e-12 4.81965e-12 5.16034e-12 4.80728e-12 4.98314e-12 4.71189e-12 5.1456e-12 4.45893e-12 5.1421e-12
4.46031e-12 4.77214e-12 4.87445e-12 4.4916e-12 5.05764e-12 5.18494e-12 4.67047e-12 4.51469e-12 5.13721e-12 5.19986e-12
4.56915e-12 5.10963e-12 4.99625e-12 4.4445e-12 4.74721e-12 5.20269e-12 4.51047e-12 5.1103e-12 4.59541e-12 5.22609e-12
4.54649e-12 5.02207e-12 4.69121e-12 5.17509e-12 4.45656e-12 5.2333e-12 4.55226e-12 5.197e-12 4.53636e-12 4.98488e-12
5.1125e-12 4.70017e-12 4.44053e-12 5.23867e-12 4.51315e-12 5.1797e-12 4.53758e-12 5.1882e-12 4.48549e-12 5.09756e-12
4.61869e-12 5.14188e-12 4.38679e-12 5.25406e-12 4.51816e-12 5.18221e-12 4.51594e-12 4.82672e-12 5.1418e-12 4.40238e-12
4.85982e-12 4.79685e-12 5.25411e-12 4.53531e-12 5.18089e-12 4.52986e-12 5.14638e-12 4.414e-12 4.92001e-12 4.7691e-12
4.42828e-12 4.99959e-12 5.16848e-12 4.71725e-12 5.19991e-12 4.4549e-12 5.08839e-12 4.64115e-12 5.23861e-12 4.51662e-12
5.16259e-12 4.53598e-12 5.15198e-12 4.41341e-12 4.97256e-12 4.73332e-12 4.50659e-12 5.23635e-12 5.13098e-12 4.5621e-12
5.05133e-12 4.67394e-12 5.18002e-12 4.40942e-12 5.12341e-12 4.34955e-12 4.86258e-12 4.81739e-12 5.16313e-12 4.40277e-12
4.99883e-12 4.70132e-12 5.22648e-12 4.54015e-12 4.529e-12 4.56551e-12 5.2389e-12 5.19815e-12 4.37562e-12 4.8826e-12
4.7906e-12 5.14136e-12 5.26601e-12 4.50387e-12 5.18691e-12 4.50761e-12 4.47137e-12 5.1334e-12 4.59736e-12 5.23925e-12
5.19242e-12 4.37557e-12 4.92675e-12 4.76647e-12 4.47594e-12 5.28507e-12 4.44827e-12 5.18611e-12 5.1808e-12 4.39414e-12
5.03779e-12 4.66404e-12 5.27239e-12 4.48841e-12 5.19714e-12 4.49642e-12 5.24647e-12 4.60149e-12 5.14704e-12 4.43308e-12
4.98238e-12 4.71944e-12 5.19338e-12 4.39304e-12 5.26413e-12 4.50987e-12 5.20128e-12 4.48282e-12 5.11508e-12 4.34538e-12
4.83721e-12 5.12315e-12 4.34102e-12 4.87758e-12 4.78735e-12 5.26841e-12 4.48753e-12 5.16594e-12 4.55608e-12 5.15603e-12
4.33526e-12 4.90477e-12 4.76118e-12 5.02849e-12 5.17817e-12 4.66841e-12 4.34923e-12 5.21376e-12 4.4034e-12 5.09988e-12
4.60711e-12 5.2428e-12 4.5196e-12 5.27414e-12 4.51583e-12 5.22021e-12 4.51274e-12 4.96551e-12 4.73111e-12 5.18527e-12
4.33265e-12 5.28597e-12 4.60715e-12 5.15802e-12 4.46032e-12 5.30142e-12 4.46412e-12 5.18368e-12 4.51235e-12 5.29903e-12
4.45877e-12 5.20118e-12 4.49901e-12 5.07176e-12 4.59656e-12 5.19654e-12 4.38964e-12 5.02912e-12 4.68511e-12 5.19098e-12
4.31934e-12 5.10675e-12 4.34122e-12 4.87857e-12 4.79028e-12 5.28627e-12 4.46017e-12 4.49705e-12 5.22029e-12 5.25581e-12
4.41098e-12 5.15232e-12 4.58495e-12 5.12109e-12 4.29768e-12 4.88658e-12 4.75111e-12 5.20783e-12 5.28242e-12 4.47482e-12
4.50794e-12 4.92316e-12 4.73654e-12 5.16925e-12 4.29215e-12 5.06487e-12 4.6302e-12 5.19463e-12 4.32238e-12 5.28719e-12
5.17347e-12 4.57224e-12 4.47333e-12 5.12938e-12 4.55646e-12 5.232e-12 4.38145e-12 5.02977e-12 5.18602e-12 4.70199e-12
4.26984e-12 5.28199e-12 4.50208e-12 5.31347e-12 5.25621e-12 4.5141e-12 4.49003e-12 5.08794e-12 4.3088e-12 4.82689e-12
5.27655e-12 4.42359e-12 5.17944e-12 4.57728e-12 5.094e-12 4.28966e-12 4.87276e-12 4.78244e-12 5.31788e-12 4.47433e-12
5.2145e-12 4.49453e-12 5.21203e-12 4.3432e-12 5.10285e-12 4.59074e-12 4.26525e-12 5.32337e-12 4.46252e-12 5.21464e-12
4.5107e-12 5.07584e-12 4.65058e-12 5.20637e-12 5.1274e-12 4.25909e-12 4.92781e-12 4.74683e-12 5.30441e-12 4.45498e-12
5.22994e-12 4.49281e-12 5.25878e-12 4.36907e-12 5.17483e-12 4.57468e-12 4.71434e-12 5.15051e-12 4.23909e-12 5.00132e-12
5.29208e-12 4.47965e-12 4.45592e-12 5.23628e-12 5.19744e-12 4.28539e-12 5.08339e-12 4.60526e-12 5.16943e-12 4.22626e-12
5.05962e-12 4.67236e-12 5.23915e-12 4.34106e-12 5.15105e-12 4.57997e-12 5.28712e-12 4.42799e-12 5.22117e-12 4.53295e-12
5.06912e-12 4.27638e-12 4.82172e-12 4.81698e-12 4.90419e-12 4.24336e-12 5.07904e-12 4.77137e-12 4.99731e-12 4.72829e-12
5.14022e-12 4.20318e-12 5.27425e-12 5.21144e-12 4.55506e-12 4.39163e-12 4.4846e-12 5.3155e-12 5.3238e-12 4.47765e-12
5.27878e-12 4.47146e-12 5.09062e-12 5.18309e-12 4.23896e-12 4.62033e-12 5.33325e-12 4.45656e-12 5.20346e-12 4.46502e-12
5.22216e-12 4.31631e-12 5.12687e-12 4.60466e-12 5.22977e-12 4.47988e-12 5.32787e-12 4.43852e-12 5.05505e-12 5.10653e-12
4.1912e-12 4.69055e-12 5.25445e-12 4.34511e-12 5.20134e-12 4.56611e-12 5.31593e-12 4.44131e-12 5.24854e-12 4.48382e-12
5.07532e-12 4.2328e-12 4.81609e-12 5.18259e-12 4.27204e-12 5.12309e-12 4.58026e-12 5.07786e-12 4.24012e-12 4.86791e-12
4.78409e-12 5.30256e-12 4.41431e-12 5.25908e-12 4.49254e-12 4.17876e-12 5.07782e-12 4.64633e-12 5.17881e-12 5.08147e-12
4.222e-12 4.95437e-12 4.74014e-12 5.24365e-12 4.29743e-12 5.17314e-12 4.58406e-12 5.29495e-12 4.39109e-12 5.2635e-12
4.52484e-12 5.08609e-12 4.18805e-12 5.03284e-12 4.71081e-12 4.22642e-12 5.14975e-12 4.57916e-12 5.12545e-12 5.27381e-12
4.35776e-12 5.25696e-12 4.5387e-12 5.20883e-12 4.28163e-12 5.17048e-12 4.57182e-12 5.33472e-12 4.45812e-12 5.33297e-12
4.45532e-12 5.33996e-12 4.44619e-12 5.28083e-12 4.44754e-12 5.33873e-12 4.42971e-12 5.11395e-12 4.18252e-12 5.07564e-12
4.68373e-12 5.33895e-12 4.45996e-12 4.39369e-12 5.25246e-12 4.83208e-12 4.18923e-12 4.79359e-12 5.08151e-12 4.3223e-12
5.24112e-12 4.55065e-12 5.24593e-12 4.2515e-12 5.08178e-12 4.91365e-12 4.75442e-12 5.32251e-12 4.39635e-12 5.26738e-12
4.47195e-12 5.16103e-12 4.26004e-12 4.53196e-12 5.15665e-12 4.18995e-12 5.02485e-12 5.00232e-12 4.70649e-12 5.13867e-12
4.19548e-12 5.10957e-12 4.62493e-12 4.48184e-12 5.3073e-12 4.36892e-12 5.28801e-12 5.22608e-12 4.28345e-12 5.22484e-12
4.56444e-12 4.16786e-12 5.0767e-12 4.71792e-12 5.07274e-12 4.49877e-12 5.2987e-12 4.34959e-12 5.28643e-12 5.14195e-12
4.21962e-12 5.153e-12 4.56333e-12 5.09356e-12 4.15611e-12 4.82819e-12 5.09143e-12 4.16917e-12 4.88751e-12 4.77158e-12
5.20847e-12 4.25275e-12 4.5666e-12 5.22526e-12 4.52424e-12 5.28492e-12 4.32602e-12 5.30698e-12 5.09773e-12 4.19227e-12
5.09299e-12 4.68013e-12 5.35044e-12 4.44635e-12 5.34387e-12 4.42784e-12 5.34081e-12 4.43461e-12 5.07771e-12 4.16635e-12
4.9731e-12 4.70856e-12 5.34973e-12 5.32745e-12 4.41899e-12 4.41328e-12 5.34055e-12 4.38758e-12 5.2895e-12 4.44586e-12
5.25326e-12 4.29737e-12 5.26525e-12 4.52256e-12 5.07996e-12 4.14242e-12 5.04671e-12 4.69386e-12 5.32785e-12 4.38147e-12
5.28051e-12 4.4622e-12 5.12841e-12 4.18445e-12 4.59409e-12 5.14204e-12 5.1672e-12 4.22064e-12 5.20069e-12 4.5502e-12
5.31282e-12 4.34324e-12 5.28705e-12 4.45514e-12 5.10276e-12 4.15067e-12 5.07785e-12 4.69438e-12 5.25503e-12 5.21106e-12
4.26132e-12 4.55644e-12 5.10561e-12 4.12299e-12 4.87276e-12 4.81432e-12 5.30763e-12 4.31231e-12 4.46416e-12 5.0968e-12
5.28725e-12 4.93156e-12 4.724e-12 4.11297e-12 5.1286e-12 4.20755e-12 4.54811e-12 5.18785e-12 5.13083e-12 4.15402e-12
5.11606e-12 4.64438e-12 5.10743e-12 4.11096e-12 5.04489e-12 4.64934e-12 5.19517e-12 4.22073e-12 5.24171e-12 4.5458e-12
5.28033e-12 4.29753e-12 5.29206e-12 4.47634e-12 5.34155e-12 4.41523e-12 5.34541e-12 4.4269e-12 5.34234e-12 4.3964e-12
5.11483e-12 4.10092e-12 5.06294e-12 4.70168e-12 5.32991e-12 4.43215e-12 5.35167e-12 4.38003e-12 5.27593e-12 4.27985e-12
4.45892e-12 5.25305e-12 5.34565e-12 4.36186e-12 5.29756e-12 4.44229e-12 5.14772e-12 4.15058e-12 5.16528e-12 4.5857e-12
5.17069e-12 4.16223e-12 5.23301e-12 4.55412e-12 5.12783e-12 4.08767e-12 4.87218e-12 5.31747e-12 4.34249e-12 5.29485e-12
4.44224e-12 4.14162e-12 5.12574e-12 5.07877e-12 4.67777e-12 5.11414e-12 4.91744e-12 4.80222e-12 4.07557e-12 5.11891e-12
4.07424e-12 4.98395e-12 4.72145e-12 5.3085e-12 4.31026e-12 4.41234e-12 5.29241e-12 5.22122e-12 4.24138e-12 5.26848e-12
4.50033e-12 4.67982e-12 5.14449e-12 4.08923e-12 5.04392e-12 5.28089e-12 4.29778e-12 5.30913e-12 4.44694e-12 5.15423e-12
4.14493e-12 5.20882e-12 4.5546e-12 4.62552e-12 5.17144e-12 4.09773e-12 5.15046e-12 4.20663e-12 5.25351e-12 4.50603e-12
5.19044e-12 4.0914e-12 4.6648e-12 5.15205e-12 5.06688e-12 5.25284e-12 4.27192e-12 5.32096e-12 4.45805e-12 5.32801e-12
4.39129e-12 5.15004e-12 4.05235e-12 4.91772e-12 4.88391e-12 5.34391e-12 4.36748e-12 5.33944e-12 4.40946e-12 5.10411e-12
4.78667e-12 4.01398e-12 4.94772e-12 4.11258e-12 5.18078e-12 4.57509e-12 5.16244e-12 4.34857e-12 5.34923e-12 5.36897e-12
4.44044e-12 5.24253e-12 4.25745e-12 5.31478e-12 4.46399e-12 5.16072e-12 5.11371e-12 4.6359e-12 4.07388e-12 5.17205e-12
4.15048e-12 5.25086e-12 4.52818e-12 5.32181e-12 4.43441e-12 5.33001e-12 4.33254e-12 5.16728e-12 5.01163e-12 4.05903e-12
4.7258e-12 4.31638e-12 5.28789e-12 5.3089e-12 4.45212e-12 4.08602e-12 5.18842e-12 4.64247e-12 5.05622e-12 4.2177e-12
5.20745e-12 5.31233e-12 4.47992e-12 4.43138e-12 5.2756e-12 4.29741e-12 5.31536e-12 4.60153e-12 5.16449e-12 4.06201e-12
5.17191e-12 5.23364e-12 4.54107e-12 5.1552e-12 4.09734e-12 5.3359e-12 4.29661e-12 5.2546e-12 4.45322e-12 4.03705e-12
5.17921e-12 5.06958e-12 4.63727e-12 5.14846e-12 4.02145e-12 4.88736e-12 5.1375e-12 4.01451e-12 4.92937e-12 4.82254e-12
5.18928e-12 4.17608e-12 5.30626e-12 4.49588e-12 5.25438e-12 4.26821e-12 5.3461e-12 4.45244e-12 5.12772e-12 4.02624e-12
4.97207e-12 4.75845e-12 5.163e-12 4.0694e-12 5.21517e-12 4.56075e-12 5.15924e-12 4.0539e-12 5.33406e-12 4.35021e-12
5.02458e-12 4.70926e-12 5.1665e-12 4.01911e-12 5.15604e-12 4.60305e-12 5.33513e-12 4.33367e-12 5.33634e-12 4.37919e-12
5.33337e-12 4.32269e-12 5.3391e-12 4.38757e-12 5.17188e-12 4.1357e-12 5.28326e-12 4.51151e-12 5.23391e-12 5.3728e-12
4.26032e-12 4.45906e-12 5.31752e-12 4.30336e-12 5.33153e-12 4.4028e-12 4.03352e-12 5.17808e-12 5.06693e-12 4.67049e-12
5.28161e-12 4.2869e-12 5.32409e-12 4.41711e-12 5.20976e-12 4.19581e-12 5.36057e-12 4.46335e-12 5.15758e-12 4.01863e-12
5.20037e-12 4.60246e-12 4.40786e-12 5.2514e-12 4.26641e-12 5.32422e-12 5.14687e-12 4.84175e-12 3.99056e-12 4.90606e-12
5.16836e-12 4.08407e-12 5.26098e-12 4.51083e-12 5.14897e-12 4.00117e-12 4.94599e-12 4.77784e-12 4.00803e-12 5.14975e-12
5.11416e-12 4.6397e-12 5.27051e-12 4.25717e-12 5.32627e-12 4.43173e-12 5.09051e-12 4.03079e-12 4.98293e-12 4.74348e-12
4.14429e-12 5.37594e-12 4.48608e-12 5.18736e-12 5.27617e-12 4.244e-12 4.43945e-12 5.35475e-12 5.19073e-12 5.04752e-12
4.72528e-12 4.03975e-12 5.17677e-12 4.04906e-12 5.24589e-12 4.52437e-12 5.12334e-12 4.00372e-12 5.17341e-12 4.60862e-12
5.33676e-12 4.29671e-12 5.18268e-12 4.0995e-12 5.3103e-12 4.48844e-12 5.32854e-12 4.3032e-12 5.3393e-12 4.33118e-12
5.2369e-12 4.1967e-12 5.36489e-12 4.4313e-12 5.31065e-12 4.30516e-12 4.32783e-12 5.34049e-12 5.15395e-12 3.97128e-12
5.09437e-12 4.67694e-12 5.15203e-12 3.95048e-12 4.87716e-12 5.29933e-12 4.28193e-12 5.34119e-12 4.37457e-12 5.14921e-12
3.95953e-12 4.92795e-12 4.81724e-12 5.12054e-12 3.9711e-12 4.97554e-12 4.76757e-12 5.26962e-12 5.33169e-12 4.40567e-12
4.26146e-12 4.00236e-12 5.13209e-12 5.22542e-12 4.56033e-12 4.42835e-12 5.21031e-12 4.16094e-12 5.3812e-12 4.05419e-12
5.28113e-12 4.46639e-12 5.16961e-12 5.13666e-12 5.09936e-12 4.00467e-12 4.64154e-12 5.31325e-12 4.40483e-12 5.27765e-12
4.2393e-12 5.13141e-12 3.97474e-12 5.03463e-12 4.73431e-12 5.29985e-12 4.22167e-12 5.29021e-12 4.4264e-12 5.19454e-12
5.36098e-12 4.10272e-12 4.46001e-12 5.15116e-12 3.95853e-12 5.07612e-12 4.70377e-12 5.20057e-12 4.58742e-12 5.06994e-12
3.97247e-12 5.1471e-12 4.01008e-12 5.26394e-12 4.50173e-12 5.2522e-12 4.17765e-12 5.32029e-12 4.41328e-12 5.15718e-12
3.91041e-12 4.90962e-12 4.85119e-12 5.14382e-12 3.93597e-12 4.95014e-12 4.79817e-12 5.11117e-12 3.95358e-12 5.10047e-12
4.67115e-12 5.30087e-12 5.20189e-12 4.06383e-12 4.48978e-12 5.34122e-12 4.28231e-12 5.22719e-12 4.12154e-12 5.35083e-12
4.39835e-12 4.75078e-12 5.09885e-12 3.91646e-12 5.02308e-12 4.32099e-12 5.3304e-12 5.34482e-12 4.27726e-12 5.31005e-12
4.26493e-12 5.36241e-12 4.33062e-12 5.29953e-12 4.25776e-12 5.36104e-12 4.36196e-12 3.91196e-12 4.71769e-12 5.085e-12
5.14553e-12 5.12408e-12 3.96928e-12 5.25486e-12 4.52708e-12 5.29436e-12 4.23061e-12 5.3419e-12 4.36364e-12 5.08297e-12
3.96203e-12 5.15385e-12 4.61765e-12 5.20111e-12 4.09363e-12 5.37285e-12 4.40701e-12 4.0136e-12 5.16736e-12 5.29904e-12