# vtk DataFile Version 2.0
sampleSurface
ASCII
DATASET POLYDATA
POINTS 11753 float
0 0 0
-0.0833333 0 0.0833333
0.0833333 0 0.0833333
-0.166667 0 0
-7.40149e-17 0 0.166667
0.166667 0 0
-0.166667 0 0.166667
0.166667 0 0.166667
-0.25 0 0.0833333
0.25 0 0.0833333
-0.0833333 0 0.25
0.0833333 0 0.25
-0.333333 0 0
0.333333 0 0
7.40149e-17 0 0.333333
0.25 0 0.25
-0.25 0 0.25
-0.333333 0 0.166667
0.333333 0 0.166667
-0.166667 0 0.333333
0.166667 0 0.333333
-0.416667 6.93889e-18 0.0833333
-0.0833333 0 0.416667
0.0833333 0 0.416667
0.416667 0 0.0833333
-0.333333 0 0.333333
0.333333 0 0.333333
-0.416667 6.93889e-18 0.25
-0.25 0 0.416667
0.25 0 0.416667
0.416667 0 0.25
-0.5 0 0
0.5 0 0
0 0 0.5
-0.5 9.25186e-18 0.166667
0.5 0 0.166667
-0.166667 0 0.5
0.166667 0 0.5
-0.416667 0 0.416667
0.416667 6.93889e-18 0.416667
-0.583333 6.93889e-18 0.0833333
0.583333 -1.38778e-17 0.0833333
0.0833333 0 0.583333
-0.0833333 0 0.583333
-0.5 0 0.333333
0.5 0 0.333333
-0.333333 0 0.5
0.333333 0 0.5
-0.583333 1.38778e-17 0.25
0.583333 -6.93889e-18 0.25
-0.25 6.93889e-18 0.583333
0.25 6.93889e-18 0.583333
-0.666667 0 0
0.666667 0 0
-7.40149e-17 0 0.666667
0.666667 -2.62935e-36 0.166667
-0.166667 0 0.666667
0.166667 0 0.666667
-0.666667 0 0.166667
-0.5 0 0.5
0.5 0 0.5
0.583333 0 0.416667
-0.416667 0 0.583333
-0.583333 0 0.416667
0.416667 0 0.583333
-0.666667 0 0.333333
0.666667 0 0.333333
-0.333333 0 0.666667
0.333333 0 0.666667
-0.75 0 0.0833333
0.75 -6.93889e-18 0.0833333
-0.0833333 6.93889e-18 0.75
0.0833333 0 0.75
-0.25 6.93889e-18 0.75
-0.75 6.93889e-18 0.25
0.75 0 0.25
0.25 -6.93889e-18 0.75
-0.583333 0 0.583333
0.583333 0 0.583333
-0.833333 0 0
0.833333 0 0
7.40149e-17 0 0.833333
-0.666667 0 0.5
0.666667 0 0.5
-0.5 0 0.666667
0.5 0 0.666667
-0.166667 9.25186e-18 0.833333
-0.833333 0 0.166667
0.833333 0 0.166667
0.166667 0 0.833333
-0.416667 0 0.75
0.416667 0 0.75
-0.75 6.93889e-18 0.416667
0.75 0 0.416667
-0.833333 9.25186e-18 0.333333
0.833333 0 0.333333
-0.333333 0 0.833333
0.333333 0 0.833333
-0.0833333 6.93889e-18 0.916667
0.916667 0 0.0833333
-0.916667 0 0.0833333
0.0833333 0 0.916667
-0.666667 0 0.666667
0.666667 0 0.666667
-0.25 6.93889e-18 0.916667
0.25 -6.93889e-18 0.916667
-0.916667 1.38778e-17 0.25
0.916667 6.93889e-18 0.25
0.583333 6.93889e-18 0.75
-0.75 0 0.583333
-0.583333 0 0.75
0.75 0 0.583333
0.5 9.25186e-18 0.833333
-0.833333 0 0.5
0.833333 0 0.5
-0.5 0 0.833333
-1 0 0
1 0 0
0 0 1
-0.916667 6.93889e-18 0.416667
-0.416667 0 0.916667
0.916667 0 0.416667
0.416667 0 0.916667
-1 0 0.166667
1 0 0.166667
-0.166667 0 1
0.166667 0 1
-1 0 0.333333
1 0 0.333333
-0.333333 0 1
0.333333 0 1
-0.75 1.15648e-17 0.75
0.75 0 0.75
-0.833333 4.10602e-33 0.666667
0.833333 0 0.666667
-0.666667 0 0.833333
0.666667 0 0.833333
-0.916667 0 0.583333
0.916667 0 0.583333
-0.583333 0 0.916667
0.583333 6.93889e-18 0.916667
-1.08333 -6.93889e-18 0.0833333
1.08333 0 0.0833333
-0.0833333 0 1.08333
0.0833333 0 1.08333
-1.08333 -6.93889e-18 0.25
-0.25 6.93889e-18 1.08333
0.25 0 1.08333
1.08333 0 0.25
-1 0 0.5
1 0 0.5
-0.5 0 1
0.5 0 1
-0.416667 0 1.08333
-1.08333 0 0.416667
1.08333 -6.93889e-18 0.416667
0.416667 0 1.08333
-1.16667 0 0
1.16667 0 0
0 0 1.16667
-0.833333 0 0.833333
0.833333 0 0.833333
-1.16667 4.10602e-33 0.166667
-0.166667 9.25186e-18 1.16667
1.16667 0 0.166667
0.166667 0 1.16667
-0.916667 0 0.75
0.916667 0 0.75
-0.75 0 0.916667
0.75 0 0.916667
-1 0 0.666667
1 0 0.666667
-0.666667 0 1
0.666667 0 1
-0.333333 0 1.16667
0.333333 0 1.16667
-1.16667 0 0.333333
1.16667 0 0.333333
1.08333 6.93889e-18 0.583333
-0.583333 0 1.08333
0.583333 0 1.08333
-1.08333 0 0.583333
0.0833333 0 1.25
-1.25 -1.38778e-17 0.0833333
1.25 0 0.0833333
-0.0833333 -4.62593e-18 1.25
-1.16667 0 0.5
1.16667 0 0.5
-0.5 0 1.16667
0.5 0 1.16667
-1.25 -6.93889e-18 0.25
1.25 6.93889e-18 0.25
-0.25 6.93889e-18 1.25
0.25 0 1.25
-0.916667 6.93889e-18 0.916667
0.916667 0 0.916667
-1 0 0.833333
1 0 0.833333
-0.833333 0 1
0.833333 0 1
0.416667 0 1.25
-1.25 0 0.416667
1.25 0 0.416667
-0.416667 0 1.25
-0.75 0 1.08333
0.75 0 1.08333
1.08333 0 0.75
-1.08333 0 0.75
-1.33333 0 0
1.33333 0 0
0 0 1.33333
-1.33333 0 0.166667
1.33333 0 0.166667
-0.166667 0 1.33333
0.166667 0 1.33333
-1.16667 0 0.666667
1.16667 0 0.666667
-0.666667 0 1.16667
0.666667 0 1.16667
-0.333333 0 1.33333
0.333333 0 1.33333
-1.33333 0 0.333333
1.33333 0 0.333333
-1.25 0 0.583333
-0.583333 0 1.25
0.583333 0 1.25
1.25 0 0.583333
-1 0 1
1 0 1
-1.41667 6.93889e-18 0.0833333
1.41667 0 0.0833333
-0.0833333 0 1.41667
0.0833333 0 1.41667
-1.08333 0 0.916667
1.08333 0 0.916667
-0.916667 0 1.08333
0.916667 0 1.08333
-1.33333 0 0.5
1.33333 0 0.5
-0.5 0 1.33333
0.5 0 1.33333
-1.16667 0 0.833333
1.16667 0 0.833333
-0.833333 0 1.16667
0.833333 0 1.16667
-1.41667 6.93889e-18 0.25
1.41667 0 0.25
0.25 0 1.41667
-0.25 -6.93889e-18 1.41667
-0.75 0 1.25
0.75 6.93889e-18 1.25
-1.25 6.93889e-18 0.75
1.25 6.93889e-18 0.75
0.416667 0 1.41667
-1.41667 6.93889e-18 0.416667
-0.416667 0 1.41667
1.41667 0 0.416667
-1.33333 0 0.666667
1.33333 0 0.666667
-0.666667 0 1.33333
0.666667 0 1.33333
-1.5 0 0
1.5 0 0
0 0 1.5
-1.5 9.25186e-18 0.166667
1.5 0 0.166667
-0.166667 0 1.5
0.166667 0 1.5
1.41667 0 0.583333
0.583333 0 1.41667
-1.41667 0 0.583333
-0.583333 0 1.41667
-1.08333 -6.93889e-18 1.08333
1.08333 -6.93889e-18 1.08333
-1.5 9.25186e-18 0.333333
1.5 0 0.333333
-0.333333 0 1.5
0.333333 0 1.5
-1 0 1.16667
1 0 1.16667
-1.16667 0 1
1.16667 0 1
-0.916667 0 1.25
0.916667 1.38778e-17 1.25
-1.25 0 0.916667
1.25 0 0.916667
0.833333 9.25186e-18 1.33333
-1.33333 0 0.833333
1.33333 0 0.833333
-0.833333 0 1.33333
-1.5 0 0.5
1.5 0 0.5
-0.5 0 1.5
0.5 9.25186e-18 1.5
-1.58333 6.93889e-18 0.0833333
1.58333 0 0.0833333
-0.0833333 0 1.58333
0.0833333 0 1.58333
-0.75 0 1.41667
0.75 6.93889e-18 1.41667
-1.41667 -6.93889e-18 0.75
1.41667 6.93889e-18 0.75
-1.58333 -4.62593e-18 0.25
1.58333 0 0.25
-0.25 0 1.58333
0.25 0 1.58333
-1.58333 6.93889e-18 0.416667
-0.416667 6.93889e-18 1.58333
0.416667 6.93889e-18 1.58333
1.58333 0 0.416667
-1.5 0 0.666667
1.5 0 0.666667
-0.666667 0 1.5
0.666667 0 1.5
-1.16667 0 1.16667
1.16667 0 1.16667
1.25 6.93889e-18 1.08333
-1.25 0 1.08333
-1.08333 0 1.25
1.08333 -4.62593e-18 1.25
1 9.25186e-18 1.33333
-1.33333 0 1
1.33333 0 1
-1 0 1.33333
-1.66667 0 0
1.66667 0 0
0 0 1.66667
-1.66667 0 0.166667
1.66667 0 0.166667
-0.166667 0 1.66667
0.166667 0 1.66667
1.41667 6.93889e-18 0.916667
0.916667 6.93889e-18 1.41667
-1.41667 0 0.916667
-0.916667 0 1.41667
-0.583333 0 1.58333
-1.58333 0 0.583333
0.583333 -1.15648e-17 1.58333
1.58333 0 0.583333
-0.333333 9.25186e-18 1.66667
-1.66667 0 0.333333
1.66667 0 0.333333
0.333333 0 1.66667
1.5 9.25186e-18 0.833333
-1.5 0 0.833333
-0.833333 0 1.5
0.833333 0 1.5
0.5 9.25186e-18 1.66667
-1.66667 0 0.5
1.66667 0 0.5
-0.5 0 1.66667
0.0833333 -6.93889e-18 1.75
-1.75 0 0.0833333
1.75 0 0.0833333
-0.0833333 6.93889e-18 1.75
1.58333 6.93889e-18 0.75
-0.75 0 1.58333
-1.58333 1.38778e-17 0.75
0.75 0 1.58333
1.75 6.93889e-18 0.25
-1.75 -4.62593e-18 0.25
-1.25 6.93889e-18 1.25
1.25 -4.62593e-18 1.25
-0.25 0 1.75
0.25 0 1.75
-1.33333 9.25186e-18 1.16667
1.16667 9.25186e-18 1.33333
1.33333 0 1.16667
-1.16667 0 1.33333
-1.08333 -6.93889e-18 1.41667
-1.41667 0 1.08333
1.08333 2.31296e-18 1.41667
1.41667 0 1.08333
-1.66667 9.25186e-18 0.666667
1.66667 0 0.666667
-0.666667 0 1.66667
0.666667 0 1.66667
1.75 0 0.416667
-1.75 0 0.416667
0.416667 0 1.75
-0.416667 -4.62593e-18 1.75
-1.5 0 1
1.5 0 1
-1 0 1.5
1 0 1.5
1.58333 6.93889e-18 0.916667
-1.58333 0 0.916667
-0.916667 0 1.58333
0.916667 0 1.58333
-1.83333 0 0
1.83333 0 0
0 0 1.83333
-1.83333 0 0.166667
1.83333 0 0.166667
-0.166667 0 1.83333
0.166667 0 1.83333
0.583333 1.38778e-17 1.75
-1.75 1.38778e-17 0.583333
-0.583333 6.93889e-18 1.75
1.75 6.93889e-18 0.583333
-1.83333 9.25186e-18 0.333333
1.83333 0 0.333333
-0.333333 0 1.83333
0.333333 0 1.83333
-1.66667 0 0.833333
1.66667 0 0.833333
-0.833333 0 1.66667
0.833333 0 1.66667
-1.33333 0 1.33333
1.33333 9.25186e-18 1.33333
1.25 1.38778e-17 1.41667
-1.41667 6.93889e-18 1.25
1.41667 6.93889e-18 1.25
-1.25 6.93889e-18 1.41667
-1.83333 0 0.5
1.83333 0 0.5
-0.5 9.25186e-18 1.83333
0.5 0 1.83333
-1.5 0 1.16667
1.5 0 1.16667
-1.16667 0 1.5
1.16667 0 1.5
0.75 0 1.75
1.75 6.93889e-18 0.75
-1.75 -4.62593e-18 0.75
-0.75 0 1.75
-1.91667 -6.93889e-18 0.0833333
1.91667 1.15648e-17 0.0833333
-0.0833333 0 1.91667
0.0833333 0 1.91667
-1.08333 -6.93889e-18 1.58333
-1.58333 -6.93889e-18 1.08333
1.58333 0 1.08333
1.08333 0 1.58333
-1.91667 -6.93889e-18 0.25
1.91667 -6.93889e-18 0.25
-0.25 0 1.91667
0.25 0 1.91667
-1.66667 0 1
1.66667 0 1
-1 0 1.66667
1 0 1.66667
-1.83333 0 0.666667
1.83333 0 0.666667
-0.666667 0 1.83333
0.666667 0 1.83333
-0.416667 6.93889e-18 1.91667
-1.91667 6.93889e-18 0.416667
0.416667 0 1.91667
1.91667 0 0.416667
0.916667 0 1.75
-1.75 6.93889e-18 0.916667
1.75 1.38778e-17 0.916667
-0.916667 0 1.75
-2 0 0
2 0 0
0 0 2
1.41667 1.38778e-17 1.41667
-1.41667 0 1.41667
-1.91667 0 0.583333
-0.583333 0 1.91667
1.91667 0 0.583333
0.583333 0 1.91667
-1.5 0 1.33333
1.5 0 1.33333
-1.33333 0 1.5
1.33333 0 1.5
-2 -2.62935e-36 0.166667
2 -2.62935e-36 0.166667
-0.166667 0 2
0.166667 0 2
-1.83333 9.25186e-18 0.833333
1.83333 9.25186e-18 0.833333
-0.833333 9.25186e-18 1.83333
0.833333 0 1.83333
-1.58333 6.93889e-18 1.25
-1.25 0 1.58333
1.25 0 1.58333
1.58333 -6.93889e-18 1.25
-2 0 0.333333
2 0 0.333333
-0.333333 0 2
0.333333 0 2
-1.66667 0 1.16667
1.66667 0 1.16667
-1.16667 0 1.66667
1.16667 0 1.66667
0.75 0 1.91667
-1.91667 0 0.75
1.91667 6.93889e-18 0.75
-0.75 6.93889e-18 1.91667
-1.75 6.93889e-18 1.08333
1.75 6.93889e-18 1.08333
1.08333 0 1.75
-1.08333 0 1.75
-2 0 0.5
2 0 0.5
-0.5 0 2
0.5 0 2
2.08333 -6.93889e-18 0.0833333
-0.0833333 0 2.08333
-2.08333 4.62593e-18 0.0833333
0.0833333 0 2.08333
-1.83333 0 1
1.83333 0 1
-1 0 1.83333
1 0 1.83333
-2.08333 -6.93889e-18 0.25
2.08333 -6.93889e-18 0.25
-0.25 0 2.08333
0.25 6.93889e-18 2.08333
-2 0 0.666667
2 0 0.666667
-0.666667 0 2
0.666667 0 2
-1.5 0 1.5
1.5 9.25186e-18 1.5
[...]
POINT_DATA 11753
FIELD attributes 1
U 3 11753 float
20 0 0
20 1.15508e-16 -2.06378e-15
20 8.56427e-16 -2.13807e-15
20 0 0
20 1.26399e-15 -1.00565e-15
20 0 0
20 5.32507e-16 -1.40383e-15
20 1.97937e-15 -1.28415e-15
20 -1.41482e-16 -2.27581e-15
20 1.82543e-15 -2.50306e-15
20 1.64889e-15 1.30319e-17
20 2.43513e-15 1.66215e-16
20 0 0
20 0 0
20 1.92119e-15 2.68791e-16
20 2.8005e-15 -6.61673e-16
20 5.07111e-16 -1.28874e-15
20 9.91737e-17 -1.85292e-15
20 2.51146e-15 -2.55479e-15
20 1.60922e-15 -5.40873e-17
20 1.98829e-15 -2.98565e-16
20 -1.95323e-16 -2.46926e-15
20 2.16372e-15 8.69138e-16
20 1.43702e-15 2.67774e-17
20 2.76055e-15 -4.10014e-15
20 1.10855e-15 -4.90955e-16
20 2.13346e-15 -1.23538e-15
20 2.26389e-16 -1.37788e-15
20 2.11715e-15 1.90224e-16
20 1.28053e-15 -7.2558e-16
20 2.65936e-15 -2.95428e-15
20 0 0
20 0 0
20 1.25403e-15 -1.2492e-15
20 4.40803e-17 -1.04455e-15
20 3.14652e-15 -3.50282e-15
20 1.30204e-15 -7.01917e-16
20 1.19767e-15 -1.4823e-15
20 1.58356e-15 5.12582e-16
20 1.79347e-15 -5.9999e-16
20 7.96754e-17 -7.25732e-16
20 3.7924e-15 -3.23031e-15
20 7.12912e-16 -3.20956e-15
20 7.02487e-16 -2.68316e-15
20 5.77373e-16 1.53965e-16
20 2.71137e-15 -2.10307e-15
20 9.30619e-16 -2.76433e-16
20 1.89623e-15 -9.86718e-16
20 6.55792e-17 3.94661e-16
20 3.37376e-15 -3.72654e-15
20 2.24784e-16 -1.18386e-15
20 1.36024e-15 -2.02085e-15
20 0 0
20 0 0
20 6.66354e-16 -2.71601e-15
20 3.43814e-15 -3.17476e-15
20 6.43368e-16 -1.65314e-15
20 8.34417e-16 -2.21088e-15
20 -4.71038e-17 -1.36133e-16
20 3.91554e-16 -9.9709e-17
20 3.12681e-15 -7.65213e-16
20 3.01891e-15 -1.13146e-15
20 -2.03024e-16 -6.24674e-16
20 4.33965e-16 1.0865e-15
20 3.15069e-15 -6.00455e-16
20 -1.61128e-16 2.03587e-16
20 3.36806e-15 -1.94012e-15
20 3.73559e-16 -6.54057e-16
20 1.93739e-15 -8.45786e-16
20 -4.24666e-16 -6.04274e-17
20 3.40866e-15 -2.80102e-15
20 9.51467e-16 -2.41995e-15
20 2.98551e-16 -2.55135e-15
20 6.94735e-16 -3.25567e-16
20 9.09957e-17 -1.53035e-16
20 3.17773e-15 -2.94117e-15
20 9.65967e-16 -1.06178e-15
20 -2.48286e-16 -1.37324e-15
20 4.54416e-15 -7.28951e-16
20 0 0
20 0 0
20 9.82096e-16 -1.0141e-15
20 -3.22466e-16 -3.60514e-16
20 4.1317e-15 -5.47247e-16
20 2.03221e-16 -9.16339e-16
20 3.19344e-15 -4.03944e-16
20 6.8191e-16 -6.74213e-16
20 -4.8489e-16 -4.66529e-16
20 3.11451e-15 -2.31872e-15
20 1.34601e-15 -5.53276e-16
20 7.77738e-16 -4.82121e-16
20 2.27265e-15 2.99932e-16
20 -1.23505e-15 -5.13778e-16
20 3.90186e-15 3.86923e-17
20 -7.47391e-16 -8.95154e-16
20 3.47059e-15 -1.08353e-15
20 4.64714e-16 -2.79189e-16
20 2.00701e-15 3.26769e-16
20 9.04932e-16 1.99686e-16
20 3.00941e-15 -1.63172e-15
20 -9.73432e-16 2.03936e-16
20 1.77343e-15 7.15202e-16
20 -7.01803e-17 -1.32623e-15
20 3.896e-15 -7.4371e-16
20 1.76505e-16 -1.51024e-16
20 2.3461e-15 6.84824e-16
20 -6.3246e-16 -1.85659e-15
20 2.86225e-15 -1.90095e-15
20 2.80625e-15 -5.86301e-16
20 -2.40491e-16 -6.41534e-16
20 4.86454e-16 -1.18532e-15
20 5.06186e-15 -3.67271e-16
20 2.60697e-15 9.16793e-16
20 -6.4019e-16 -2.64486e-16
20 4.52941e-15 2.46633e-16
20 5.40422e-16 -2.3327e-16
20 0 0
20 0 0
20 1.259e-15 2.37992e-16
20 -1.21305e-15 -1.05722e-15
20 2.09877e-16 -1.58044e-16
20 3.94053e-15 4.69305e-16
20 2.44331e-15 1.3841e-15
20 -1.11154e-15 -4.66949e-16
20 2.69462e-15 -8.74927e-16
20 4.61154e-16 -2.94497e-16
20 2.01058e-15 6.64603e-16
20 -9.78402e-16 -1.32648e-15
20 3.03367e-15 -3.1234e-16
20 2.17496e-16 -5.80286e-16
20 2.0774e-15 1.30766e-15
20 -2.78398e-16 -2.10484e-15
20 3.17173e-15 -1.29232e-15
20 -3.25418e-16 -1.10035e-15
20 4.39105e-15 -1.98432e-16
20 2.51694e-16 -8.03608e-16
20 3.00612e-15 5.72536e-16
20 1.27831e-16 1.15458e-15
20 5.21338e-15 8.45805e-16
20 6.87618e-16 8.92403e-16
20 2.90567e-15 2.56944e-15
20 -1.71591e-15 6.85087e-16
20 2.47108e-15 8.05129e-17
20 7.00002e-16 -1.18655e-16
20 1.65761e-15 1.55737e-16
20 -1.12435e-15 -9.00229e-16
20 6.31792e-17 -1.10799e-15
20 2.26518e-15 1.10265e-15
20 2.43572e-15 -4.75506e-17
20 -6.67588e-16 -3.94746e-16
20 4.3266e-15 6.72931e-16
20 6.32671e-16 -2.40831e-16
20 1.95164e-15 2.22136e-15
20 4.20423e-16 -9.04081e-16
20 -9.43746e-16 -1.49191e-15
20 2.8962e-15 2.29834e-16
20 1.255e-15 2.05906e-15
20 0 0
20 0 0
20 1.11253e-15 -2.86155e-16
20 -5.72275e-16 -2.15165e-15
20 3.38517e-15 7.73615e-17
20 -1.54054e-15 6.567e-16
20 4.91517e-16 -6.67142e-16
20 2.0508e-15 2.99482e-16
20 1.72469e-15 1.98878e-16
20 -9.10613e-16 -2.80963e-15
20 4.11721e-15 2.00553e-17
20 1.11103e-16 -8.16681e-16
20 3.14084e-15 1.59932e-15
20 -6.4135e-16 -1.05475e-15
20 4.67175e-15 1.11185e-15
20 5.68772e-16 -4.56906e-16
20 2.33227e-15 2.37596e-15
20 5.23448e-16 -1.20011e-15
20 1.62981e-15 9.00474e-16
20 -1.18533e-15 -3.81507e-16
20 2.24923e-15 5.8525e-16
20 5.25627e-15 1.14678e-15
20 1.21277e-15 -7.93603e-16
20 1.20259e-15 2.87285e-15
20 -6.4139e-16 -1.84447e-16
20 1.35933e-15 -5.05154e-16
20 -1.81672e-15 1.65914e-15
20 1.57009e-15 3.54542e-16
20 7.33195e-16 -6.76546e-16
20 -1.08077e-15 -6.18053e-16
20 3.54694e-15 9.87131e-16
20 1.04196e-15 -1.63451e-15
20 1.4267e-15 1.25062e-15
20 -1.50519e-15 1.1828e-15
20 1.7263e-15 8.10423e-16
20 4.69693e-16 -7.65372e-16
20 1.61666e-15 4.22785e-17
20 -1.21119e-15 -2.87546e-15
20 3.11089e-15 -1.76094e-17
20 -1.19376e-15 -2.64284e-15
20 3.68991e-15 4.92279e-16
20 -4.73414e-16 -1.56573e-15
20 2.75364e-15 1.21307e-15
20 1.38241e-15 3.97909e-16
20 -1.16805e-15 -3.16691e-16
20 1.93869e-15 1.34829e-15
20 1.1405e-15 -2.02299e-15
20 2.63598e-16 -1.10974e-15
20 2.07999e-15 2.46223e-15
20 4.10015e-15 2.43477e-15
20 -1.14123e-15 -2.3795e-15
20 0 0
20 0 0
20 1.34433e-15 4.19435e-16
20 -1.98832e-15 1.21192e-15
20 1.39843e-15 4.36537e-16
20 1.24421e-15 3.53914e-16
20 1.35902e-15 5.69417e-16
20 -1.02918e-15 -1.1381e-15
20 4.25288e-15 1.75341e-15
20 8.596e-16 -1.71529e-15
20 2.06312e-15 1.14744e-15
20 1.17563e-15 5.00332e-17
20 1.11738e-15 3.05323e-16
20 -1.64256e-15 5.63414e-16
20 1.47889e-15 1.07631e-15
20 -1.56989e-15 -4.79166e-16
20 1.39416e-15 -2.81736e-15
20 1.86678e-15 -3.27318e-16
20 4.09659e-15 1.22362e-15
20 -1.25607e-15 -2.1237e-15
20 2.98263e-15 2.78328e-17
20 -2.42357e-15 9.22692e-16
20 1.54855e-15 1.2289e-16
20 1.90251e-15 1.08958e-15
20 1.38227e-15 1.76986e-15
20 -1.51202e-15 -2.50678e-15
20 3.43139e-15 -4.68099e-16
20 -1.05717e-15 -1.46102e-15
20 2.68282e-15 8.08322e-16
20 -1.67755e-15 -8.76049e-17
20 2.36215e-15 1.28659e-15
20 1.0655e-15 -1.1746e-15
20 1.04462e-15 -2.02778e-17
20 -1.38153e-15 -1.87669e-15
20 3.63318e-15 8.73763e-16
20 -1.91121e-16 -1.45352e-15
20 2.79051e-15 7.29715e-16
20 -2.20781e-15 1.08304e-15
20 7.48802e-16 4.58295e-16
20 1.07783e-15 9.70685e-16
20 1.87147e-15 1.76799e-15
20 5.67875e-16 -2.14047e-15
20 3.10311e-15 -4.18006e-16
20 -7.642e-16 -1.50929e-15
20 3.55852e-15 2.20846e-15
20 3.9261e-16 -1.89581e-16
20 -1.68919e-15 3.04507e-16
20 1.22087e-15 1.22051e-15
20 1.50175e-15 1.68823e-15
20 -1.47803e-15 -6.11303e-16
20 2.97431e-15 1.50133e-15
20 5.85509e-16 -1.84617e-15
20 1.7248e-15 3.66838e-17
20 0 0
20 0 0
20 1.52626e-15 4.94e-16
20 -2.69655e-15 1.10181e-15
20 1.197e-15 9.08478e-17
20 1.71383e-15 8.38114e-16
20 7.80292e-16 3.36272e-16
20 1.91156e-15 8.86206e-16
20 5.36666e-16 3.78784e-17
20 -2.28308e-15 1.40931e-16
20 5.06487e-16 -1.07855e-15
20 -1.24391e-15 -1.65151e-15
20 2.70539e-15 -2.11282e-16
20 -2.36754e-15 3.96868e-16
20 1.08767e-15 5.24998e-16
20 1.27747e-15 1.19105e-15
20 2.73679e-16 -3.10338e-17
20 -8.4897e-16 -1.36369e-15
20 2.64466e-15 4.91149e-16
20 -1.51937e-15 -1.60638e-15
20 3.13977e-15 -4.93422e-16
20 -5.38791e-16 -1.10283e-15
20 3.29611e-15 6.63097e-17
20 -2.10867e-15 -1.1112e-15
20 3.44264e-15 -6.80077e-16
20 2.5867e-15 4.33206e-16
20 -1.69696e-15 -1.13539e-15
20 3.08636e-15 6.44551e-16
20 -1.1093e-16 -1.41569e-15
20 -2.28527e-15 1.55834e-16
20 1.17278e-15 7.49658e-16
20 6.09625e-16 2.5107e-16
20 2.70552e-16 1.22635e-16
20 -2.72457e-15 1.60406e-15
20 1.39282e-15 3.73529e-16
20 1.8354e-15 -2.38297e-16
20 9.84857e-16 -6.45143e-16
20 -1.26486e-16 -1.34829e-15
20 1.39263e-15 8.54181e-16
20 -1.29495e-15 -5.97689e-16
20 2.33055e-15 1.68704e-15
20 -3.43026e-15 7.97433e-16
20 1.09784e-15 -5.91323e-16
20 1.24596e-15 7.3318e-16
20 -3.23793e-16 -7.5031e-16
20 -2.14292e-15 -5.97512e-16
20 7.71589e-16 1.04252e-15
20 -5.19309e-17 -1.5493e-16
20 1.0023e-15 5.44793e-16
20 -2.20276e-15 7.5827e-19
20 1.3637e-15 8.08093e-16
20 1.20097e-16 -9.30591e-16
20 7.90286e-16 1.13822e-15
20 -9.13064e-16 -1.37673e-15
20 2.29839e-15 4.06211e-16
20 2.97968e-15 -6.1423e-16
20 -1.21288e-15 -1.15604e-15
20 -5.56017e-16 -1.23939e-15
20 1.89433e-15 1.30125e-15
20 2.72692e-15 9.6546e-16
20 -1.80038e-15 -1.26445e-15
20 2.68159e-15 -9.49533e-16
20 -4.41836e-16 -9.62246e-16
20 0 0
20 0 0
20 7.06691e-16 -2.49373e-16
20 -2.67912e-15 1.7719e-15
20 1.22e-15 -3.28405e-16
20 1.0779e-15 -1.89562e-17
20 -8.52434e-17 -4.40214e-16
20 3.01373e-15 -6.37219e-16
20 2.55496e-15 1.23034e-15
20 -2.62001e-15 -1.32339e-15
20 -3.4632e-16 -1.07116e-15
20 -6.04456e-17 -1.8019e-16
20 -3.0259e-15 7.75411e-16
20 2.04861e-16 7.97173e-16
20 2.75527e-16 -1.20593e-16
20 9.86152e-16 2.46413e-16
20 -2.47767e-15 6.43356e-16
20 1.03395e-15 -5.58828e-16
20 -1.54563e-16 -3.22294e-16
20 2.15908e-15 4.94779e-16
20 -2.01598e-15 -9.42215e-16
20 -1.60931e-16 -1.31467e-15
20 1.7016e-15 2.09512e-15
20 5.39164e-16 1.47408e-16
20 -2.48309e-15 1.43188e-17
20 2.98612e-16 -1.70812e-16
20 6.20236e-16 1.40308e-16
20 -4.0831e-16 -4.05687e-17
20 -2.34998e-15 2.16173e-15
20 7.83838e-16 5.01478e-16
20 4.14813e-16 -7.3484e-17
20 9.37175e-16 7.79719e-16
20 1.60831e-16 -1.11533e-15
20 -2.20712e-15 -3.1562e-16
20 1.02698e-15 2.86365e-15
20 1.6055e-15 -1.5973e-15
20 -2.21168e-15 2.52437e-15
20 -6.3945e-16 -1.45998e-15
20 1.61416e-15 1.14911e-15
20 8.15412e-16 -4.97224e-16
20 -5.93729e-16 -3.24832e-16
20 -9.88799e-16 -1.44922e-15
20 2.43501e-15 1.23227e-15
20 1.88335e-15 -2.45709e-17
20 -4.52276e-16 -1.01737e-15
20 -3.26216e-16 -4.35607e-16
20 -1.25994e-15 -1.46718e-15
20 3.16229e-15 1.26395e-15
20 1.2903e-15 -1.86661e-15
20 -2.21891e-15 1.51991e-16
20 1.26323e-16 -1.09492e-16
20 2.43538e-16 1.64118e-17
20 1.2196e-15 1.02009e-15
20 4.30158e-16 -5.91481e-16
20 -2.12582e-15 -1.50869e-16
20 3.51201e-16 -5.91035e-17
20 1.11164e-15 -2.92821e-16
20 -1.78559e-15 -1.44692e-15
20 1.83198e-15 -1.01402e-15
20 -3.48414e-16 -1.08644e-15
20 2.44067e-15 1.7533e-15
20 2.35488e-15 1.49577e-16
20 -1.94182e-15 -1.53217e-15
20 -3.3175e-16 -1.72392e-15
20 1.83181e-15 3.4323e-15
20 0 0
20 0 0
20 -2.01082e-16 -7.71886e-17
20 -2.21814e-15 2.55737e-15
20 9.43084e-16 -2.38084e-16
20 2.73137e-16 -2.92591e-16
20 -5.50016e-16 7.76047e-17
20 1.65252e-15 6.49321e-18
20 -2.63774e-15 3.0245e-17
20 6.58156e-16 -8.27611e-18
20 -5.13536e-16 -5.15968e-16
20 -2.40787e-15 1.40626e-15
20 5.51516e-16 -1.62295e-15
20 6.4439e-16 4.31476e-19
20 -1.7126e-16 -1.72373e-16
20 -1.41668e-15 -5.00377e-16
20 1.13931e-15 -1.88408e-17
20 -2.20601e-18 -2.72517e-16
20 1.84726e-15 1.80816e-15
20 -4.66682e-16 -1.48425e-15
20 2.18093e-15 8.95357e-16
20 3.06925e-15 1.21479e-15
20 -8.42926e-16 -1.7137e-15
20 1.64927e-15 1.23344e-15
20 -2.87423e-16 -9.345e-16
20 -2.47831e-15 2.14179e-16
20 -5.31974e-16 -1.16783e-15
20 6.8306e-16 4.64659e-16
20 8.15311e-16 -1.349e-16
20 -1.03465e-15 -1.62544e-15
20 1.09639e-15 -5.90609e-16
20 -3.34996e-16 -9.75001e-16
20 2.56206e-15 9.63234e-16
20 1.99403e-15 4.13039e-16
20 -1.93873e-16 -5.81124e-16
20 -1.00491e-15 1.17928e-16
20 2.15609e-16 1.36945e-15
20 -2.10395e-15 2.6167e-15
20 5.89829e-16 1.99616e-15
20 -1.81365e-16 -4.66008e-16
20 -6.29465e-16 2.71306e-16
20 -3.89369e-16 -1.11508e-15
20 -1.32059e-15 -1.46496e-15
20 6.69006e-16 -1.70182e-15
20 2.21361e-15 1.08664e-15
20 -2.20696e-15 2.92668e-15
20 7.93167e-16 -1.85267e-15
20 4.36882e-17 -1.3365e-16
20 -5.68561e-16 4.04514e-16
20 -1.12721e-15 -1.18729e-15
20 1.32812e-15 -9.09757e-16
20 -1.84756e-16 -8.50901e-16
20 2.01754e-15 1.16391e-15
20 -1.53975e-15 4.0408e-16
20 -7.80906e-16 -8.4229e-16
20 3.52434e-16 1.04712e-15
20 1.62395e-15 1.64987e-16
20 6.06817e-16 9.2542e-16
20 -3.08701e-15 3.24872e-16
20 1.26048e-16 -7.10069e-16
20 -6.2276e-16 -2.45032e-15
20 2.53624e-15 5.23646e-16
20 -5.12888e-16 -2.71649e-16
20 1.45906e-15 -4.23535e-16
20 -5.3514e-17 3.79736e-16
20 0 0
20 0 0
20 9.47664e-17 -1.35167e-16
20 2.39103e-15 -1.59191e-17
20 -9.69298e-17 -1.8288e-15
20 -2.06268e-15 6.5247e-16
20 3.55624e-16 1.23431e-15
20 -1.42176e-15 -1.11353e-15
20 1.13147e-15 2.23079e-16
20 -5.56344e-16 -1.81391e-15
20 1.61465e-15 2.02643e-16
20 -2.5556e-16 -1.30224e-15
20 2.35341e-15 3.37015e-16
20 -2.32641e-15 2.71066e-15
20 9.17776e-17 -6.94858e-17
20 2.75357e-18 -1.67285e-16
20 -2.60808e-16 8.83674e-17
20 -5.72342e-16 1.06415e-16
20 1.62612e-17 -7.95603e-16
20 -3.12653e-17 1.20313e-15
20 2.12948e-15 5.88761e-17
20 -7.15157e-16 -1.85592e-15
20 -3.36977e-16 -1.41482e-15
20 1.80308e-15 2.87559e-16
20 7.76982e-16 -2.74489e-17
20 -2.6562e-15 1.4228e-15
20 -6.45845e-16 -2.06961e-15
20 -2.53856e-17 4.13888e-16
20 -1.43337e-16 -1.94416e-16
20 -9.22745e-16 -1.5589e-15
20 7.96806e-16 -9.0296e-16
20 -8.0296e-17 -1.41344e-15
20 1.5881e-15 1.32206e-16
20 1.71779e-15 1.73368e-17
20 -4.53681e-16 8.15676e-16
20 -9.94454e-16 -1.15854e-15
20 1.80347e-16 1.59299e-15
20 -7.33539e-16 -1.48038e-15
20 8.29536e-16 -1.66325e-15
20 1.48849e-15 -3.86935e-16
20 3.56088e-17 -9.44341e-16
20 -2.46135e-15 1.85118e-16
20 -1.52708e-15 -1.86436e-15
20 2.26639e-16 1.24771e-15
20 7.64257e-16 -2.187e-16
20 -3.07537e-17 1.48253e-15
20 6.00823e-16 -1.66858e-16
20 -2.45911e-15 2.95358e-15
20 5.89073e-16 -1.79107e-16
20 -6.05563e-16 -9.35704e-16
20 6.74078e-16 -1.21582e-15
20 -2.93928e-16 2.15631e-16
20 1.78625e-15 -1.12446e-16
20 -2.53564e-15 2.34567e-15
20 -9.85132e-16 -1.90396e-15
20 -4.52132e-16 9.73734e-17
20 -4.34277e-16 -1.43243e-16
20 -1.42662e-15 2.47544e-16
20 -1.66465e-15 -1.60372e-15
20 5.40899e-16 1.40677e-15
20 1.6941e-15 3.62636e-17
20 -4.61718e-16 -1.19713e-15
20 2.31181e-15 -1.78863e-16
20 -3.17892e-16 -2.36294e-16
20 -4.67503e-16 1.47035e-15
20 -2.05691e-16 -1.01921e-15
20 2.26984e-15 -7.18517e-16
20 1.64133e-15 -3.79501e-16
20 -3.00909e-16 -1.03083e-15
20 2.1503e-15 -1.38375e-16
20 -5.70365e-16 -1.85724e-15
20 3.03443e-16 -3.28868e-16
20 -2.79518e-15 9.39645e-17
20 -1.76865e-15 -2.0715e-15
20 -2.99916e-16 7.66409e-16
20 -7.22483e-16 -1.43303e-15
20 1.17506e-15 -2.26592e-16
20 8.62353e-17 -1.34911e-15
20 1.56978e-15 1.30886e-16
20 9.117e-16 -2.19322e-16
20 -9.21691e-16 -1.43433e-15
20 3.69552e-16 -2.17953e-15
20 8.47225e-16 -4.58438e-16
20 1.49606e-15 -5.89427e-17
20 -1.90054e-15 -3.30834e-16
20 -2.29514e-15 -1.8221e-15
20 2.44029e-16 2.06469e-15
20 -8.52023e-16 1.77561e-16
20 -1.06078e-15 -1.34208e-15
20 5.27173e-16 9.60227e-16
20 1.93376e-15 -3.07608e-16
20 0 0
20 0 0
20 -3.20385e-16 7.34001e-16
20 -8.59974e-16 -1.55637e-15
20 1.02886e-15 -9.43347e-16
20 -3.29632e-16 -9.81999e-16
20 1.02074e-15 -7.97555e-17
20 -2.3363e-15 2.42606e-15
20 -5.96235e-16 -3.23307e-16
20 9.01316e-18 5.19896e-16
20 -9.37278e-16 3.40444e-16
20 -2.16857e-15 1.33622e-15
20 -1.52133e-15 -1.79295e-15
20 -8.72787e-18 1.46264e-16
20 -7.1685e-16 -9.43298e-17
20 -6.90302e-16 -4.32206e-17
20 -8.57932e-16 -1.7545e-15
20 6.13406e-16 -1.75728e-15
20 8.50422e-16 1.32022e-16
20 -1.28959e-15 -1.47138e-16
20 -1.94725e-15 -2.32072e-15
20 2.43107e-15 -3.6419e-17
20 1.3836e-15 7.35096e-16
20 -1.77756e-15 -2.73228e-17
20 -2.07097e-15 -1.74469e-15
20 2.6003e-16 6.34014e-16
20 7.12574e-16 -2.66859e-16
20 -1.03447e-15 -7.75553e-16
20 -3.00994e-16 -1.19046e-15
20 7.04917e-17 3.71611e-16
20 1.20337e-15 -5.23652e-16
20 3.06458e-15 -1.81659e-16
20 -8.78667e-16 -7.16295e-17
20 9.31925e-17 -3.35785e-16
20 1.98815e-15 3.73396e-16
20 -7.00314e-16 -6.80615e-16
20 2.2444e-15 -2.86383e-16
20 1.37021e-15 -2.80097e-16
20 -6.8272e-16 -5.84635e-16
20 6.13275e-16 -7.71259e-16
20 1.47853e-15 8.32798e-16
20 -5.23994e-16 1.78256e-15
20 -2.28283e-15 2.24559e-15
20 -2.88857e-16 1.05835e-15
20 -1.94744e-15 1.49941e-15
20 -2.06764e-15 2.1594e-15
20 -1.0802e-15 -1.93015e-15
20 4.11355e-16 3.66506e-16
20 -1.95647e-15 1.84716e-16
20 -7.92241e-16 -9.48876e-16
20 1.18882e-15 -2.1491e-16
20 -1.3974e-16 -1.13422e-15
20 1.38737e-15 3.76928e-16
20 -1.69723e-15 -4.08501e-16
20 -2.13953e-15 -2.35966e-15
20 8.87228e-16 5.97573e-16
20 2.20995e-15 -3.9494e-16
20 1.31633e-15 -4.92831e-16
20 -1.0957e-15 -8.69851e-16
20 -1.34693e-15 2.78002e-16
20 1.01225e-15 4.24669e-17
20 8.96808e-16 3.94329e-16
20 -9.26736e-16 -1.55627e-15
20 -1.03339e-15 -7.609e-16
20 1.76079e-15 -1.33536e-16
20 -1.27581e-15 7.45847e-16
20 -2.25135e-15 -1.2662e-15
20 3.05781e-16 -6.45231e-16
20 -7.801e-16 -8.99243e-17
20 -1.06417e-15 -1.41784e-15
20 7.5998e-16 -1.02799e-15
20 -2.67759e-16 -1.28803e-16
20 7.5252e-16 -3.26924e-16
20 -1.60425e-15 -8.36813e-17
20 -1.70296e-15 -2.06756e-15
20 1.25393e-15 -3.51838e-16
20 2.35672e-15 -5.36952e-16
20 -1.13873e-15 -6.1827e-16
20 -1.96872e-15 -1.81896e-15
20 7.90226e-16 3.50191e-16
20 1.83089e-15 -5.89702e-16
20 0 0
20 0 0
20 -3.82114e-16 1.42499e-15
20 -2.12906e-15 1.6385e-15
20 -9.12987e-16 -5.54506e-16
20 4.76786e-16 1.37264e-15
20 -1.15344e-15 5.36978e-16
20 4.27522e-16 1.68486e-17
20 3.76887e-16 -1.01528e-15
20 -1.61511e-15 -1.38942e-15
20 -5.15986e-16 -1.11549e-15
20 4.60723e-16 3.98376e-16
20 -1.68909e-15 9.55293e-16
20 -1.7853e-15 -1.31584e-15
20 -8.531e-16 -5.3238e-16
20 -3.50111e-17 1.11407e-17
20 2.07318e-15 1.18759e-16
20 -6.69503e-16 -2.08958e-16
20 2.90146e-15 -3.04274e-16
20 9.39072e-16 5.3058e-16
20 1.25916e-15 9.80821e-16
20 -6.7679e-16 -2.21707e-16
20 1.81388e-15 -6.01707e-16
20 5.63447e-16 -4.60678e-16
20 1.98357e-15 1.14133e-15
20 1.13106e-15 -7.59682e-16
20 -2.46008e-15 -5.37763e-16
20 -2.34701e-15 -3.47684e-15
20 3.08179e-15 -8.94697e-16
20 7.12588e-16 -2.26687e-16
20 -5.08398e-16 -8.25183e-16
20 2.32693e-15 7.39023e-16
20 -6.37818e-16 -2.20276e-16
20 8.15937e-16 -1.0112e-15
20 -1.34325e-15 3.64618e-17
20 -1.97961e-15 -1.101e-15
20 3.00426e-16 -3.19458e-16
20 -1.49984e-15 -7.38911e-16
20 -1.14086e-15 -1.17732e-15
20 1.07016e-15 -4.88932e-16
20 1.71371e-15 -4.50885e-16
20 -8.05135e-16 -8.47211e-16
20 1.14233e-15 -3.7574e-16
20 -1.57947e-16 -6.0339e-16
20 1.41273e-15 1.52687e-16
20 -7.30663e-16 4.46662e-16
20 9.50663e-16 1.63683e-15
20 -1.9584e-15 1.29806e-15
20 -7.68234e-18 7.81151e-16
20 6.24592e-16 -7.1381e-16
20 2.42342e-15 -8.60447e-16
20 -2.10722e-15 -1.15309e-16
20 -1.97251e-15 -2.28534e-15
20 -2.20738e-15 8.50972e-16
20 -1.55223e-15 -1.79289e-15
20 -7.02157e-16 -3.17364e-16
20 1.06912e-15 1.70468e-15
20 -1.42189e-15 -1.60281e-15
20 1.48882e-15 -1.42523e-15
20 -1.32039e-15 7.21743e-17
20 2.59771e-15 -7.2386e-16
20 1.18171e-15 -1.10563e-15
20 2.25131e-16 2.7206e-16
20 -8.56916e-16 -9.71194e-16
20 8.85963e-16 -8.18765e-16
20 -1.20552e-15 6.4953e-17
20 5.66381e-17 1.67548e-16
20 -2.25744e-15 -2.74129e-16
20 2.63246e-17 -1.90695e-15
20 -1.58382e-15 -1.01509e-15
20 -3.04907e-16 -1.33776e-15
20 7.04294e-16 -3.41984e-17
20 1.54542e-15 -3.78054e-16
20 4.69053e-16 -2.05429e-16
20 1.06753e-15 -1.98528e-17
20 1.18112e-15 -9.32767e-16
20 2.68733e-15 -2.65229e-16
20 -1.84929e-15 -7.24449e-19
20 -1.98629e-15 -2.59132e-15
20 -1.37524e-16 -1.72303e-16
20 1.68457e-15 -6.36177e-16
20 7.59494e-16 -3.47467e-16
20 1.92724e-15 1.02869e-15
20 4.9058e-17 -1.15034e-15
20 -1.75293e-15 -4.66834e-17
20 2.18663e-15 -1.45823e-15
20 -1.44093e-15 -1.04473e-15
20 -7.17121e-16 1.27042e-16
20 2.86967e-15 2.01268e-15
20 1.20984e-15 -7.7685e-16
20 2.27125e-15 -1.59577e-15
20 -1.71692e-15 -1.9164e-15
20 -1.52987e-15 -1.12112e-15
20 1.35203e-15 -5.89807e-16
20 2.56393e-15 4.28436e-16
20 0 0
20 0 0
20 -8.42096e-16 -2.65131e-16
20 1.59523e-15 -6.76301e-16
20 8.0014e-16 -1.12023e-15
20 2.34282e-15 7.75053e-16
20 6.88648e-16 4.06069e-16
20 -2.0225e-15 7.84338e-16
20 -1.03701e-15 -7.11477e-16
20 1.09449e-15 1.05412e-15
20 -1.638e-16 -1.55183e-18
20 -7.9907e-16 -6.4111e-16
20 9.14233e-16 -3.71048e-17
20 6.84868e-16 -1.09953e-15
20 1.54122e-15 2.9616e-16
20 -1.87158e-15 -5.94705e-17
20 -1.83151e-15 -1.03068e-15
20 6.88633e-16 1.15403e-15
20 -4.12412e-16 -8.42387e-16
20 -2.13338e-15 -2.80081e-15