/*--------------------------------*- C++ -*----------------------------------*\
| =========                 |                                                 |
| \\      /  F ield         | OpenFOAM: The Open Source CFD Toolbox           |
|  \\    /   O peration     | Version:  3.0.0                                 |
|   \\  /    A nd           | Web:      www.OpenFOAM.org                      |
|    \\/     M anipulation  |                                                 |
\*---------------------------------------------------------------------------*/
FoamFile
{
    version     2.0;
    format      ascii;
    class       volScalarField;
    location    "0.024";
    object      p;
}
// * * * * * * * * * * * * * * * * * * * * * * * * * * * * * * * * * * * * * //

dimensions      [1 -1 -2 0 0 0 0];

internalField   nonuniform List<scalar> 
1000
(
29986.9
29981.3
29975.5
29970.4
29965.5
29960.5
29955.5
29950.4
29945.4
29940.3
29935.3
29930.2
29925.2
29920.1
29915
29910
29904.9
29899.8
29894.7
29889.6
29884.5
29879.3
29874.2
29869.1
29863.9
29858.8
29853.6
29848.5
29843.3
29838.1
29832.9
29827.8
29822.6
29817.4
29812.1
29806.9
29801.7
29796.5
29791.2
29786
29780.7
29775.5
29770.2
29764.9
29759.6
29754.4
29749.1
29743.8
29738.4
29733.1
29727.8
29722.5
29717.1
29711.8
29706.4
29701.1
29695.7
29690.3
29685
29679.6
29674.2
29668.8
29663.4
29657.9
29652.5
29647.1
29641.6
29636.2
29630.7
29625.3
29619.8
29614.3
29608.8
29603.4
29597.9
29592.3
29586.8
29581.3
29575.8
29570.2
29564.7
29559.1
29553.5
29548
29542.4
29536.8
29531.2
29525.6
29520
29514.4
29508.8
29503.1
29497.5
29491.8
29486.2
29480.5
29474.8
29469.1
29463.5
29457.8
29452.1
29446.3
29440.6
29434.9
29429.2
29423.4
29417.7
29411.9
29406.1
29400.4
29394.6
29388.8
29383
29377.2
29371.4
29365.5
29359.7
29353.9
29348
29342.2
29336.3
29330.4
29324.5
29318.6
29312.8
29306.8
29300.9
29295
29289.1
29283.1
29277.2
29271.2
29265.3
29259.3
29253.3
29247.3
29241.3
29235.3
29229.3
29223.3
29217.2
29211.2
29205.1
29199.1
29193
29186.9
29180.8
29174.7
29168.6
29162.5
29156.4
29150.3
29144.1
29138
29131.8
29125.7
29119.5
29113.3
29107.1
29100.9
29094.7
29088.5
29082.3
29076
29069.8
29063.5
29057.3
29051
29044.7
29038.4
29032.2
29025.8
29019.5
29013.2
29006.9
29000.5
28994.2
28987.8
28981.5
28975.1
28968.7
28962.3
28955.9
28949.5
28943.1
28936.6
28930.2
28923.7
28917.3
28910.8
28904.3
28897.8
28891.3
28884.8
28878.3
28871.8
28865.3
28858.7
28852.2
28845.6
28839.1
28832.5
28825.9
28819.3
28812.7
28806.1
28799.5
28792.8
28786.2
28779.5
28772.9
28766.2
28759.5
28752.8
28746.2
28739.5
28732.7
28726
28719.3
28712.5
28705.8
28699
28692.3
28685.5
28678.7
28671.9
28665.1
28658.3
28651.5
28644.7
28637.8
28631
28624.1
28617.3
28610.4
28603.5
28596.6
28589.7
28582.8
28575.9
28569
28562
28555.1
28548.1
28541.2
28534.2
28527.2
28520.2
28513.2
28506.2
28499.2
28492.2
28485.2
28478.2
28471.1
28464.1
28457
28449.9
28442.9
28435.8
28428.7
28421.6
28414.5
28407.4
28400.2
28393.1
28386
28378.8
28371.7
28364.5
28357.3
28350.2
28343
28335.8
28328.6
28321.4
28314.2
28306.9
28299.7
28292.5
28285.3
28278
28270.8
28263.5
28256.2
28249
28241.7
28234.4
28227.1
28219.8
28212.5
28205.2
28197.9
28190.6
28183.2
28175.9
28168.6
28161.2
28153.9
28146.5
28139.2
28131.8
28124.5
28117.1
28109.7
28102.4
28095
28087.6
28080.2
28072.8
28065.5
28058.1
28050.7
28043.3
28035.9
28028.5
28021.1
28013.7
28006.3
27998.8
27991.4
27984
27976.6
27969.2
27961.8
27954.4
27947
27939.6
27932.2
27924.8
27917.4
27910
27902.6
27895.2
27887.8
27880.5
27873.1
27865.7
27858.3
27851
27843.6
27836.3
27828.9
27821.6
27814.3
27807
27799.7
27792.4
27785.1
27777.8
27770.5
27763.3
27756
27748.8
27741.6
27734.4
27727.2
27720.1
27712.9
27705.8
27698.7
27691.6
27684.5
27677.5
27670.5
27663.5
27656.5
27649.5
27642.6
27635.7
27628.9
27622
27615.2
27608.4
27601.7
27595
27588.3
27581.7
27575.1
27568.6
27562.1
27555.6
27549.2
27542.9
27536.6
27530.3
27524.1
27518
27511.9
27505.9
27499.9
27494
27488.2
27482.4
27476.7
27471.1
27465.6
27460.2
27454.8
27449.5
27444.4
27439.3
27434.3
27429.4
27424.6
27420
27415.4
27411
27406.7
27402.5
27398.4
27394.5
27390.7
27387.1
27383.6
27380.3
27377.2
27374.2
27371.3
27368.7
27366.3
27364
27361.9
27360.1
27358.4
27357
27355.8
27354.9
27354.2
27353.8
27353.8
27353.8
27354
27354.5
27355.3
27356.5
27358.1
27359.9
27362.1
27364.6
27367.4
27370.7
27374.2
27378.2
27382.5
27387.3
27392.4
27398
27403.9
27410.4
27417.2
27424.5
27432.2
27440.5
27449.2
27458.3
27468
27478.1
27488.8
27499.9
27511.6
27523.8
27536.5
27549.7
27563.4
27577.7
27592.5
27607.8
27623.6
27639.9
27656.8
27674.1
27692
27710.4
27729.2
27748.5
27768.3
27788.6
27809.3
27830.5
27852.1
27874.1
27896.4
27919.2
27942.4
27965.9
27989.7
28013.9
28038.3
28063.1
28088.1
28113.4
28138.9
28164.6
28190.5
28216.7
28242.9
28269.4
28296
28322.7
28349.5
28376.4
28403.4
28430.4
28457.5
28484.6
28511.8
28539
28566.2
28593.4
28620.5
28647.7
28674.8
28701.8
28728.8
28755.8
28782.7
28809.5
28836.2
28862.8
28889.3
28915.8
28942.1
28968.3
28994.4
29020.3
29046.2
29071.8
29097.4
29122.7
29148
29173
29197.9
29222.7
29247.2
29271.6
29295.7
29319.7
29343.5
29367.1
29390.4
29413.6
29436.5
29459.2
29481.7
29503.9
29525.9
29547.6
29569.1
29590.3
29611.3
29632
29652.4
29672.6
29692.4
29712
29731.3
29750.3
29769
29787.4
29805.5
29823.2
29840.7
29857.8
29874.6
29891.1
29907.3
29923.1
29938.6
29953.8
29968.6
29983.1
29997.3
30011.1
30024.5
30037.7
30050.5
30062.9
30075
30086.8
30098.3
30109.4
30120.2
30130.6
30140.7
30150.5
30160
30169.1
30178
30186.5
30194.7
30202.6
30210.2
30217.6
30224.6
30231.4
30237.8
30244
30250
30255.7
30261.1
30266.3
30271.3
30276
30280.5
30284.7
30288.8
30292.7
30296.3
30299.8
30303.1
30306.2
30309.1
30311.9
30314.5
30317
30319.3
30321.5
30323.6
30325.5
30327.3
30329
30330.6
30332.1
30333.5
30334.8
30336
30337.1
30338.1
30339.1
30340
30340.8
30341.6
30342.3
30343
30343.6
30344.2
30344.7
30345.2
30345.6
30346
30346.4
30346.7
30347.1
30347.3
30347.6
30347.9
30348.1
30348.3
30348.5
30348.6
30348.8
30348.9
30349
30349.1
30349.2
30349.3
30349.4
30349.5
30349.6
30349.6
30349.7
30349.7
30349.8
30349.8
30349.8
30349.9
30349.9
30349.9
30349.9
30350
30350
30350
30350
30350
30350
30350
30350.1
30350.1
30350.1
30350.1
30350.1
30350.1
30350.1
30350.1
30350.1
30350.1
30350.1
30350.1
30350.1
30350.1
30350.1
30350.1
30350.1
30350.1
30350.1
30350.1
30350.1
30350.1
30350.1
30350.1
30350.1
30350.1
30350.1
30350.1
30350.1
30350.1
30350.1
30350.1
30350.1
30350.1
30350.1
30350.1
30350.1
30350.1
30350.1
30350.1
30350
30350
30350
30350
30350
30350
30350
30350
30350
30350
30350
30350
30350
30350
30350
30350
30350
30350
30350
30350
30350
30350
30350
30350
30350
30350
30350
30350
30350
30350
30350
30350
30350
30350
30350
30350
30350
30350
30350
30350
30350
30350
30350
30350
30350
30350
30350
30350
30350
30350
30350
30350
30350
30350
30350
30350
30350
30350
30350
30350
30350
30350
30350
30350
30350
30350
30350
30350
30350
30350
30350
30350
30350
30350
30350
30350
30350
30350
30350
30350
30350
30350
30350
30350
30350
30350
30350
30350
30350
30350
30350
30350
30349.9
30349.9
30349.9
30349.9
30349.9
30349.9
30349.9
30349.9
30349.9
30349.9
30349.9
30349.9
30349.9
30349.9
30349.9
30349.9
30349.9
30349.9
30349.9
30349.9
30349.9
30349.9
30349.9
30349.9
30349.9
30349.9
30349.9
30349.9
30349.9
30349.9
30349.9
30349.9
30349.9
30349.9
30349.9
30349.9
30350
30350
30350
30350
30350
30350
30350
30350
30350
30350
30350
30350
30350
30350
30350
30350
30350
30350
30350
30350.1
30350.1
30350.2
30350.2
30350.3
30350.4
30350.5
30350.7
30350.8
30351
30351.2
30351.5
30351.8
30352.2
30352.6
30353.1
30353.7
30354.3
30355.1
30355.9
30356.9
30358
30359.2
30360.6
30362.2
30363.9
30365.9
30368
30370.4
30373
30375.9
30379
30382.4
30386.1
30390.1
30394.3
30398.9
30403.8
30408.9
30414.3
30420.1
30426
30432.3
30438.8
30445.5
30452.4
30459.5
30466.7
30474
30481.5
30488.9
30496.4
30503.9
30511.4
30518.7
30526
30533.1
30540
30546.8
30553.3
30559.6
30565.6
30571.3
30576.8
30581.9
30586.8
30591.3
30595.6
30599.5
30603.1
30606.5
30609.6
30612.4
30614.9
30617.3
30619.3
30621.2
30622.9
30624.4
30625.7
30626.9
30627.9
30628.8
30629.6
30630.3
30631
30631.5
30631.9
30632.3
30632.7
30633
30633.2
30633.4
30633.6
30633.7
30633.8
30633.9
30633.9
30633.9
30633.9
30633.8
30633.7
30633.5
30633.3
30633.1
30632.8
30632.4
30632
30631.6
30631.1
30630.6
30630.1
30629.6
30629
30628.4
30627.8
30627.2
30626.6
30626.1
30625.5
30625
30624.5
30624
30623.6
30623.2
30622.9
30622.6
30622.3
30622.1
30621.9
30621.8
30621.7
30621.6
30621.5
30621.5
30621.4
)
;

boundaryField
{
    sides
    {
        type            zeroGradient;
    }
    empty
    {
        type            empty;
    }
}


// ************************************************************************* //
