/*--------------------------------*- C++ -*----------------------------------*\
| =========                 |                                                 |
| \\      /  F ield         | OpenFOAM: The Open Source CFD Toolbox           |
|  \\    /   O peration     | Version:  3.0.0                                 |
|   \\  /    A nd           | Web:      www.OpenFOAM.org                      |
|    \\/     M anipulation  |                                                 |
\*---------------------------------------------------------------------------*/
FoamFile
{
    version     2.0;
    format      ascii;
    class       surfaceScalarField;
    location    "0.024";
    object      phi;
}
// * * * * * * * * * * * * * * * * * * * * * * * * * * * * * * * * * * * * * //

dimensions      [1 0 -1 0 0 0 0];

internalField   nonuniform List<scalar> 
999
(
17.11
18.0496
18.9888
19.927
20.864
21.8006
22.7378
23.676
24.6153
25.5554
26.4958
27.4362
28.3769
29.3183
30.2597
31.2009
32.142
33.083
34.0239
34.9647
35.9053
36.8459
37.7863
38.7266
39.6668
40.6069
41.5469
42.4867
43.4264
44.3661
45.3056
46.2449
47.1842
48.1234
49.0624
50.0013
50.9401
51.8787
52.8173
53.7557
54.694
55.6321
56.5702
57.5081
58.4458
59.3835
60.321
61.2584
62.1956
63.1327
64.0697
65.0065
65.9432
66.8797
67.8162
68.7524
69.6886
70.6245
71.5604
72.4961
73.4316
74.3671
75.3023
76.2375
77.1725
78.1073
79.042
79.9766
80.911
81.8452
82.7794
83.7133
84.6472
85.5809
86.5144
87.4478
88.381
89.3141
90.2471
91.1798
92.1125
93.0449
93.9772
94.9094
95.8414
96.7732
97.7049
98.6364
99.5678
100.499
101.43
102.361
103.291
104.222
105.152
106.082
107.012
107.942
108.872
109.801
110.731
111.66
112.589
113.518
114.446
115.375
116.303
117.231
118.159
119.086
120.014
120.941
121.868
122.795
123.722
124.649
125.575
126.501
127.427
128.353
129.279
130.204
131.129
132.054
132.979
133.904
134.828
135.753
136.677
137.601
138.524
139.448
140.371
141.294
142.216
143.139
144.061
144.984
145.906
146.827
147.749
148.67
149.592
150.512
151.433
152.354
153.274
154.194
155.114
156.033
156.952
157.871
158.79
159.709
160.627
161.546
162.464
163.381
164.299
165.216
166.133
167.05
167.966
168.883
169.799
170.714
171.63
172.545
173.46
174.375
175.29
176.204
177.118
178.032
178.946
179.859
180.772
181.685
182.597
183.51
184.422
185.333
186.245
187.156
188.067
188.978
189.888
190.798
191.708
192.618
193.527
194.436
195.345
196.254
197.162
198.07
198.978
199.885
200.792
201.699
202.606
203.512
204.418
205.324
206.229
207.134
208.039
208.943
209.848
210.751
211.655
212.558
213.461
214.364
215.267
216.169
217.07
217.972
218.873
219.774
220.675
221.575
222.475
223.374
224.274
225.173
226.071
226.97
227.868
228.765
229.663
230.56
231.456
232.353
233.249
234.144
235.04
235.935
236.829
237.724
238.618
239.511
240.405
241.298
242.19
243.082
243.974
244.866
245.757
246.648
247.538
248.429
249.318
250.208
251.097
251.985
252.874
253.762
254.649
255.536
256.423
257.31
258.196
259.081
259.967
260.852
261.736
262.62
263.504
264.387
265.27
266.153
267.035
267.917
268.798
269.679
270.56
271.44
272.32
273.199
274.078
274.957
275.835
276.713
277.59
278.467
279.343
280.219
281.095
281.97
282.845
283.719
284.593
285.466
286.339
287.212
288.084
288.956
289.827
290.698
291.568
292.438
293.307
294.176
295.045
295.913
296.78
297.647
298.514
299.38
300.246
301.111
301.976
302.84
303.704
304.567
305.43
306.292
307.154
308.015
308.876
309.736
310.596
311.455
312.314
313.172
314.03
314.887
315.743
316.6
317.455
318.31
319.165
320.019
320.872
321.725
322.578
323.429
324.281
325.131
325.982
326.831
327.68
328.529
329.376
330.224
331.07
331.917
332.762
333.607
334.451
335.295
336.138
336.981
337.823
338.664
339.505
340.345
341.184
342.023
342.861
343.698
344.535
345.371
346.207
347.042
347.876
348.71
349.542
350.375
351.206
352.037
352.867
353.696
354.525
355.353
356.18
357.007
357.832
358.657
359.482
360.305
361.128
361.95
362.771
363.592
364.412
365.23
366.049
366.866
367.682
368.498
369.313
370.127
370.94
371.753
372.564
373.375
374.184
374.993
375.801
376.608
377.415
378.22
379.024
379.828
380.63
381.432
382.232
383.032
383.831
384.628
385.425
386.221
387.015
387.809
388.601
389.393
390.183
390.973
391.761
392.548
393.334
394.119
394.903
395.686
396.467
397.248
398.027
398.804
399.58
400.356
401.132
401.906
402.678
403.448
404.218
404.986
405.753
406.519
407.283
408.046
408.808
409.568
410.327
411.085
411.841
412.596
413.35
414.102
414.853
415.603
416.351
417.098
417.843
418.587
419.33
420.071
420.811
421.549
422.286
423.022
423.756
424.489
425.221
425.951
426.68
427.408
428.134
428.859
429.583
430.305
431.026
431.746
432.464
433.181
433.897
434.612
435.326
436.038
436.749
437.459
438.168
438.876
439.582
440.287
440.991
441.694
442.395
443.096
443.795
444.493
445.19
445.885
446.58
447.273
447.964
448.654
449.343
450.031
450.717
451.402
452.085
452.766
453.446
454.124
454.801
455.475
456.148
456.819
457.488
458.155
458.819
459.482
460.142
460.8
461.455
462.108
462.759
463.406
464.051
464.693
465.332
465.967
466.6
467.229
467.855
468.478
469.096
469.711
470.322
470.929
471.532
472.131
472.726
473.316
473.901
474.482
475.058
475.629
476.194
476.755
477.31
477.86
478.404
478.943
479.475
480.002
480.522
481.037
481.544
482.046
482.541
483.029
483.51
483.984
484.451
484.911
485.364
485.81
486.248
486.678
487.101
487.516
487.923
488.322
488.713
489.097
489.472
489.839
490.198
490.549
490.891
491.226
491.552
491.87
492.179
492.481
492.774
493.058
493.335
493.604
493.864
494.117
494.361
494.598
494.826
495.047
495.261
495.466
495.665
495.856
496.039
496.216
496.386
496.549
496.705
496.854
496.998
497.135
497.266
497.391
497.51
497.623
497.732
497.834
497.932
498.025
498.113
498.196
498.275
498.35
498.421
498.487
498.55
498.609
498.665
498.717
498.766
498.812
498.856
498.896
498.934
498.97
499.003
499.033
499.062
499.089
499.114
499.137
499.158
499.178
499.197
499.214
499.229
499.244
499.257
499.27
499.281
499.291
499.301
499.31
499.318
499.325
499.332
499.338
499.343
499.348
499.353
499.357
499.361
499.364
499.367
499.37
499.373
499.375
499.377
499.378
499.38
499.381
499.383
499.384
499.385
499.386
499.386
499.387
499.387
499.388
499.388
499.388
499.389
499.389
499.389
499.389
499.389
499.389
499.389
499.389
499.389
499.389
499.389
499.389
499.388
499.388
499.388
499.388
499.388
499.387
499.387
499.387
499.387
499.386
499.386
499.386
499.385
499.385
499.385
499.385
499.384
499.384
499.384
499.383
499.383
499.383
499.382
499.382
499.382
499.381
499.381
499.381
499.38
499.38
499.38
499.379
499.379
499.379
499.378
499.378
499.378
499.377
499.377
499.377
499.376
499.376
499.376
499.375
499.375
499.375
499.374
499.374
499.374
499.373
499.373
499.372
499.372
499.372
499.371
499.371
499.371
499.37
499.37
499.37
499.369
499.369
499.368
499.368
499.368
499.367
499.367
499.366
499.366
499.366
499.365
499.365
499.364
499.364
499.364
499.363
499.363
499.362
499.362
499.362
499.361
499.361
499.36
499.36
499.36
499.359
499.359
499.358
499.358
499.357
499.357
499.357
499.356
499.356
499.355
499.355
499.354
499.354
499.354
499.353
499.353
499.352
499.352
499.351
499.351
499.35
499.35
499.349
499.349
499.348
499.348
499.348
499.347
499.347
499.346
499.346
499.345
499.345
499.344
499.344
499.343
499.343
499.342
499.342
499.341
499.341
499.34
499.34
499.339
499.339
499.338
499.337
499.337
499.336
499.336
499.335
499.335
499.334
499.334
499.333
499.333
499.332
499.332
499.331
499.33
499.33
499.329
499.329
499.328
499.328
499.327
499.326
499.326
499.325
499.325
499.324
499.323
499.323
499.322
499.322
499.321
499.32
499.32
499.319
499.319
499.318
499.317
499.317
499.316
499.315
499.315
499.314
499.313
499.313
499.312
499.311
499.311
499.31
499.309
499.309
499.308
499.307
499.306
499.306
499.305
499.304
499.303
499.302
499.301
499.3
499.299
499.298
499.297
499.296
499.295
499.294
499.292
499.291
499.289
499.287
499.285
499.283
499.281
499.279
499.276
499.273
499.27
499.267
499.263
499.26
499.256
499.251
499.247
499.242
499.237
499.231
499.225
499.219
499.213
499.206
499.199
499.192
499.185
499.177
499.169
499.161
499.153
499.145
499.136
499.128
499.12
499.111
499.103
499.095
499.087
499.079
499.071
499.064
499.057
499.05
499.043
499.037
499.031
499.025
499.019
499.014
499.009
499.005
499.001
498.997
498.993
498.989
498.986
498.983
498.98
498.978
498.975
498.973
498.971
498.969
498.967
498.965
498.963
498.961
498.96
498.958
498.956
498.955
498.954
498.952
498.951
498.949
498.948
498.947
498.945
498.944
498.943
498.941
498.94
498.939
498.938
498.936
498.935
498.934
498.933
498.932
498.931
498.93
498.929
498.928
498.927
498.927
498.926
498.925
498.924
498.923
498.922
498.921
498.92
498.919
498.918
498.917
498.916
498.914
498.913
498.911
498.91
498.908
498.907
498.905
498.903
498.902
498.9
498.898
498.896
498.894
498.892
)
;

boundaryField
{
    sides
    {
        type            calculated;
        value           nonuniform List<scalar> 2(498.89 -16.17);
    }
    empty
    {
        type            empty;
        value           nonuniform 0();
    }
}


// ************************************************************************* //
