/*--------------------------------*- C++ -*----------------------------------*\
| =========                 |                                                 |
| \\      /  F ield         | OpenFOAM: The Open Source CFD Toolbox           |
|  \\    /   O peration     | Version:  3.0.0                                 |
|   \\  /    A nd           | Web:      www.OpenFOAM.org                      |
|    \\/     M anipulation  |                                                 |
\*---------------------------------------------------------------------------*/
FoamFile
{
    version     2.0;
    format      ascii;
    class       volScalarField;
    location    "0.024";
    object      T;
}
// * * * * * * * * * * * * * * * * * * * * * * * * * * * * * * * * * * * * * //

dimensions      [0 0 0 1 0 0 0];

internalField   nonuniform List<scalar> 
1000
(
246.293
246.332
246.383
246.439
246.504
246.571
246.629
246.67
246.694
246.705
246.708
246.707
246.705
246.696
246.683
246.671
246.658
246.646
246.633
246.621
246.609
246.596
246.584
246.572
246.56
246.547
246.535
246.523
246.51
246.498
246.485
246.473
246.461
246.448
246.436
246.423
246.411
246.398
246.386
246.373
246.361
246.348
246.335
246.323
246.31
246.297
246.285
246.272
246.259
246.247
246.234
246.221
246.208
246.195
246.183
246.17
246.157
246.144
246.131
246.118
246.105
246.092
246.079
246.066
246.053
246.04
246.027
246.014
246.001
245.988
245.975
245.962
245.949
245.935
245.922
245.909
245.896
245.882
245.869
245.856
245.843
245.829
245.816
245.802
245.789
245.776
245.762
245.749
245.735
245.722
245.708
245.695
245.681
245.668
245.654
245.64
245.627
245.613
245.599
245.586
245.572
245.558
245.545
245.531
245.517
245.503
245.489
245.475
245.462
245.448
245.434
245.42
245.406
245.392
245.378
245.363
245.351
245.334
245.323
245.305
245.296
245.277
245.267
245.249
245.239
245.22
245.211
245.192
245.182
245.163
245.153
245.134
245.125
245.106
245.095
245.078
245.065
245.051
245.034
245.022
245.005
244.992
244.978
244.962
244.949
244.933
244.919
244.904
244.889
244.875
244.86
244.844
244.83
244.815
244.8
244.786
244.77
244.755
244.741
244.726
244.711
244.696
244.68
244.665
244.65
244.635
244.62
244.605
244.59
244.574
244.559
244.544
244.529
244.513
244.498
244.483
244.467
244.452
244.437
244.421
244.406
244.39
244.375
244.359
244.344
244.328
244.312
244.297
244.281
244.265
244.25
244.234
244.218
244.202
244.187
244.171
244.155
244.139
244.123
244.107
244.091
244.075
244.059
244.043
244.027
244.011
243.995
243.979
243.963
243.947
243.931
243.914
243.898
243.882
243.866
243.849
243.833
243.817
243.8
243.784
243.767
243.751
243.735
243.718
243.702
243.685
243.668
243.652
243.635
243.619
243.602
243.585
243.569
243.552
243.535
243.518
243.502
243.485
243.468
243.451
243.434
243.417
243.4
243.383
243.366
243.349
243.332
243.315
243.298
243.281
243.264
243.247
243.23
243.212
243.195
243.178
243.161
243.143
243.126
243.109
243.091
243.074
243.057
243.039
243.022
243.004
242.987
242.969
242.952
242.934
242.917
242.899
242.882
242.864
242.846
242.829
242.811
242.793
242.776
242.758
242.74
242.722
242.705
242.687
242.669
242.651
242.633
242.615
242.598
242.58
242.562
242.544
242.526
242.508
242.49
242.472
242.454
242.436
242.418
242.4
242.382
242.363
242.345
242.327
242.309
242.291
242.273
242.255
242.237
242.218
242.2
242.182
242.164
242.146
242.127
242.109
242.091
242.073
242.054
242.036
242.018
242
241.981
241.963
241.945
241.927
241.908
241.89
241.872
241.854
241.835
241.817
241.799
241.781
241.762
241.744
241.726
241.708
241.689
241.671
241.653
241.635
241.617
241.599
241.58
241.562
241.544
241.526
241.508
241.49
241.472
241.454
241.436
241.418
241.401
241.383
241.365
241.347
241.33
241.312
241.294
241.277
241.259
241.242
241.224
241.207
241.19
241.173
241.155
241.138
241.121
241.104
241.087
241.071
241.054
241.037
241.021
241.004
240.988
240.972
240.956
240.94
240.924
240.908
240.893
240.877
240.862
240.847
240.831
240.817
240.802
240.787
240.773
240.759
240.745
240.731
240.717
240.704
240.69
240.677
240.665
240.652
240.64
240.628
240.616
240.605
240.593
240.582
240.572
240.562
240.552
240.542
240.533
240.524
240.516
240.508
240.5
240.493
240.486
240.48
240.474
240.469
240.464
240.46
240.456
240.453
240.45
240.448
240.447
240.446
240.447
240.447
240.448
240.45
240.452
240.456
240.46
240.465
240.471
240.478
240.486
240.495
240.504
240.515
240.526
240.539
240.552
240.567
240.582
240.599
240.617
240.636
240.656
240.678
240.7
240.724
240.749
240.775
240.803
240.831
240.861
240.893
240.925
240.959
240.994
241.031
241.068
241.107
241.148
241.189
241.232
241.276
241.322
241.368
241.416
241.465
241.515
241.566
241.619
241.672
241.726
241.782
241.838
241.895
241.953
242.012
242.072
242.132
242.193
242.255
242.318
242.381
242.444
242.508
242.572
242.637
242.702
242.768
242.833
242.899
242.966
243.032
243.098
243.165
243.232
243.298
243.365
243.432
243.498
243.565
243.631
243.698
243.764
243.83
243.896
243.961
244.027
244.092
244.157
244.221
244.286
244.35
244.413
244.477
244.54
244.602
244.665
244.727
244.788
244.849
244.91
244.97
245.03
245.089
245.148
245.206
245.264
245.321
245.378
245.435
245.49
245.546
245.6
245.654
245.708
245.761
245.813
245.864
245.915
245.966
246.015
246.064
246.113
246.16
246.207
246.254
246.299
246.344
246.388
246.431
246.474
246.516
246.557
246.597
246.637
246.675
246.713
246.75
246.787
246.822
246.857
246.891
246.924
246.956
246.988
247.018
247.048
247.077
247.106
247.133
247.16
247.186
247.211
247.235
247.259
247.281
247.303
247.325
247.345
247.365
247.384
247.402
247.42
247.437
247.453
247.469
247.484
247.498
247.512
247.525
247.538
247.55
247.561
247.572
247.583
247.593
247.602
247.611
247.619
247.627
247.635
247.642
247.649
247.656
247.662
247.667
247.673
247.678
247.683
247.687
247.691
247.695
247.699
247.703
247.706
247.709
247.712
247.714
247.717
247.719
247.721
247.723
247.725
247.727
247.729
247.73
247.732
247.733
247.734
247.735
247.736
247.737
247.738
247.739
247.74
247.74
247.741
247.742
247.742
247.743
247.743
247.744
247.744
247.745
247.745
247.745
247.746
247.746
247.746
247.747
247.747
247.747
247.747
247.748
247.748
247.748
247.748
247.748
247.749
247.749
247.749
247.749
247.749
247.75
247.75
247.75
247.75
247.75
247.75
247.75
247.751
247.751
247.751
247.751
247.751
247.751
247.752
247.752
247.752
247.752
247.752
247.752
247.752
247.753
247.753
247.753
247.753
247.753
247.753
247.753
247.754
247.754
247.754
247.754
247.754
247.754
247.755
247.755
247.755
247.755
247.755
247.755
247.756
247.756
247.756
247.756
247.756
247.756
247.757
247.757
247.757
247.757
247.757
247.757
247.758
247.758
247.758
247.758
247.758
247.758
247.759
247.759
247.759
247.759
247.759
247.759
247.76
247.76
247.76
247.76
247.76
247.761
247.761
247.761
247.761
247.761
247.761
247.762
247.762
247.762
247.762
247.762
247.763
247.763
247.763
247.763
247.763
247.764
247.764
247.764
247.764
247.764
247.765
247.765
247.765
247.765
247.765
247.766
247.766
247.766
247.766
247.766
247.767
247.767
247.767
247.767
247.767
247.768
247.768
247.768
247.768
247.769
247.769
247.769
247.769
247.769
247.77
247.77
247.77
247.77
247.771
247.771
247.771
247.771
247.771
247.772
247.772
247.772
247.772
247.773
247.773
247.773
247.773
247.774
247.774
247.774
247.774
247.775
247.775
247.775
247.775
247.776
247.776
247.776
247.776
247.777
247.777
247.777
247.777
247.778
247.778
247.778
247.778
247.779
247.779
247.779
247.78
247.78
247.78
247.78
247.781
247.781
247.781
247.782
247.782
247.782
247.782
247.783
247.783
247.783
247.784
247.784
247.784
247.785
247.785
247.785
247.785
247.786
247.786
247.787
247.787
247.787
247.787
247.788
247.788
247.788
247.789
247.789
247.789
247.79
247.79
247.791
247.791
247.791
247.792
247.792
247.792
247.793
247.793
247.794
247.795
247.796
247.796
247.797
247.798
247.799
247.8
247.802
247.803
247.805
247.806
247.808
247.81
247.813
247.816
247.819
247.822
247.826
247.83
247.835
247.84
247.846
247.852
247.859
247.866
247.874
247.883
247.892
247.902
247.913
247.924
247.936
247.949
247.962
247.976
247.991
248.006
248.022
248.038
248.055
248.072
248.09
248.107
248.125
248.143
248.161
248.179
248.197
248.214
248.231
248.248
248.265
248.281
248.296
248.311
248.325
248.339
248.352
248.364
248.375
248.386
248.396
248.406
248.414
248.422
248.43
248.437
248.443
248.449
248.454
248.459
248.463
248.467
248.47
248.473
248.476
248.479
248.481
248.483
248.485
248.487
248.489
248.49
248.492
248.493
248.494
248.495
248.496
248.497
248.498
248.498
248.499
248.5
248.5
248.501
248.501
248.502
248.502
248.502
248.502
248.502
248.501
248.501
248.501
248.5
248.5
248.499
248.499
248.498
248.497
248.497
248.496
248.496
248.495
248.495
248.495
248.494
248.494
248.494
248.494
248.495
248.495
248.495
248.496
248.496
248.497
248.498
248.499
248.499
248.501
)
;

boundaryField
{
    sides
    {
        type            zeroGradient;
    }
    empty
    {
        type            empty;
    }
}


// ************************************************************************* //
