/*--------------------------------*- C++ -*----------------------------------*\
| =========                 |                                                 |
| \\      /  F ield         | OpenFOAM: The Open Source CFD Toolbox           |
|  \\    /   O peration     | Version:  3.0.0                                 |
|   \\  /    A nd           | Web:      www.OpenFOAM.org                      |
|    \\/     M anipulation  |                                                 |
\*---------------------------------------------------------------------------*/
FoamFile
{
    version     2.0;
    format      ascii;
    class       volVectorField;
    location    "0.024";
    object      U;
}
// * * * * * * * * * * * * * * * * * * * * * * * * * * * * * * * * * * * * * //

dimensions      [0 1 -1 0 0 0 0];

internalField   nonuniform List<vector> 
1000
(
(9.55885 0 0)
(10.295 0 0)
(10.9657 0 0)
(11.5261 0 0)
(12.0658 0 0)
(12.6193 0 0)
(13.1816 0 0)
(13.7442 0 0)
(14.305 0 0)
(14.8651 0 0)
(15.4252 0 0)
(15.9855 0 0)
(16.5459 0 0)
(17.1064 0 0)
(17.6668 0 0)
(18.2273 0 0)
(18.7878 0 0)
(19.3484 0 0)
(19.9091 0 0)
(20.4699 0 0)
(21.0308 0 0)
(21.5917 0 0)
(22.1527 0 0)
(22.7137 0 0)
(23.2749 0 0)
(23.8361 0 0)
(24.3973 0 0)
(24.9587 0 0)
(25.5201 0 0)
(26.0816 0 0)
(26.6432 0 0)
(27.2048 0 0)
(27.7665 0 0)
(28.3283 0 0)
(28.8902 0 0)
(29.4521 0 0)
(30.0141 0 0)
(30.5762 0 0)
(31.1384 0 0)
(31.7006 0 0)
(32.2629 0 0)
(32.8252 0 0)
(33.3877 0 0)
(33.9502 0 0)
(34.5128 0 0)
(35.0754 0 0)
(35.6381 0 0)
(36.2009 0 0)
(36.7638 0 0)
(37.3267 0 0)
(37.8897 0 0)
(38.4528 0 0)
(39.0159 0 0)
(39.5791 0 0)
(40.1424 0 0)
(40.7057 0 0)
(41.2691 0 0)
(41.8326 0 0)
(42.3961 0 0)
(42.9597 0 0)
(43.5234 0 0)
(44.0871 0 0)
(44.6509 0 0)
(45.2148 0 0)
(45.7788 0 0)
(46.3428 0 0)
(46.9069 0 0)
(47.471 0 0)
(48.0353 0 0)
(48.5996 0 0)
(49.1639 0 0)
(49.7284 0 0)
(50.2929 0 0)
(50.8575 0 0)
(51.4221 0 0)
(51.9869 0 0)
(52.5517 0 0)
(53.1165 0 0)
(53.6815 0 0)
(54.2465 0 0)
(54.8116 0 0)
(55.3767 0 0)
(55.9419 0 0)
(56.5072 0 0)
(57.0726 0 0)
(57.638 0 0)
(58.2035 0 0)
(58.769 0 0)
(59.3346 0 0)
(59.9003 0 0)
(60.4661 0 0)
(61.0319 0 0)
(61.5978 0 0)
(62.1637 0 0)
(62.7297 0 0)
(63.2958 0 0)
(63.8619 0 0)
(64.4281 0 0)
(64.9944 0 0)
(65.5608 0 0)
(66.1272 0 0)
(66.6936 0 0)
(67.2602 0 0)
(67.8267 0 0)
(68.3934 0 0)
(68.9601 0 0)
(69.5269 0 0)
(70.0938 0 0)
(70.6607 0 0)
(71.2277 0 0)
(71.7947 0 0)
(72.3618 0 0)
(72.929 0 0)
(73.4962 0 0)
(74.0635 0 0)
(74.6309 0 0)
(75.1983 0 0)
(75.7658 0 0)
(76.3333 0 0)
(76.9009 0 0)
(77.4686 0 0)
(78.0363 0 0)
(78.6041 0 0)
(79.172 0 0)
(79.7399 0 0)
(80.3079 0 0)
(80.8759 0 0)
(81.444 0 0)
(82.0121 0 0)
(82.5804 0 0)
(83.1486 0 0)
(83.717 0 0)
(84.2854 0 0)
(84.8538 0 0)
(85.4223 0 0)
(85.9909 0 0)
(86.5595 0 0)
(87.1282 0 0)
(87.697 0 0)
(88.2658 0 0)
(88.8346 0 0)
(89.4035 0 0)
(89.9725 0 0)
(90.5415 0 0)
(91.1106 0 0)
(91.6798 0 0)
(92.249 0 0)
(92.8182 0 0)
(93.3876 0 0)
(93.9569 0 0)
(94.5263 0 0)
(95.0958 0 0)
(95.6654 0 0)
(96.235 0 0)
(96.8046 0 0)
(97.3743 0 0)
(97.944 0 0)
(98.5139 0 0)
(99.0837 0 0)
(99.6536 0 0)
(100.224 0 0)
(100.794 0 0)
(101.364 0 0)
(101.934 0 0)
(102.504 0 0)
(103.074 0 0)
(103.644 0 0)
(104.215 0 0)
(104.785 0 0)
(105.356 0 0)
(105.926 0 0)
(106.497 0 0)
(107.067 0 0)
(107.638 0 0)
(108.209 0 0)
(108.779 0 0)
(109.35 0 0)
(109.921 0 0)
(110.492 0 0)
(111.063 0 0)
(111.634 0 0)
(112.205 0 0)
(112.776 0 0)
(113.347 0 0)
(113.918 0 0)
(114.489 0 0)
(115.06 0 0)
(115.632 0 0)
(116.203 0 0)
(116.774 0 0)
(117.346 0 0)
(117.917 0 0)
(118.489 0 0)
(119.06 0 0)
(119.632 0 0)
(120.204 0 0)
(120.775 0 0)
(121.347 0 0)
(121.919 0 0)
(122.491 0 0)
(123.063 0 0)
(123.634 0 0)
(124.206 0 0)
(124.778 0 0)
(125.35 0 0)
(125.922 0 0)
(126.495 0 0)
(127.067 0 0)
(127.639 0 0)
(128.211 0 0)
(128.783 0 0)
(129.356 0 0)
(129.928 0 0)
(130.5 0 0)
(131.073 0 0)
(131.645 0 0)
(132.218 0 0)
(132.79 0 0)
(133.363 0 0)
(133.935 0 0)
(134.508 0 0)
(135.08 0 0)
(135.653 0 0)
(136.226 0 0)
(136.799 0 0)
(137.371 0 0)
(137.944 0 0)
(138.517 0 0)
(139.09 0 0)
(139.663 0 0)
(140.235 0 0)
(140.808 0 0)
(141.381 0 0)
(141.954 0 0)
(142.527 0 0)
(143.1 0 0)
(143.673 0 0)
(144.247 0 0)
(144.82 0 0)
(145.393 0 0)
(145.966 0 0)
(146.539 0 0)
(147.112 0 0)
(147.686 0 0)
(148.259 0 0)
(148.832 0 0)
(149.405 0 0)
(149.979 0 0)
(150.552 0 0)
(151.125 0 0)
(151.699 0 0)
(152.272 0 0)
(152.845 0 0)
(153.419 0 0)
(153.992 0 0)
(154.566 0 0)
(155.139 0 0)
(155.712 0 0)
(156.286 0 0)
(156.859 0 0)
(157.433 0 0)
(158.006 0 0)
(158.58 0 0)
(159.153 0 0)
(159.727 0 0)
(160.3 0 0)
(160.874 0 0)
(161.447 0 0)
(162.021 0 0)
(162.594 0 0)
(163.168 0 0)
(163.741 0 0)
(164.315 0 0)
(164.888 0 0)
(165.462 0 0)
(166.035 0 0)
(166.609 0 0)
(167.182 0 0)
(167.755 0 0)
(168.329 0 0)
(168.902 0 0)
(169.476 0 0)
(170.049 0 0)
(170.623 0 0)
(171.196 0 0)
(171.769 0 0)
(172.343 0 0)
(172.916 0 0)
(173.489 0 0)
(174.062 0 0)
(174.636 0 0)
(175.209 0 0)
(175.782 0 0)
(176.355 0 0)
(176.928 0 0)
(177.501 0 0)
(178.075 0 0)
(178.648 0 0)
(179.221 0 0)
(179.793 0 0)
(180.366 0 0)
(180.939 0 0)
(181.512 0 0)
(182.085 0 0)
(182.658 0 0)
(183.23 0 0)
(183.803 0 0)
(184.375 0 0)
(184.948 0 0)
(185.52 0 0)
(186.093 0 0)
(186.665 0 0)
(187.237 0 0)
(187.809 0 0)
(188.382 0 0)
(188.954 0 0)
(189.526 0 0)
(190.097 0 0)
(190.669 0 0)
(191.241 0 0)
(191.812 0 0)
(192.384 0 0)
(192.955 0 0)
(193.527 0 0)
(194.098 0 0)
(194.669 0 0)
(195.24 0 0)
(195.811 0 0)
(196.382 0 0)
(196.953 0 0)
(197.523 0 0)
(198.094 0 0)
(198.664 0 0)
(199.234 0 0)
(199.804 0 0)
(200.374 0 0)
(200.944 0 0)
(201.513 0 0)
(202.083 0 0)
(202.652 0 0)
(203.221 0 0)
(203.79 0 0)
(204.359 0 0)
(204.928 0 0)
(205.496 0 0)
(206.064 0 0)
(206.632 0 0)
(207.2 0 0)
(207.768 0 0)
(208.335 0 0)
(208.903 0 0)
(209.47 0 0)
(210.036 0 0)
(210.603 0 0)
(211.169 0 0)
(211.735 0 0)
(212.301 0 0)
(212.866 0 0)
(213.432 0 0)
(213.997 0 0)
(214.561 0 0)
(215.126 0 0)
(215.69 0 0)
(216.253 0 0)
(216.817 0 0)
(217.38 0 0)
(217.942 0 0)
(218.505 0 0)
(219.067 0 0)
(219.628 0 0)
(220.19 0 0)
(220.75 0 0)
(221.311 0 0)
(221.871 0 0)
(222.43 0 0)
(222.989 0 0)
(223.548 0 0)
(224.106 0 0)
(224.664 0 0)
(225.221 0 0)
(225.777 0 0)
(226.334 0 0)
(226.889 0 0)
(227.444 0 0)
(227.998 0 0)
(228.552 0 0)
(229.105 0 0)
(229.658 0 0)
(230.209 0 0)
(230.76 0 0)
(231.311 0 0)
(231.86 0 0)
(232.409 0 0)
(232.957 0 0)
(233.505 0 0)
(234.051 0 0)
(234.597 0 0)
(235.142 0 0)
(235.685 0 0)
(236.228 0 0)
(236.77 0 0)
(237.311 0 0)
(237.851 0 0)
(238.39 0 0)
(238.928 0 0)
(239.464 0 0)
(240 0 0)
(240.534 0 0)
(241.067 0 0)
(241.599 0 0)
(242.129 0 0)
(242.658 0 0)
(243.186 0 0)
(243.712 0 0)
(244.237 0 0)
(244.76 0 0)
(245.282 0 0)
(245.802 0 0)
(246.32 0 0)
(246.836 0 0)
(247.351 0 0)
(247.864 0 0)
(248.375 0 0)
(248.884 0 0)
(249.391 0 0)
(249.896 0 0)
(250.398 0 0)
(250.898 0 0)
(251.396 0 0)
(251.891 0 0)
(252.384 0 0)
(252.875 0 0)
(253.365 0 0)
(253.851 0 0)
(254.334 0 0)
(254.815 0 0)
(255.292 0 0)
(255.766 0 0)
(256.237 0 0)
(256.705 0 0)
(257.17 0 0)
(257.632 0 0)
(258.09 0 0)
(258.545 0 0)
(258.997 0 0)
(259.444 0 0)
(259.888 0 0)
(260.329 0 0)
(260.765 0 0)
(261.198 0 0)
(261.627 0 0)
(262.051 0 0)
(262.471 0 0)
(262.888 0 0)
(263.3 0 0)
(263.707 0 0)
(264.11 0 0)
(264.509 0 0)
(264.903 0 0)
(265.293 0 0)
(265.678 0 0)
(266.059 0 0)
(266.435 0 0)
(266.806 0 0)
(267.172 0 0)
(267.534 0 0)
(267.891 0 0)
(268.243 0 0)
(268.591 0 0)
(268.934 0 0)
(269.272 0 0)
(269.606 0 0)
(269.935 0 0)
(270.26 0 0)
(270.58 0 0)
(270.895 0 0)
(271.207 0 0)
(271.514 0 0)
(271.816 0 0)
(272.115 0 0)
(272.41 0 0)
(272.7 0 0)
(272.987 0 0)
(273.27 0 0)
(273.55 0 0)
(273.826 0 0)
(274.098 0 0)
(274.368 0 0)
(274.634 0 0)
(274.897 0 0)
(275.157 0 0)
(275.414 0 0)
(275.669 0 0)
(275.92 0 0)
(276.17 0 0)
(276.417 0 0)
(276.662 0 0)
(276.904 0 0)
(277.145 0 0)
(277.383 0 0)
(277.62 0 0)
(277.854 0 0)
(278.087 0 0)
(278.319 0 0)
(278.548 0 0)
(278.776 0 0)
(279.003 0 0)
(279.228 0 0)
(279.452 0 0)
(279.674 0 0)
(279.895 0 0)
(280.114 0 0)
(280.333 0 0)
(280.55 0 0)
(280.765 0 0)
(280.98 0 0)
(281.193 0 0)
(281.405 0 0)
(281.616 0 0)
(281.826 0 0)
(282.034 0 0)
(282.241 0 0)
(282.447 0 0)
(282.651 0 0)
(282.855 0 0)
(283.057 0 0)
(283.257 0 0)
(283.457 0 0)
(283.654 0 0)
(283.851 0 0)
(284.046 0 0)
(284.24 0 0)
(284.432 0 0)
(284.623 0 0)
(284.812 0 0)
(284.999 0 0)
(285.185 0 0)
(285.369 0 0)
(285.552 0 0)
(285.733 0 0)
(285.912 0 0)
(286.09 0 0)
(286.265 0 0)
(286.439 0 0)
(286.611 0 0)
(286.781 0 0)
(286.949 0 0)
(287.115 0 0)
(287.279 0 0)
(287.441 0 0)
(287.601 0 0)
(287.759 0 0)
(287.914 0 0)
(288.068 0 0)
(288.219 0 0)
(288.368 0 0)
(288.515 0 0)
(288.659 0 0)
(288.801 0 0)
(288.941 0 0)
(289.078 0 0)
(289.213 0 0)
(289.346 0 0)
(289.476 0 0)
(289.603 0 0)
(289.728 0 0)
(289.851 0 0)
(289.971 0 0)
(290.088 0 0)
(290.203 0 0)
(290.315 0 0)
(290.425 0 0)
(290.532 0 0)
(290.637 0 0)
(290.739 0 0)
(290.838 0 0)
(290.935 0 0)
(291.029 0 0)
(291.121 0 0)
(291.21 0 0)
(291.296 0 0)
(291.38 0 0)
(291.462 0 0)
(291.541 0 0)
(291.617 0 0)
(291.691 0 0)
(291.763 0 0)
(291.832 0 0)
(291.899 0 0)
(291.963 0 0)
(292.025 0 0)
(292.085 0 0)
(292.142 0 0)
(292.198 0 0)
(292.251 0 0)
(292.302 0 0)
(292.351 0 0)
(292.398 0 0)
(292.443 0 0)
(292.486 0 0)
(292.527 0 0)
(292.566 0 0)
(292.604 0 0)
(292.64 0 0)
(292.674 0 0)
(292.706 0 0)
(292.737 0 0)
(292.766 0 0)
(292.794 0 0)
(292.82 0 0)
(292.845 0 0)
(292.869 0 0)
(292.891 0 0)
(292.912 0 0)
(292.932 0 0)
(292.951 0 0)
(292.968 0 0)
(292.985 0 0)
(293 0 0)
(293.015 0 0)
(293.029 0 0)
(293.042 0 0)
(293.054 0 0)
(293.065 0 0)
(293.076 0 0)
(293.086 0 0)
(293.095 0 0)
(293.103 0 0)
(293.111 0 0)
(293.119 0 0)
(293.126 0 0)
(293.132 0 0)
(293.138 0 0)
(293.144 0 0)
(293.149 0 0)
(293.153 0 0)
(293.158 0 0)
(293.162 0 0)
(293.166 0 0)
(293.169 0 0)
(293.172 0 0)
(293.175 0 0)
(293.178 0 0)
(293.18 0 0)
(293.182 0 0)
(293.184 0 0)
(293.186 0 0)
(293.188 0 0)
(293.19 0 0)
(293.191 0 0)
(293.192 0 0)
(293.194 0 0)
(293.195 0 0)
(293.196 0 0)
(293.196 0 0)
(293.197 0 0)
(293.198 0 0)
(293.199 0 0)
(293.199 0 0)
(293.2 0 0)
(293.2 0 0)
(293.201 0 0)
(293.201 0 0)
(293.202 0 0)
(293.202 0 0)
(293.202 0 0)
(293.203 0 0)
(293.203 0 0)
(293.203 0 0)
(293.203 0 0)
(293.203 0 0)
(293.204 0 0)
(293.204 0 0)
(293.204 0 0)
(293.204 0 0)
(293.204 0 0)
(293.204 0 0)
(293.204 0 0)
(293.204 0 0)
(293.204 0 0)
(293.204 0 0)
(293.205 0 0)
(293.205 0 0)
(293.205 0 0)
(293.205 0 0)
(293.205 0 0)
(293.205 0 0)
(293.205 0 0)
(293.205 0 0)
(293.205 0 0)
(293.205 0 0)
(293.205 0 0)
(293.205 0 0)
(293.205 0 0)
(293.205 0 0)
(293.205 0 0)
(293.205 0 0)
(293.205 0 0)
(293.205 0 0)
(293.205 0 0)
(293.205 0 0)
(293.205 0 0)
(293.205 0 0)
(293.205 0 0)
(293.205 0 0)
(293.205 0 0)
(293.205 0 0)
(293.205 0 0)
(293.205 0 0)
(293.205 0 0)
(293.205 0 0)
(293.205 0 0)
(293.205 0 0)
(293.205 0 0)
(293.205 0 0)
(293.205 0 0)
(293.205 0 0)
(293.205 0 0)
(293.205 0 0)
(293.205 0 0)
(293.205 0 0)
(293.205 0 0)
(293.205 0 0)
(293.205 0 0)
(293.205 0 0)
(293.205 0 0)
(293.205 0 0)
(293.205 0 0)
(293.205 0 0)
(293.205 0 0)
(293.205 0 0)
(293.205 0 0)
(293.205 0 0)
(293.205 0 0)
(293.205 0 0)
(293.205 0 0)
(293.205 0 0)
(293.205 0 0)
(293.205 0 0)
(293.205 0 0)
(293.205 0 0)
(293.205 0 0)
(293.205 0 0)
(293.206 0 0)
(293.206 0 0)
(293.206 0 0)
(293.206 0 0)
(293.206 0 0)
(293.206 0 0)
(293.206 0 0)
(293.206 0 0)
(293.206 0 0)
(293.206 0 0)
(293.206 0 0)
(293.206 0 0)
(293.206 0 0)
(293.206 0 0)
(293.206 0 0)
(293.206 0 0)
(293.206 0 0)
(293.206 0 0)
(293.206 0 0)
(293.206 0 0)
(293.206 0 0)
(293.206 0 0)
(293.206 0 0)
(293.206 0 0)
(293.206 0 0)
(293.206 0 0)
(293.206 0 0)
(293.206 0 0)
(293.206 0 0)
(293.206 0 0)
(293.206 0 0)
(293.206 0 0)
(293.206 0 0)
(293.206 0 0)
(293.206 0 0)
(293.206 0 0)
(293.206 0 0)
(293.206 0 0)
(293.206 0 0)
(293.206 0 0)
(293.206 0 0)
(293.206 0 0)
(293.206 0 0)
(293.206 0 0)
(293.206 0 0)
(293.206 0 0)
(293.206 0 0)
(293.206 0 0)
(293.206 0 0)
(293.206 0 0)
(293.206 0 0)
(293.206 0 0)
(293.206 0 0)
(293.206 0 0)
(293.206 0 0)
(293.206 0 0)
(293.206 0 0)
(293.206 0 0)
(293.206 0 0)
(293.206 0 0)
(293.206 0 0)
(293.206 0 0)
(293.206 0 0)
(293.206 0 0)
(293.206 0 0)
(293.206 0 0)
(293.206 0 0)
(293.206 0 0)
(293.206 0 0)
(293.206 0 0)
(293.206 0 0)
(293.206 0 0)
(293.206 0 0)
(293.206 0 0)
(293.206 0 0)
(293.206 0 0)
(293.206 0 0)
(293.206 0 0)
(293.206 0 0)
(293.206 0 0)
(293.206 0 0)
(293.206 0 0)
(293.206 0 0)
(293.206 0 0)
(293.206 0 0)
(293.206 0 0)
(293.206 0 0)
(293.206 0 0)
(293.206 0 0)
(293.206 0 0)
(293.206 0 0)
(293.206 0 0)
(293.206 0 0)
(293.206 0 0)
(293.206 0 0)
(293.206 0 0)
(293.206 0 0)
(293.206 0 0)
(293.206 0 0)
(293.206 0 0)
(293.206 0 0)
(293.206 0 0)
(293.206 0 0)
(293.206 0 0)
(293.206 0 0)
(293.206 0 0)
(293.206 0 0)
(293.206 0 0)
(293.206 0 0)
(293.206 0 0)
(293.206 0 0)
(293.206 0 0)
(293.206 0 0)
(293.206 0 0)
(293.206 0 0)
(293.206 0 0)
(293.206 0 0)
(293.205 0 0)
(293.205 0 0)
(293.205 0 0)
(293.205 0 0)
(293.205 0 0)
(293.205 0 0)
(293.204 0 0)
(293.204 0 0)
(293.203 0 0)
(293.202 0 0)
(293.201 0 0)
(293.2 0 0)
(293.199 0 0)
(293.198 0 0)
(293.196 0 0)
(293.194 0 0)
(293.191 0 0)
(293.189 0 0)
(293.186 0 0)
(293.182 0 0)
(293.177 0 0)
(293.173 0 0)
(293.167 0 0)
(293.16 0 0)
(293.153 0 0)
(293.145 0 0)
(293.135 0 0)
(293.125 0 0)
(293.113 0 0)
(293.1 0 0)
(293.085 0 0)
(293.069 0 0)
(293.051 0 0)
(293.031 0 0)
(293.01 0 0)
(292.986 0 0)
(292.961 0 0)
(292.933 0 0)
(292.903 0 0)
(292.871 0 0)
(292.837 0 0)
(292.801 0 0)
(292.762 0 0)
(292.722 0 0)
(292.679 0 0)
(292.634 0 0)
(292.588 0 0)
(292.539 0 0)
(292.489 0 0)
(292.438 0 0)
(292.385 0 0)
(292.332 0 0)
(292.277 0 0)
(292.222 0 0)
(292.167 0 0)
(292.111 0 0)
(292.056 0 0)
(292.001 0 0)
(291.946 0 0)
(291.893 0 0)
(291.84 0 0)
(291.789 0 0)
(291.74 0 0)
(291.692 0 0)
(291.646 0 0)
(291.602 0 0)
(291.559 0 0)
(291.52 0 0)
(291.482 0 0)
(291.446 0 0)
(291.413 0 0)
(291.382 0 0)
(291.353 0 0)
(291.327 0 0)
(291.302 0 0)
(291.28 0 0)
(291.259 0 0)
(291.241 0 0)
(291.224 0 0)
(291.209 0 0)
(291.195 0 0)
(291.183 0 0)
(291.172 0 0)
(291.163 0 0)
(291.154 0 0)
(291.146 0 0)
(291.14 0 0)
(291.134 0 0)
(291.129 0 0)
(291.125 0 0)
(291.121 0 0)
(291.117 0 0)
(291.115 0 0)
(291.112 0 0)
(291.11 0 0)
(291.108 0 0)
(291.107 0 0)
(291.105 0 0)
(291.105 0 0)
(291.104 0 0)
(291.104 0 0)
(291.103 0 0)
(291.103 0 0)
(291.104 0 0)
(291.104 0 0)
(291.105 0 0)
(291.106 0 0)
(291.108 0 0)
(291.11 0 0)
(291.112 0 0)
(291.115 0 0)
(291.118 0 0)
(291.121 0 0)
(291.124 0 0)
(291.128 0 0)
(291.132 0 0)
(291.136 0 0)
(291.14 0 0)
(291.145 0 0)
(291.149 0 0)
(291.153 0 0)
(291.158 0 0)
(291.162 0 0)
(291.166 0 0)
(291.17 0 0)
(291.173 0 0)
(291.177 0 0)
(291.18 0 0)
(291.182 0 0)
(291.185 0 0)
(291.187 0 0)
(291.189 0 0)
(291.191 0 0)
(291.192 0 0)
(291.193 0 0)
(291.194 0 0)
(291.194 0 0)
(291.195 0 0)
(291.195 0 0)
(291.195 0 0)
)
;

boundaryField
{
    sides
    {
        type            zeroGradient;
    }
    empty
    {
        type            empty;
    }
}


// ************************************************************************* //
