/*--------------------------------*- C++ -*----------------------------------*\
| =========                 |                                                 |
| \\      /  F ield         | OpenFOAM: The Open Source CFD Toolbox           |
|  \\    /   O peration     | Version:  3.0.0                                 |
|   \\  /    A nd           | Web:      www.OpenFOAM.org                      |
|    \\/     M anipulation  |                                                 |
\*---------------------------------------------------------------------------*/
FoamFile
{
    version     2.0;
    format      ascii;
    class       volScalarField;
    location    "0.75";
    object      p;
}
// * * * * * * * * * * * * * * * * * * * * * * * * * * * * * * * * * * * * * //

dimensions      [0 2 -2 0 0 0 0];

internalField   nonuniform List<scalar> 
4096
(
-0.0232393
-0.0199119
-0.0169063
-0.0152762
-0.0150292
-0.0155922
-0.0163078
-0.0169334
-0.0176551
-0.0189012
-0.0209685
-0.0237119
-0.0264943
-0.0284132
-0.028727
-0.0268211
-0.0295194
-0.0243061
-0.0189473
-0.0148485
-0.0124951
-0.0117882
-0.0123764
-0.0139657
-0.0164585
-0.0198786
-0.0241422
-0.0288247
-0.0330943
-0.0359275
-0.0364626
-0.0340561
-0.0309022
-0.0245523
-0.0175355
-0.0114686
-0.007134
-0.00480771
-0.00445441
-0.00595325
-0.00920113
-0.0140538
-0.0201515
-0.0267528
-0.0327303
-0.0368569
-0.0381202
-0.0357883
-0.027882
-0.0214792
-0.0139932
-0.00708413
-0.00159848
0.00190355
0.00324137
0.0023246
-0.000842117
-0.0061068
-0.0129893
-0.0205589
-0.0275237
-0.0325043
-0.0344292
-0.0324843
-0.0209071
-0.0156172
-0.0090205
-0.00259875
0.00289332
0.00693748
0.00915919
0.00926063
0.00703249
0.00248695
-0.0039572
-0.0113529
-0.0183437
-0.0235414
-0.0259102
-0.0246178
-0.0106548
-0.00745751
-0.00297039
0.00168402
0.00610041
0.00996162
0.0128599
0.0142936
0.0137559
0.0109579
0.00608937
-3.52162e-05
-0.00613931
-0.0109243
-0.0134797
-0.0130155
0.00177777
0.00230604
0.00387614
0.00584333
0.00831106
0.0113238
0.0145794
0.0174194
0.0190003
0.0186374
0.0161717
0.0121549
0.00766748
0.00383144
0.00136653
0.000973358
0.014796
0.0125908
0.0110128
0.00991888
0.00996634
0.0116442
0.0148715
0.0189128
0.0226198
0.0249017
0.0251953
0.0237133
0.0212617
0.0187243
0.0165953
0.0154713
0.0263776
0.0218549
0.0174744
0.0135236
0.0111395
0.0112705
0.0140958
0.018905
0.0243478
0.0289885
0.031895
0.0329209
0.0325652
0.0314432
0.0298253
0.0282129
0.0343721
0.0282846
0.0218852
0.0157565
0.0113588
0.0100076
0.0121418
0.0171713
0.0236825
0.0300305
0.0349813
0.038088
0.0395491
0.0397297
0.0387062
0.0369044
0.0370475
0.0302967
0.0228789
0.0155142
0.00980306
0.00724257
0.00853592
0.0132636
0.0200801
0.0272774
0.0334627
0.0379532
0.0407143
0.041908
0.0414642
0.0397713
0.0336693
0.0271445
0.0197219
0.0120815
0.00580069
0.00245963
0.00290857
0.00693267
0.013353
0.0205414
0.0270687
0.0321294
0.0355403
0.0373377
0.0374118
0.0360975
0.0248216
0.0193167
0.012798
0.00575683
-0.000385456
-0.00408109
-0.00438796
-0.00132654
0.00414456
0.0105642
0.016582
0.0214065
0.0247883
0.0267525
0.0272224
0.0265061
0.0122688
0.00844516
0.00358495
-0.00212662
-0.00752072
-0.0111865
-0.0121412
-0.0102246
-0.00614355
-0.00111855
0.00367434
0.00753563
0.0102865
0.0120248
0.0127723
0.0128283
-0.0016123
-0.00327079
-0.00588262
-0.0096325
-0.0137302
-0.0169858
-0.0184545
-0.0178283
-0.0155311
-0.012457
-0.00950296
-0.00717642
-0.00550956
-0.00429517
-0.00337816
-0.00244855
-0.0140528
-0.0132738
-0.0131439
-0.0142594
-0.0162153
-0.0181283
-0.019236
-0.0192918
-0.0186132
-0.0178215
-0.0174449
-0.0176142
-0.0180345
-0.0182115
-0.0177564
-0.0162657
-0.0246582
-0.0211126
-0.017868
-0.0160371
-0.0155182
-0.015652
-0.0157551
-0.0156567
-0.0157804
-0.0168066
-0.0191429
-0.022558
-0.0261944
-0.0289235
-0.029749
-0.0279458
-0.0312929
-0.0259194
-0.0203224
-0.0158921
-0.0131005
-0.0119217
-0.0121392
-0.0135809
-0.0161962
-0.0199557
-0.0246629
-0.029772
-0.0343744
-0.0374139
-0.0380019
-0.0355332
-0.0329654
-0.0264558
-0.0193662
-0.0131214
-0.00844013
-0.00563131
-0.00479771
-0.00597802
-0.00917139
-0.0142284
-0.0207024
-0.0277264
-0.034082
-0.0384638
-0.0398196
-0.0375098
-0.0300358
-0.0234211
-0.0159376
-0.00897338
-0.00330274
0.000567294
0.00232774
0.00174358
-0.00130324
-0.00667481
-0.0138638
-0.0218022
-0.0291097
-0.0343201
-0.0362901
-0.0343671
-0.0229824
-0.0172927
-0.0106079
-0.00413594
0.0014517
0.00567164
0.00810077
0.00834335
0.00611183
0.00140207
-0.00532547
-0.0130515
-0.0203286
-0.02568
-0.0279893
-0.0266193
-0.0125379
-0.00866365
-0.00385085
0.00100158
0.00551589
0.00939148
0.0122239
0.013495
0.0126934
0.00955688
0.00432886
-0.00213243
-0.00848384
-0.01335
-0.0157444
-0.0150694
0.000130257
0.00156436
0.00372467
0.00611011
0.00876649
0.0117147
0.0146776
0.0170572
0.0180911
0.0171829
0.0142451
0.00986363
0.00515236
0.00128666
-0.000942897
-0.00102941
0.0133721
0.0121088
0.0112551
0.0107282
0.0110616
0.0126845
0.0155286
0.0189642
0.0219732
0.0235963
0.0233629
0.0215201
0.0188684
0.0163362
0.0144533
0.013655
0.0251414
0.0213301
0.0175769
0.0141532
0.0120695
0.0121906
0.014707
0.0190021
0.0238499
0.0279285
0.0303816
0.0311083
0.0306057
0.029492
0.028055
0.0267124
0.0333033
0.0274813
0.021394
0.0155329
0.0113
0.00996337
0.0119932
0.0168391
0.0231209
0.0292138
0.0339288
0.0368628
0.0382299
0.0383947
0.0374361
0.0358022
0.0361502
0.0291617
0.0216578
0.0141711
0.00835525
0.00578613
0.00721087
0.0121926
0.0192876
0.0266648
0.0328941
0.0373501
0.0400589
0.0411856
0.0406812
0.0390672
0.0329431
0.0258158
0.0180099
0.00991193
0.0032658
-0.000185598
0.000535739
0.00517929
0.0123254
0.0200768
0.0268859
0.0320095
0.0353695
0.0370543
0.0369627
0.0356962
0.0242199
0.0180155
0.0110312
0.00341907
-0.003247
-0.00714128
-0.00715364
-0.00333471
0.00306491
0.0102282
0.0166278
0.0215151
0.0248059
0.0266016
0.0268541
0.0262342
0.011662
0.00731665
0.00215046
-0.00402412
-0.0098595
-0.0137415
-0.0144973
-0.0119601
-0.00708706
-0.00143562
0.00363882
0.00748471
0.0100895
0.0116481
0.0122205
0.0124642
-0.00238957
-0.00427573
-0.00690655
-0.0107718
-0.0150635
-0.0184482
-0.0198825
-0.019022
-0.0164114
-0.0131277
-0.0101516
-0.00792855
-0.00637406
-0.00522385
-0.00432265
-0.00308309
-0.0152574
-0.0144335
-0.0141088
-0.0151163
-0.0169973
-0.018737
-0.0194893
-0.0190239
-0.0178526
-0.0168443
-0.0166386
-0.0172816
-0.0182811
-0.0189687
-0.0188361
-0.0172538
-0.0226358
-0.0184518
-0.0147919
-0.0128303
-0.0122744
-0.0123362
-0.0121636
-0.0117124
-0.0116456
-0.0128453
-0.0157499
-0.0199605
-0.0243506
-0.027529
-0.0283471
-0.0260343
-0.029101
-0.0229848
-0.0169808
-0.0123107
-0.00934429
-0.00804937
-0.00825436
-0.00990416
-0.0130318
-0.0175344
-0.0230346
-0.0287572
-0.0336437
-0.0365887
-0.0367221
-0.0335876
-0.0310506
-0.0237265
-0.0161401
-0.00964807
-0.00490833
-0.00217141
-0.00150148
-0.00295092
-0.00655822
-0.0121708
-0.0192601
-0.0268284
-0.0335202
-0.0379303
-0.0389318
-0.0360072
-0.028953
-0.0214722
-0.0134145
-0.00616544
-0.000500859
0.00315902
0.00458339
0.00359965
0.000109778
-0.00574896
-0.0134157
-0.0217982
-0.0294024
-0.0346663
-0.036348
-0.0338143
-0.0232085
-0.016592
-0.00923929
-0.00240405
0.0032012
0.00713611
0.00908212
0.00875932
0.00596528
0.000741408
-0.006429
-0.0145077
-0.0220143
-0.0273909
-0.0294237
-0.0274558
-0.0143628
-0.00948547
-0.00391359
0.00140773
0.00600774
0.00959032
0.0118533
0.0124285
0.0109461
0.00723566
0.00156584
-0.00520934
-0.0117497
-0.0166072
-0.0187627
-0.0175101
-0.00331402
-0.00084999
0.00212033
0.00506277
0.00789764
0.0106078
0.0129975
0.014631
0.0149134
0.0133862
0.0100022
0.00533292
0.000450698
-0.00341126
-0.00537585
-0.00498334
0.00856207
0.00825579
0.00816732
0.00822745
0.00882793
0.010319
0.0126779
0.0154346
0.0176947
0.0187155
0.0180719
0.0160119
0.0131682
0.0106742
0.00902569
0.00854917
0.0194688
0.0163871
0.0132481
0.0103641
0.0086103
0.00873946
0.0109348
0.0146836
0.0189172
0.0224881
0.0246178
0.0251909
0.0246204
0.023525
0.0222258
0.0210338
0.0274223
0.0219696
0.0162703
0.0108361
0.0069657
0.00579229
0.00772023
0.0122294
0.0180788
0.0238071
0.0283295
0.0312401
0.0326093
0.0327953
0.0318667
0.0302205
0.0307425
0.0237258
0.016378
0.00917201
0.00373045
0.00147658
0.00302359
0.0079011
0.014743
0.0218858
0.0280216
0.0325282
0.0353315
0.0364918
0.0359228
0.0342079
0.0285901
0.0211324
0.0133421
0.00534889
-0.000893604
-0.00389732
-0.00285027
0.00186344
0.00887621
0.0164434
0.0231745
0.0283635
0.0318484
0.0335708
0.0333737
0.0320307
0.0212973
0.0146438
0.00759666
9.81876e-05
-0.00617579
-0.00955288
-0.00912373
-0.00511389
0.00118558
0.00811119
0.0143273
0.0191814
0.0225466
0.0243873
0.0245661
0.0240122
0.0102926
0.00558904
0.000416127
-0.00558278
-0.0110374
-0.0143659
-0.0146402
-0.0119188
-0.00723239
-0.0019978
0.00266957
0.00629329
0.00888007
0.0105203
0.0111585
0.0116803
-0.00230493
-0.0042806
-0.00677823
-0.0103851
-0.0143177
-0.0171151
-0.0181274
-0.0172355
-0.0150591
-0.0125054
-0.0102369
-0.00843062
-0.00691853
-0.00555434
-0.00434116
-0.00259125
-0.0138779
-0.0126843
-0.0120306
-0.0128418
-0.0145462
-0.0159337
-0.0162729
-0.0154695
-0.0142349
-0.0135442
-0.0139652
-0.0153344
-0.0169313
-0.0179392
-0.0177786
-0.0157323
-0.0174278
-0.0122339
-0.00802092
-0.00591185
-0.00548947
-0.00573998
-0.00582191
-0.00568568
-0.0060556
-0.0078545
-0.0114725
-0.016344
-0.0211536
-0.0243058
-0.0245774
-0.0212908
-0.0235427
-0.0166946
-0.0102911
-0.00539735
-0.00227359
-0.00085804
-0.00107063
-0.00299376
-0.00674571
-0.0121718
-0.0187022
-0.0251796
-0.0303624
-0.0330744
-0.0325258
-0.0284652
-0.0258041
-0.0178325
-0.00983667
-0.00318587
0.00155755
0.00422331
0.00476307
0.00306483
-0.000981829
-0.0072427
-0.0150909
-0.0233221
-0.0303765
-0.0347214
-0.0352216
-0.0314342
-0.0250734
-0.0171032
-0.00862417
-0.0012371
0.00433321
0.00778438
0.00895739
0.00768807
0.00384561
-0.00246997
-0.0106728
-0.0195692
-0.0275051
-0.0327902
-0.0341191
-0.0307694
-0.0216182
-0.0146134
-0.00679517
0.00021607
0.00572304
0.00938819
0.0109875
0.0103038
0.00715333
0.00156245
-0.00599554
-0.0144491
-0.0222258
-0.0276673
-0.0294699
-0.0267297
-0.0156306
-0.0103585
-0.00425587
0.00132581
0.00588478
0.00919181
0.0110412
0.0111673
0.00927825
0.00522642
-0.000737151
-0.00777759
-0.0145287
-0.019487
-0.0214687
-0.0195569
-0.00752131
-0.00457609
-0.001039
0.0022486
0.00512797
0.00759844
0.00954615
0.0106584
0.0104886
0.00862436
0.00501265
0.000166998
-0.00485295
-0.00879739
-0.0106832
-0.00978198
0.00188065
0.00211622
0.00257094
0.00301508
0.00373136
0.00503614
0.00696057
0.00913556
0.010967
0.0116782
0.0108774
0.00871826
0.00588445
0.00331247
0.00169283
0.00154576
0.0112148
0.00864737
0.00595287
0.00342251
0.00181435
0.00180794
0.00361569
0.00685157
0.0106482
0.0139634
0.0160378
0.0166589
0.0161607
0.0150814
0.0138383
0.0127511
0.0187494
0.0136754
0.00827349
0.0031064
-0.000628933
-0.00189821
-0.000300918
0.0037709
0.00923627
0.0147827
0.0193502
0.0223923
0.0240087
0.0243077
0.0234479
0.0217733
0.0228292
0.0159941
0.00879779
0.00177329
-0.00356414
-0.00587574
-0.00457857
-7.54864e-05
0.00641876
0.0134317
0.019683
0.0244693
0.0275741
0.0289271
0.0284533
0.0266978
0.0224318
0.0149915
0.00724573
-0.000559747
-0.00673271
-0.00974251
-0.00883761
-0.00450249
0.00216592
0.00956844
0.0163829
0.0218601
0.0256902
0.0276783
0.0276304
0.0263604
0.0175595
0.0108896
0.00392746
-0.00344201
-0.00957614
-0.0128926
-0.0126134
-0.0088953
-0.00300682
0.00362579
0.00975848
0.0147781
0.0184542
0.02061
0.0210384
0.0207568
0.00923086
0.00460702
-0.000396714
-0.00620305
-0.0114072
-0.0145597
-0.0148802
-0.0124892
-0.00835571
-0.00369018
0.000602021
0.0041513
0.00695278
0.00895652
0.00999863
0.0110381
-0.000794714
-0.00251938
-0.00474999
-0.00807681
-0.0115323
-0.0140236
-0.0149448
-0.0143803
-0.0129339
-0.0112908
-0.00979261
-0.00836708
-0.00678532
-0.00499749
-0.00320534
-0.000766682
-0.00985574
-0.00791673
-0.00673976
-0.00725332
-0.00875963
-0.0101111
-0.0105125
-0.00991972
-0.00908772
-0.00898097
-0.0100772
-0.012059
-0.0140441
-0.0150922
-0.0145694
-0.011782
-0.00920012
-0.00296732
0.00176602
0.00399904
0.00424273
0.00358076
0.00286896
0.00218343
0.000865844
-0.00187949
-0.00627209
-0.0115627
-0.016442
-0.0190586
-0.0183591
-0.0138346
-0.0147818
-0.00741508
-0.000784586
0.00418761
0.00736034
0.00884529
0.00865348
0.00657447
0.00236465
-0.00383368
-0.0112718
-0.0185145
-0.0240424
-0.0265464
-0.0253235
-0.0203348
-0.0173194
-0.00914506
-0.000959198
0.00567139
0.0103135
0.0129041
0.0133962
0.0115925
0.00728309
0.000542198
-0.00794083
-0.0167806
-0.0241819
-0.0284696
-0.0285261
-0.0238244
-0.0182651
-0.010415
-0.00178889
0.00551592
0.0108789
0.0141336
0.0151906
0.0138407
0.0098798
0.00333107
-0.00523714
-0.0145481
-0.022778
-0.0281042
-0.0292173
-0.0249804
-0.0176816
-0.0110334
-0.00306052
0.0038845
0.00916426
0.0125895
0.0140152
0.0132405
0.0100418
0.00437744
-0.00333805
-0.0120312
-0.0200344
-0.0255928
-0.0273898
-0.0238301
-0.0153324
-0.0104625
-0.00414872
0.00144392
0.00582362
0.00888322
0.0105023
0.0104742
0.00852004
0.00445767
-0.00153038
-0.00866818
-0.0155716
-0.0206871
-0.022798
-0.0201892
-0.0110093
-0.0083281
-0.00451953
-0.00112723
0.0016494
0.00388285
0.00554229
0.00641096
0.00610438
0.0042269
0.000664118
-0.00416694
-0.00925337
-0.0133418
-0.0154048
-0.0139853
-0.00484704
-0.00464429
-0.00389472
-0.00328747
-0.00261919
-0.00155323
1.90472e-05
0.00186512
0.00345995
0.00413268
0.00343427
0.00139395
-0.00139328
-0.00404158
-0.00578144
-0.00563196
0.0023791
-8.58007e-06
-0.00243868
-0.00481021
-0.00646507
-0.00674325
-0.00536443
-0.00257163
0.000926482
0.00418622
0.00642034
0.00728328
0.00695972
0.00592755
0.00466966
0.0037122
0.00927376
0.00449816
-0.000706472
-0.00576839
-0.009599
-0.0111956
-0.0101042
-0.00657279
-0.0014762
0.00399833
0.00877574
0.0122037
0.0141219
0.0146304
0.0138973
0.0122718
0.0142171
0.0077062
0.000643257
-0.00634332
-0.0118252
-0.0145173
-0.0137999
-0.0099141
-0.00385155
0.00303417
0.00950769
0.014726
0.018286
0.020011
0.0198216
0.0181575
0.0159636
0.00883862
0.00120479
-0.00658566
-0.012918
-0.0163201
-0.0160645
-0.0123554
-0.00621307
0.000953719
0.00790747
0.0138006
0.0181566
0.0206446
0.0210259
0.0200011
0.0141146
0.0077873
0.000980413
-0.0063484
-0.0125849
-0.0162152
-0.0164604
-0.0134797
-0.00825359
-0.00205537
0.00403107
0.00934498
0.0135267
0.0162599
0.0172561
0.0174207
0.00918553
0.00497227
0.000190261
-0.00549106
-0.0106576
-0.0139601
-0.0146932
-0.0129787
-0.00962772
-0.0056253
-0.00167946
0.00191785
0.00510204
0.0076972
0.00941856
0.0110871
0.00247668
0.00122143
-0.00074071
-0.00384068
-0.00705337
-0.00942035
-0.0104764
-0.0103724
-0.00967867
-0.00889093
-0.00809208
-0.0069958
-0.00529526
-0.00303264
-0.000542088
0.00260086
-0.00331407
-0.000513773
0.00117426
0.000931885
-0.000494211
-0.00199559
-0.00277521
-0.00280884
-0.00275478
-0.00344253
-0.00520353
-0.00759256
-0.00965377
-0.0103978
-0.00919605
-0.00553348
0.00112569
0.00800514
0.0129987
0.0152458
0.0153021
0.0142315
0.0128426
0.0112308
0.00886551
0.00517039
0.000155772
-0.00533449
-0.00978123
-0.011656
-0.00991204
-0.0043674
-0.00363435
0.0037369
0.0103234
0.0151344
0.0181656
0.0196163
0.019478
0.0174376
0.0131398
0.00664531
-0.00124396
-0.0089797
-0.0147659
-0.0171817
-0.0155471
-0.00988656
-0.00639748
0.00141757
0.00947222
0.0158522
0.0202466
0.0227171
0.0232263
0.0214931
0.0171967
0.0103346
0.00158515
-0.00757322
-0.0151658
-0.0193992
-0.0192068
-0.013791
-0.0090455
-0.00194609
0.00650112
0.0134969
0.0185271
0.0215533
0.0226217
0.0213703
0.0175312
0.0110419
0.00241866
-0.00703737
-0.0153846
-0.0207087
-0.0217759
-0.0167984
-0.0114822
-0.0058713
0.00194258
0.00859436
0.0135284
0.016724
0.0180995
0.017429
0.0144276
0.00896097
0.00136076
-0.00733435
-0.0153993
-0.0210245
-0.0229853
-0.0187007
-0.0130465
-0.0092619
-0.00302269
0.00236214
0.00644212
0.00926521
0.0107773
0.0108004
0.00902466
0.0052028
-0.000574669
-0.00760933
-0.0145197
-0.0197442
-0.0221529
-0.0188803
-0.0128717
-0.0110681
-0.00722559
-0.00392724
-0.00137824
0.000608955
0.00208067
0.00288619
0.00266621
0.000992202
-0.00232948
-0.00698702
-0.012023
-0.0162182
-0.0185981
-0.0166287
-0.0103292
-0.0106247
-0.00975036
-0.00914561
-0.00865475
-0.00787409
-0.00660905
-0.00498124
-0.00344996
-0.00265304
-0.00311367
-0.00492186
-0.00757985
-0.0102656
-0.0122184
-0.0116649
-0.00553246
-0.00800558
-0.0102619
-0.0125983
-0.0144321
-0.0150773
-0.014159
-0.0117741
-0.0085049
-0.00522108
-0.0027596
-0.00160022
-0.0016857
-0.00261202
-0.00388939
-0.0045657
0.000513224
-0.00402442
-0.00904579
-0.0140867
-0.0181397
-0.02021
-0.0197401
-0.0168046
-0.0121032
-0.00671457
-0.00173014
0.00206843
0.00435658
0.00515218
0.00463949
0.0032381
0.0062346
0.000158053
-0.00673134
-0.0137306
-0.019489
-0.0227399
-0.0227714
-0.0196414
-0.0141308
-0.00744267
-0.000804085
0.00482839
0.00888769
0.0110871
0.0113307
0.00992637
0.0101623
0.00356059
-0.00390441
-0.0117251
-0.0183486
-0.0223336
-0.0228767
-0.0200197
-0.0145655
-0.00772128
-0.000683812
0.00561339
0.0105409
0.0136416
0.0146214
0.0139551
0.0114895
0.00571778
-0.000914324
-0.0082585
-0.0147375
-0.018884
-0.0198864
-0.0177811
-0.013324
-0.0075871
-0.00155137
0.00407907
0.00882446
0.0122376
0.0139433
0.0145734
0.0102172
0.00654783
0.00193251
-0.00373075
-0.00903051
-0.0126758
-0.0139829
-0.013014
-0.0104146
-0.00697581
-0.0032625
0.000468724
0.00408946
0.00731512
0.00975731
0.0119481
0.00713918
0.00635588
0.00451454
0.0014529
-0.00176065
-0.00420978
-0.00549593
-0.00577707
-0.00557192
-0.00528224
-0.0048683
-0.00394177
-0.00213508
0.00049352
0.00355563
0.00716496
0.00486689
0.00829068
0.0102371
0.010103
0.00864703
0.00690922
0.00563355
0.00485038
0.00403649
0.00258059
0.000336125
-0.00216479
-0.00394696
-0.00414621
-0.00210574
0.00227635
0.0118292
0.018644
0.0234758
0.0255746
0.0254953
0.0242155
0.0224425
0.0202275
0.0171756
0.0129125
0.00769396
0.00229845
-0.00156981
-0.00270036
-0.000300095
0.00593243
0.0080736
0.0149561
0.0211531
0.0255459
0.0282446
0.0295458
0.0294538
0.0276128
0.0235829
0.0173361
0.0095846
0.0018606
-0.00393002
-0.00629449
-0.00457089
0.00133312
0.00518057
0.0122183
0.0197934
0.0256976
0.0297099
0.0320082
0.0325305
0.0309631
0.026896
0.0202583
0.0116776
0.0026326
-0.00484684
-0.00892914
-0.00864562
-0.00286935
0.0010166
0.00703306
0.0150149
0.02151
0.0261217
0.0290133
0.0299821
0.0288707
0.0252688
0.0190351
0.0106411
0.00137028
-0.00680246
-0.0119525
-0.0129971
-0.00753063
-0.00418679
0.00015069
0.00756843
0.013753
0.0182515
0.0212055
0.0225283
0.0219996
0.0192543
0.0140905
0.00677052
-0.00170283
-0.00958753
-0.0150799
-0.0171276
-0.0122543
-0.00941085
-0.00688368
-0.000903572
0.0041178
0.00780702
0.0103678
0.0117896
0.0118933
0.0103411
0.00681106
0.00131982
-0.00548912
-0.0122361
-0.017383
-0.0199597
-0.0160335
-0.0131826
-0.0123947
-0.0086333
-0.00555442
-0.00332162
-0.00161415
-0.000315784
0.000461192
0.000361764
-0.0010864
-0.0041568
-0.00860639
-0.0135006
-0.0176576
-0.0202133
-0.0175823
-0.014154
-0.0150424
-0.0140828
-0.0135621
-0.0133233
-0.0128657
-0.0119055
-0.010468
-0.00897248
-0.00806585
-0.00833637
-0.00995315
-0.012466
-0.0150964
-0.0171315
-0.0159646
-0.0117916
-0.0143812
-0.0164328
-0.0187651
-0.0208306
-0.0218787
-0.0214284
-0.0194411
-0.0163958
-0.01314
-0.0105577
-0.00919944
-0.00909034
-0.00986748
-0.0110518
-0.0111914
-0.00670008
-0.0109675
-0.0157286
-0.0207376
-0.025043
-0.0276164
-0.0277807
-0.0254452
-0.0211589
-0.0159257
-0.0108683
-0.00684664
-0.00427606
-0.00319194
-0.00340414
-0.00433629
-0.000409107
-0.00597365
-0.0126044
-0.0195873
-0.0256356
-0.0294684
-0.0302565
-0.0278767
-0.0229278
-0.0165017
-0.00982472
-0.0039288
0.00051393
0.00315051
0.00387214
0.00288731
0.00542223
-0.000578856
-0.00783121
-0.0156702
-0.0226016
-0.0271863
-0.0285204
-0.0264736
-0.021655
-0.0151338
-0.00807887
-0.00149173
0.00389049
0.00753201
0.00909839
0.00880173
0.0096328
0.00443297
-0.00206589
-0.00946782
-0.0162373
-0.0209231
-0.0226455
-0.021299
-0.0174601
-0.0120567
-0.00602077
-0.000105522
0.00511016
0.00909542
0.0114201
0.0123477
0.0117781
0.00856042
0.00396627
-0.00180933
-0.00736369
-0.0114175
-0.0132484
-0.0128345
-0.0106899
-0.00749686
-0.00377381
0.000188504
0.00419274
0.00789095
0.0108334
0.0132355
0.0121694
0.0116476
0.00968621
0.0064244
0.00297106
0.000267244
-0.00125141
-0.00172186
-0.00160088
-0.00128985
-0.000770366
0.000277487
0.00222031
0.0050428
0.00836885
0.0120275
0.0131441
0.0166739
0.018475
0.0182091
0.0166295
0.0146885
0.01303
0.011716
0.0103117
0.00841043
0.00603266
0.003742
0.00248011
0.00303769
0.00569874
0.0103424
0.0206316
0.0267037
0.0309485
0.032728
0.0325703
0.0313181
0.0295903
0.0273211
0.0241645
0.0198348
0.0148897
0.0100299
0.00671451
0.00610141
0.00882295
0.014731
0.0179438
0.0240836
0.0296066
0.0333968
0.0356256
0.036662
0.0365411
0.0349036
0.0312978
0.0256763
0.0184736
0.0112766
0.00584649
0.00365753
0.00533048
0.0110465
0.0149698
0.0211434
0.0280777
0.0333603
0.0368911
0.0389165
0.039372
0.0379137
0.0341082
0.0278609
0.0197378
0.0111886
0.00417211
0.000450754
0.000856607
0.00668448
0.00963253
0.0147802
0.0221685
0.0280595
0.0321712
0.0347256
0.0356208
0.0345513
0.0311143
0.0251329
0.0170903
0.00824764
0.000546337
-0.004164
-0.00497332
0.000762793
0.00226128
0.00577303
0.0127126
0.01835
0.0223549
0.0249799
0.0261625
0.0256253
0.0229809
0.0180215
0.0109663
0.00283051
-0.00465244
-0.00973037
-0.0115106
-0.00616587
-0.00583925
-0.00403707
0.00163786
0.00622311
0.00946847
0.0117093
0.0129426
0.0129979
0.01151
0.00812328
0.00282269
-0.0037551
-0.0102114
-0.0150331
-0.0173653
-0.0127932
-0.0127593
-0.0124916
-0.0088176
-0.00601557
-0.0041499
-0.00277739
-0.00169996
-0.00104187
-0.00113428
-0.00250319
-0.00546368
-0.00978574
-0.0145079
-0.0184491
-0.0207976
-0.0174029
-0.0165804
-0.0176923
-0.0166043
-0.0161911
-0.0162305
-0.0161185
-0.015482
-0.0142506
-0.0128544
-0.0119628
-0.0122049
-0.0137766
-0.016204
-0.0186912
-0.0205222
-0.0185522
-0.0162428
-0.0187287
-0.0204893
-0.022797
-0.0250811
-0.026505
-0.0264791
-0.024856
-0.0220437
-0.0189083
-0.0163681
-0.0150119
-0.0148448
-0.0154718
-0.0164142
-0.0157927
-0.0120456
-0.0159306
-0.0203225
-0.0252423
-0.0297435
-0.0327405
-0.0334363
-0.0316014
-0.0276822
-0.0226612
-0.0176884
-0.013663
-0.0110053
-0.00973169
-0.00960764
-0.00989068
-0.00543473
-0.0104619
-0.0167584
-0.0236576
-0.029912
-0.0342048
-0.0355889
-0.0337899
-0.0292832
-0.0231052
-0.0165036
-0.0105531
-0.00595498
-0.00305698
-0.00193903
-0.00244642
0.00177273
-0.00369215
-0.0107208
-0.0185376
-0.0256958
-0.0307377
-0.0326554
-0.0311742
-0.0267738
-0.0204596
-0.0134126
-0.00668964
-0.00107845
0.0028734
0.00483338
0.00480396
0.00817102
0.0033805
-0.00306992
-0.0105511
-0.0175691
-0.0226644
-0.0248753
-0.0239757
-0.0204286
-0.0151062
-0.00896065
-0.00281474
0.00268327
0.00697641
0.00961266
0.0105829
0.013009
0.00998381
0.00523548
-0.000756466
-0.00660578
-0.011011
-0.013177
-0.0129915
-0.0108957
-0.00755481
-0.00354367
0.000747432
0.00503598
0.00895383
0.0120723
0.0142663
0.0162136
0.0156309
0.0133166
0.00966743
0.00582
0.00278203
0.00107644
0.000642007
0.00103686
0.00181194
0.00285955
0.00433828
0.0065044
0.00933336
0.012651
0.0159519
0.0196546
0.0227264
0.0239879
0.0233622
0.0215977
0.0195656
0.0178139
0.0163678
0.0148871
0.0130804
0.0109641
0.00915417
0.00845959
0.00951889
0.0123592
0.0168331
0.0254715
0.0303939
0.0337741
0.0350955
0.0348706
0.0338504
0.0323894
0.0304754
0.0277447
0.0240073
0.0196217
0.0154256
0.0126797
0.0123634
0.014905
0.020086
0.0237076
0.029083
0.0339167
0.0370741
0.0387914
0.0394829
0.0391983
0.0376286
0.0343552
0.0292825
0.0229355
0.0165714
0.0118115
0.0100009
0.0116712
0.0170263
0.0206962
0.0263317
0.0326082
0.0372849
0.0403194
0.041988
0.0422335
0.0407076
0.0370176
0.0311006
0.0235354
0.0156815
0.00937007
0.00621783
0.00692281
0.0126336
0.0146769
0.0196096
0.0264361
0.031764
0.0353826
0.0375554
0.0381875
0.0369489
0.0334591
0.0276092
0.0198968
0.0115655
0.0045172
0.000467855
0.000208314
0.00604415
0.00606204
0.00965085
0.0161451
0.0212531
0.0247886
0.0270205
0.0279111
0.027156
0.024405
0.019451
0.0125201
0.00473726
-0.00222018
-0.00665464
-0.00774206
-0.00210552
-0.0036914
-0.00163271
0.00375598
0.00790636
0.0107058
0.0125442
0.0134756
0.013345
0.0117394
0.00828276
0.00303956
-0.00335321
-0.0094525
-0.0137471
-0.0153757
-0.0103409
-0.0124318
-0.0118253
-0.00824601
-0.00574855
-0.00425487
-0.00323106
-0.00244793
-0.00196631
-0.00217465
-0.00361033
-0.00659915
-0.0108758
-0.0154183
-0.0189992
-0.0207378
-0.0167339
-0.0179396
-0.0186685
-0.0174687
-0.0172003
-0.0175139
-0.0177096
-0.0173377
-0.0163143
-0.015041
-0.0142394
-0.0145734
-0.0162132
-0.0186094
-0.0209003
-0.0222528
-0.0195795
-0.0188576
-0.0209143
-0.0223937
-0.0246949
-0.0271564
-0.0288612
-0.0291239
-0.0277293
-0.0250863
-0.0220799
-0.0196777
-0.0184599
-0.018365
-0.0189367
-0.0194905
-0.0181584
-0.015292
-0.0187068
-0.0227413
-0.0275587
-0.0321757
-0.0354379
-0.0364487
-0.0348903
-0.0311698
-0.026299
-0.0214738
-0.0176003
-0.0150441
-0.0137405
-0.0133418
-0.0130276
-0.00864191
-0.0132214
-0.0191899
-0.0259777
-0.0323249
-0.0368706
-0.0385684
-0.0370446
-0.0327224
-0.0266633
-0.0201579
-0.0143059
-0.00978214
-0.00686248
-0.00554814
-0.00568136
-0.000783328
-0.00589825
-0.012758
-0.0205344
-0.0278036
-0.0330785
-0.0352614
-0.0339826
-0.0296722
-0.0233545
-0.0162707
-0.00952999
-0.00392305
4.78399e-05
0.00210786
0.00214886
0.00678017
0.00213199
-0.00437922
-0.0119551
-0.0191353
-0.024438
-0.0268242
-0.0259869
-0.0223511
-0.0168213
-0.0104356
-0.00410545
0.00147751
0.0057815
0.00839505
0.00911913
0.0131673
0.0100222
0.00497458
-0.00128768
-0.00740044
-0.0120262
-0.0142921
-0.0140113
-0.0116027
-0.00778917
-0.00327785
0.0014027
0.00587917
0.00978905
0.0127367
0.014414
0.0180957
0.0171454
0.0143352
0.0102217
0.005949
0.00259447
0.000783327
0.000535439
0.00142752
0.00293736
0.00475292
0.00684528
0.00932905
0.0121896
0.0151874
0.0178539
0.0228651
0.0250541
0.0255246
0.0243891
0.0224023
0.0203853
0.0188107
0.0176592
0.0165943
0.0153121
0.0138536
0.012679
0.0124671
0.0137051
0.0164581
0.0202949
0.0251772
0.028955
0.0314502
0.0322627
0.0318939
0.0310085
0.0299185
0.0285101
0.0264256
0.0234661
0.0198974
0.0164812
0.0142674
0.0140983
0.0162852
0.0205975
0.0240698
0.028954
0.0332126
0.0358651
0.0371496
0.0374773
0.0369326
0.0352727
0.0321649
0.0275576
0.0219576
0.0164559
0.0124642
0.0111392
0.0129126
0.01788
0.0211282
0.0266971
0.032475
0.0366851
0.0393208
0.0406273
0.0405531
0.0388054
0.0350693
0.0293555
0.0222795
0.0151177
0.00955513
0.00702846
0.00814742
0.0136365
0.0151046
0.0204617
0.0268714
0.0317649
0.0350171
0.036837
0.037107
0.035559
0.0318684
0.0260064
0.0185281
0.0107087
0.00433785
0.000978523
0.00141121
0.00713766
0.00642355
0.0108395
0.0169806
0.021685
0.0248441
0.0267025
0.0272535
0.0261961
0.0232009
0.0181148
0.0112869
0.00381478
-0.00262591
-0.00635546
-0.00657004
-0.000978026
-0.003447
-0.000388428
0.00469157
0.00844295
0.0108832
0.0123952
0.0130564
0.0126969
0.0109103
0.00735633
0.00209178
-0.00413081
-0.00985401
-0.0135546
-0.0142904
-0.00925133
-0.0123616
-0.0108143
-0.00746802
-0.00531763
-0.00417113
-0.00340574
-0.0028076
-0.00243597
-0.00270148
-0.00419138
-0.00721427
-0.0114368
-0.0157627
-0.0189168
-0.0198905
-0.0158055
-0.0181098
-0.0180935
-0.017002
-0.016993
-0.0175623
-0.0179531
-0.0176794
-0.0166651
-0.0153609
-0.0145515
-0.0149284
-0.0166064
-0.0189553
-0.0210119
-0.0218223
-0.0189652
-0.0193145
-0.0208377
-0.0222801
-0.0247094
-0.0273271
-0.0291597
-0.0294599
-0.0280098
-0.025285
-0.0222408
-0.0198959
-0.0187965
-0.0187918
-0.0193097
-0.0195688
-0.017977
-0.0160419
-0.0190864
-0.0229824
-0.027815
-0.0325026
-0.035833
-0.0368471
-0.0352181
-0.0313719
-0.0264383
-0.0216683
-0.017955
-0.0155831
-0.014375
-0.0138771
-0.0133193
-0.00965786
-0.0139943
-0.0198129
-0.0265914
-0.0329554
-0.0375299
-0.0392022
-0.0375682
-0.0330702
-0.0268899
-0.020385
-0.0146681
-0.0103638
-0.00762169
-0.00635964
-0.00639515
-0.00200965
-0.00702346
-0.0138551
-0.0216427
-0.0289422
-0.0342337
-0.0363484
-0.0348829
-0.0303038
-0.023733
-0.0165141
-0.00980518
-0.00436295
-0.000622969
0.00125572
0.00116123
0.00548924
0.000730998
-0.00595632
-0.0136575
-0.0209284
-0.0262513
-0.0285233
-0.0274023
-0.0233496
-0.0173749
-0.0106479
-0.00417457
0.00133842
0.00541815
0.00773212
0.0080141
0.012006
0.00851408
0.00309583
-0.00344523
-0.00975923
-0.0144668
-0.0166254
-0.0160043
-0.0130495
-0.00859022
-0.00349404
0.00156304
0.00612976
0.00986313
0.0124279
0.0134624
0.0172638
0.0157882
0.0124725
0.00793143
0.00330218
-0.000277403
-0.00209497
-0.00206117
-0.000597503
0.0016852
0.00429944
0.00702042
0.00981344
0.0126272
0.0152442
0.0172184
0.022012
0.0232416
0.0229059
0.0212266
0.0189823
0.0169932
0.0157114
0.0150916
0.0147449
0.0142915
0.0136571
0.0131526
0.0133104
0.0145416
0.0168887
0.0199171
0.0200097
0.0229941
0.0248259
0.0252148
0.024654
0.0237671
0.0228626
0.0218298
0.0203226
0.0181057
0.0153404
0.0126414
0.0108823
0.0107992
0.0126516
0.0162284
0.0191673
0.0238664
0.0277912
0.0301856
0.0312395
0.0313058
0.0305003
0.0286697
0.0255926
0.0212884
0.0162469
0.0114359
0.00807245
0.0071461
0.00902056
0.0135821
0.0164877
0.0222803
0.0277995
0.031794
0.0342376
0.0352955
0.034935
0.0329349
0.0290871
0.023491
0.016787
0.0101729
0.00519452
0.00314457
0.00456548
0.00969685
0.0112174
0.0172165
0.0233931
0.0280883
0.0311819
0.0327818
0.0327968
0.0309797
0.0270989
0.0212131
0.0139347
0.00651566
0.000646664
-0.00217658
-0.00125393
0.00408387
0.00374215
0.00908868
0.0149465
0.0194154
0.0224216
0.024123
0.0244731
0.0232234
0.0200705
0.0149238
0.00820062
0.0010126
-0.00498413
-0.00821503
-0.00780694
-0.00269088
-0.00463944
-0.000599254
0.00408472
0.00750958
0.00977172
0.0111762
0.0117822
0.0113965
0.00959312
0.00605896
0.00088289
-0.00512673
-0.0105109
-0.0137508
-0.0138469
-0.00938033
-0.012042
-0.00969336
-0.00684576
-0.00511923
-0.00415747
-0.00344748
-0.00275521
-0.00221055
-0.00228852
-0.00362642
-0.00652211
-0.0105779
-0.0146727
-0.0174636
-0.0179019
-0.0144183
-0.0165635
-0.0160526
-0.0154743
-0.0159014
-0.016674
-0.0170436
-0.0165391
-0.0151746
-0.013503
-0.0124244
-0.0126389
-0.0142111
-0.0164439
-0.0182993
-0.0187756
-0.0164461
-0.0170751
-0.0183954
-0.0202638
-0.0230632