/*--------------------------------*- C++ -*----------------------------------*\
| =========                 |                                                 |
| \\      /  F ield         | OpenFOAM: The Open Source CFD Toolbox           |
|  \\    /   O peration     | Version:  3.0.0                                 |
|   \\  /    A nd           | Web:      www.OpenFOAM.org                      |
|    \\/     M anipulation  |                                                 |
\*---------------------------------------------------------------------------*/
FoamFile
{
    version     2.0;
    format      ascii;
    class       surfaceScalarField;
    location    "0.75";
    object      phi;
}
// * * * * * * * * * * * * * * * * * * * * * * * * * * * * * * * * * * * * * //

dimensions      [0 3 -1 0 0 0 0];

internalField   nonuniform List<scalar> 
11520
(
-6.56456e-05
9.1422e-05
-0.000115369
-1.72397e-05
8.79114e-05
-0.000130095
3.61751e-05
9.51184e-05
-0.000123342
8.5358e-05
0.000113228
-9.30465e-05
0.000120967
0.000140001
-4.38216e-05
0.000135972
0.000170621
1.41794e-05
0.000127924
0.00019885
6.85479e-05
9.93446e-05
0.000218826
0.00010884
5.67731e-05
0.000226919
0.000129813
8.29022e-06
0.000222506
0.0001315
-3.8755e-05
0.000207718
0.000117014
-7.87415e-05
0.000186337
9.00712e-05
-0.000107635
0.000162314
5.3853e-05
-0.000122351
0.000138714
1.12809e-05
-0.000120738
0.000117465
-3.37476e-05
9.99015e-05
-7.55901e-05
-6.67035e-05
6.02332e-05
-0.0001188
-3.04155e-05
6.20551e-05
-0.000154194
9.20973e-06
6.99869e-05
-0.000168832
4.50713e-05
8.48329e-05
-0.000157964
7.01792e-05
0.000105231
-0.000122941
7.94767e-05
0.000127221
-7.07546e-05
7.14505e-05
0.000145165
-1.19173e-05
4.8572e-05
0.000153906
4.28385e-05
1.62477e-05
0.000151076
8.5419e-05
-1.93078e-05
0.000138144
0.000111448
-5.2914e-05
0.000119553
0.000119531
-8.09963e-05
0.00010047
0.00010987
-0.00010104
8.45745e-05
8.36024e-05
-0.000110919
7.30914e-05
4.29957e-05
-0.000108832
6.53598e-05
-7.81241e-06
6.02057e-05
-6.17106e-05
-7.03842e-05
2.00735e-05
-0.000116405
-4.13522e-05
2.93689e-05
-0.000167881
-1.07066e-05
3.93591e-05
-0.000200373
1.59968e-05
5.09316e-05
-0.000206818
3.37716e-05
6.33229e-05
-0.000185818
3.93691e-05
7.36557e-05
-0.00014176
3.2159e-05
7.76127e-05
-8.33297e-05
1.41972e-05
7.17266e-05
-2.09497e-05
-1.06029e-05
5.57427e-05
3.58058e-05
-3.786e-05
3.3557e-05
7.97233e-05
-6.38607e-05
1.16739e-05
0.000106194
-8.58021e-05
-3.8273e-06
0.000112601
-0.000101426
-1.00343e-05
9.80511e-05
-0.000108698
-7.67391e-06
6.3527e-05
-0.00010597
8.01033e-08
1.2538e-05
9.57883e-06
-4.75118e-05
-7.6027e-05
-2.37637e-05
-0.000109021
-4.77439e-05
-6.3288e-06
-0.000169715
-1.92615e-05
6.61922e-06
-0.000214265
4.54093e-06
1.5514e-05
-0.000233938
1.97195e-05
1.99149e-05
-0.00022512
2.42318e-05
1.78867e-05
-0.000189974
1.78588e-05
6.93509e-06
-0.000135402
2.11657e-06
-1.40937e-05
-7.11207e-05
-2.02796e-05
-4.29209e-05
-7.30375e-06
-4.60794e-05
-7.333e-05
4.72199e-05
-7.19137e-05
-9.73428e-05
8.58091e-05
-9.44359e-05
-0.000108694
0.000104072
-0.000110489
-0.000105463
9.96944e-05
-0.00011739
-9.01777e-05
7.25736e-05
-0.000113502
-6.7997e-05
2.53788e-05
-4.44046e-05
-3.5102e-05
-8.26991e-05
-6.55095e-05
-9.74964e-05
-4.87232e-05
-4.06569e-05
-0.000159478
-1.552e-05
-2.43582e-05
-0.000208686
1.17056e-05
-1.69455e-05
-0.000235769
2.92265e-05
-1.89732e-05
-0.000235736
3.51201e-05
-3.1547e-05
-0.000208936
2.91168e-05
-5.54569e-05
-0.00016064
1.22431e-05
-8.94916e-05
-9.95339e-05
-1.3423e-05
-0.000128873
-3.56702e-05
-4.47386e-05
-0.000165489
2.15607e-05
-7.74912e-05
-0.00019053
6.47481e-05
-0.000106691
-0.00019811
8.88823e-05
-0.000127405
-0.000187401
9.11542e-05
-0.000135807
-0.000162239
7.08691e-05
-0.000130153
-0.000128976
2.9926e-05
-9.41157e-05
-2.58115e-05
-8.95217e-05
-9.89891e-05
-8.33929e-05
-4.49132e-05
-6.84576e-05
-0.000138705
-1.51781e-06
-4.88946e-05
-0.000184491
3.43299e-05
-4.15048e-05
-0.000212053
5.81089e-05
-4.72517e-05
-0.000216102
6.73066e-05
-6.68259e-05
-0.00019591
6.11617e-05
-9.97283e-05
-0.000155395
4.03025e-05
-0.000142788
-0.000102049
6.78784e-06
-0.000189213
-4.5062e-05
-3.54501e-05
-0.000229576
6.76858e-06
-8.03833e-05
-0.000254879
4.65911e-05
-0.000120649
-0.000259905
6.99577e-05
-0.000149057
-0.00024477
7.44188e-05
-0.00016039
-0.000213999
5.9287e-05
-0.0001527
-0.000174309
2.59147e-05
-0.000132385
-2.09206e-05
-9.57178e-05
-0.000118427
-6.88759e-05
-3.77214e-05
-8.45409e-05
-0.00011048
1.91847e-05
-6.22031e-05
-0.000145116
6.70088e-05
-5.34549e-05
-0.000165993
9.97526e-05
-5.98752e-05
-0.000168727
0.000113711
-8.21965e-05
-0.000152473
0.000107283
-0.000119228
-0.000120297
8.07474e-05
-0.000166507
-7.84219e-05
3.65895e-05
-0.000215934
-3.45099e-05
-1.97836e-05
-0.000257476
4.39404e-06
-7.99396e-05
-0.000282465
3.32783e-05
-0.000133712
-0.000286531
4.9353e-05
-0.000171536
-0.000270402
5.13549e-05
-0.000186778
-0.000238632
3.90775e-05
-0.000177227
-0.000197539
1.35919e-05
-0.000153296
-2.14659e-05
-0.000100606
-0.000119734
-5.63262e-05
-2.86619e-05
-8.5057e-05
-7.89436e-05
4.28957e-05
-6.07385e-05
-9.60997e-05
0.000104217
-4.95891e-05
-0.000103895
0.000147454
-5.39268e-05
-9.99785e-05
0.000167263
-7.49489e-05
-8.44218e-05
0.000160891
-0.000111312
-6.01141e-05
0.000128216
-0.00015798
-3.21113e-05
7.24033e-05
-0.000206343
-5.9941e-06
7.58425e-07
-0.000246494
1.39262e-05
-7.55435e-05
-0.000270612
2.56209e-05
-0.000143478
-0.000275219
2.88396e-05
-0.000191238
-0.000261291
2.41283e-05
-0.000210913
-0.000232804
1.21767e-05
-0.00020007
-0.000195051
-5.97419e-06
-0.000153139
-2.78544e-05
-0.000103585
-0.000101721
-4.78635e-05
-1.89554e-05
-6.88e-05
-4.87228e-05
6.65241e-05
-4.35282e-05
-4.44561e-05
0.000141263
-2.94183e-05
-3.45588e-05
0.000195394
-2.96014e-05
-1.94769e-05
0.000221728
-4.5925e-05
-1.26323e-06
0.000216038
-7.74156e-05
1.67148e-05
0.000177694
-0.000119097
3.02403e-05
0.000110676
-0.000162612
3.60834e-05
2.43825e-05
-0.000198939
3.34107e-05
-6.71997e-05
-0.00022151
2.38725e-05
-0.000148407
-0.000227785
1.03624e-05
-0.000205529
-0.000218651
-4.37677e-06
-0.000229692
-0.000197028
-1.84212e-05
-0.000218302
-0.000166676
-3.05724e-05
-0.000131266
-3.95056e-05
-0.000104141
-6.68517e-05
-4.49408e-05
-9.49915e-06
-3.80391e-05
-2.4374e-05
8.76255e-05
-1.29807e-05
2.08112e-06
0.00017423
4.21499e-06
3.16466e-05
0.000238578
9.64067e-06
6.06819e-05
0.000271455
5.51323e-07
8.4733e-05
0.000267011
-2.26759e-05
9.89595e-05
0.000224025
-5.56938e-05
9.95675e-05
0.000147357
-9.10976e-05
8.56119e-05
4.85557e-05
-0.000121394
5.99086e-05
-5.58623e-05
-0.000141703
2.80399e-05
-0.000148043
-0.000150348
-3.76766e-06
-0.000212934
-0.000147887
-3.04043e-05
-0.00024108
-0.00013584
-4.86068e-05
-0.000229862
-0.000116082
-5.6839e-05
-9.05809e-05
-5.47682e-05
-0.000101942
-2.10643e-05
-4.80436e-05
-9.97276e-07
1.66681e-06
-9.76022e-06
0.00010421
2.52904e-05
3.60773e-05
0.000199741
4.52953e-05
8.4124e-05
0.00027233
5.70827e-05
0.000127859
0.000310811
5.70988e-05
0.000160038
0.000307781
4.47266e-05
0.000173926
0.000261491
2.32368e-05
0.000165459
0.000177714
-1.53513e-06
0.000135433
6.99019e-05
-2.41403e-05
8.98834e-05
-4.3395e-05
-4.15456e-05
3.79833e-05
-0.000142928
-5.29303e-05
-1.09787e-05
-0.000212994
-5.82924e-05
-4.96903e-05
-0.000244015
-5.75543e-05
-7.35362e-05
-0.000233483
-5.05532e-05
-8.05636e-05
-3.73632e-05
-7.11196e-05
-9.70354e-05
2.7426e-05
-5.6574e-05
5.79648e-06
4.27332e-05
-7.36961e-06
0.000114475
6.37825e-05
5.17198e-05
0.000214699
8.59839e-05
0.000113889
0.000292125
0.000104326
0.000170564
0.000334143
0.000114454
0.000212044
0.000332116
0.000114598
0.000229418
0.000284055
0.000106467
0.000217643
0.000196607
9.38157e-05
0.0001783
8.46251e-05
7.97649e-05
0.000119579
-3.22113e-05
6.55127e-05
5.32797e-05
-0.000134264
5.12296e-05
-8.98148e-06
-0.000206017
3.76243e-05
-5.81333e-05
-0.000238289
2.64137e-05
-8.84377e-05
-0.000228708
1.98481e-05
-9.7436e-05
1.96886e-05
-8.56433e-05
-9.00213e-05
7.00799e-05
-6.89876e-05
9.80534e-06
7.75803e-05
-1.76586e-05
0.000116647
9.51722e-05
4.61489e-05
0.000216323
0.000118693
0.000115628
0.000294063
0.000143052
0.000181292
0.000336529
0.000163283
0.000231728
0.000334582
0.000176315
0.000256067
0.000286433
0.000181878
0.00024777
0.000199494
0.000181307
0.00020796
8.92469e-05
0.00017542
0.000145404
-2.47485e-05
0.000163924
7.30128e-05
-0.000123622
0.000146734
3.55244e-06
-0.000192987
0.000125349
-5.28174e-05
-0.000224465
0.000103052
-8.96842e-05
-0.000215923
8.38579e-05
-0.000103959
7.11154e-05
-9.5653e-05
-8.21181e-05
9.99292e-05
-8.31537e-05
9.85884e-06
0.000100491
-3.90809e-05
0.000109326
0.000114311
2.01706e-05
0.000202794
0.000138086
8.90022e-05
0.000275829
0.000167127
0.000158148
0.000315259
0.000196094
0.000215686
0.000312316
0.000220568
0.000249461
0.000265881
0.000238073
0.000251239
0.000183898
0.000247476
0.00022048
8.15537e-05
0.000247719
0.000164671
-2.2945e-05
0.000237746
9.59463e-05
-0.000112795
0.000217754
2.67663e-05
-0.000175538
0.000190204
-3.27863e-05
-0.000204083
0.000159528
-7.58002e-05
-0.000196559
0.00013084
-9.84267e-05
0.000108454
-9.93478e-05
-7.4909e-05
0.000112968
-9.70866e-05
4.93736e-06
0.000108756
-6.83464e-05
9.19923e-05
0.000119142
-2.19274e-05
0.000174043
0.000142076
3.85057e-05
0.00023776
0.000173592
0.000105166
0.000271107
0.000208224
0.000166748
0.000266499
0.000240311
0.000210815
0.00022376
0.000265309
0.000227696
0.000150945
0.000280091
0.000214322
6.20275e-05
0.000282652
0.000175124
-2.72503e-05
0.00027226
0.000119434
-0.000103102
0.000250118
5.77595e-05
-0.000155684
0.0002196
-7.17589e-07
-0.000179517
0.000185487
-4.89133e-05
-0.000173001
0.000152858
-8.19615e-05
0.000125953
-9.65866e-05
-7.01346e-05
-0.000109487
-5.27959e-06
-0.000101296
6.58895e-05
-7.36e-05
0.00013277
-2.74587e-05
0.000183805
3.15049e-05
0.00020897
9.33879e-05
0.000202644
0.000146068
0.000165769
0.000178857
0.000105955
0.000186214
3.49495e-05
0.000169051
-3.49972e-05
0.000132965
-9.37962e-05
8.53171e-05
-0.000134518
3.32601e-05
-0.000153179
-1.68353e-05
-0.000148241
-5.93998e-05
-8.91831e-05
-7.86417e-05
3.39154e-05
-0.000123954
-4.51333e-05
8.36689e-06
-0.000151715
-5.9629e-06
6.38639e-06
-0.000150313
3.23013e-05
2.94646e-05
-0.00011626
6.28001e-05
7.52212e-05
-5.4389e-05
7.96821e-05
0.00013691
2.33507e-05
7.97905e-05
0.000204122
0.000101146
6.3555e-05
0.000264903
0.000164334
3.48474e-05
0.000308587
0.000203395
-5.06842e-07
0.000328308
0.00021539
-3.6651e-05
0.000322272
0.0002025
-6.88795e-05
0.000293286
0.000169217
-9.37715e-05
0.000247165
0.000120372
-0.000108751
0.000190959
6.07269e-05
-0.000111702
0.000131969
-4.07362e-06
7.76181e-05
-6.58864e-05
-6.12739e-05
1.24167e-06
-0.000101214
-3.93277e-05
-1.83794e-05
-0.000149394
-1.38321e-05
-1.95879e-05
-0.000168353
1.10044e-05
-2.42768e-07
-0.000153094
3.09344e-05
3.80458e-05
-0.000105695
4.2301e-05
8.95879e-05
-3.47994e-05
4.28462e-05
0.000145175
4.64842e-05
3.25085e-05
0.000194131
0.000123948
1.36387e-05
0.000227256
0.00018562
-9.84804e-06
0.000239438
0.000223805
-3.39604e-05
0.000230614
0.000235302
-5.55191e-05
0.00020459
0.000220125
-7.22429e-05
0.000166861
0.000180631
-8.22828e-05
0.000122844
0.000121151
-8.40167e-05
7.74296e-05
4.84612e-05
3.56119e-05
-2.73602e-05
-4.73409e-05
-4.35408e-05
-8.2739e-05
-3.15751e-05
-5.50942e-05
-0.000146932
-1.42277e-05
-5.41108e-05
-0.000183198
1.8114e-06
-3.84209e-05
-0.000184679
1.41434e-05
-8.96346e-06
-0.000151141
2.10324e-05
2.97525e-05
-8.88134e-05
2.1456e-05
7.02105e-05
-8.78882e-06
1.53315e-05
0.000103762
7.55438e-05
3.68306e-06
0.000123448
0.000151262
-1.15593e-05
0.000126399
0.000208005
-2.80806e-05
0.00011439
0.00023894
-4.37145e-05
9.2086e-05
0.000240739
-5.63749e-05
6.43643e-05
0.000213208
-6.4098e-05
3.47538e-05
0.00015934
-6.52219e-05
5.61226e-06
8.54792e-05
-2.08003e-05
2.13546e-06
-3.90421e-05
-9.42619e-05
-7.06964e-05
-2.30083e-05
-9.70637e-05
-0.000143779
-6.83913e-06
-9.29575e-05
-0.000191587
6.8529e-06
-8.01544e-05
-0.000205896
1.6531e-05
-5.92091e-05
-0.000184552
2.15565e-05
-3.35248e-05
-0.000131722
2.1713e-05
-8.73428e-06
-5.66133e-05
1.69534e-05
8.88038e-06
2.85205e-05
7.43826e-06
1.49932e-05
0.000110666
-6.10971e-06
9.05852e-06
0.000178108
-2.21222e-05
-5.62052e-06
0.000221832
-3.82749e-05
-2.39739e-05
0.000236285
-5.16761e-05
-4.2035e-05
0.000219495
-5.95382e-05
-5.79749e-05
0.000173164
-5.98053e-05
-7.1636e-05
0.000102894
-8.28448e-05
1.85761e-05
-3.76691e-05
-0.000143994
-6.63621e-05
-1.52366e-05
-0.000138855
-0.00014012
6.51602e-06
-0.0001313
-0.000192095
2.43288e-05
-0.000120135
-0.000213601
3.64915e-05
-0.00010586
-0.000201248
4.24959e-05
-9.10076e-05
-0.000157458
4.23305e-05
-7.95591e-05
-8.96494e-05
3.587e-05
-7.5473e-05
-8.72008e-06
2.29931e-05
-8.06536e-05
7.28534e-05
4.24819e-06
-9.36288e-05
0.000142993
-1.83494e-05
-0.000110053
0.000191778
-4.11135e-05
-0.000124977
0.00021265
-5.95277e-05
-0.00013535
0.000202883
-6.94886e-05
-0.000140728
0.000163583
-6.85955e-05
-0.000142322
9.97193e-05
-0.00014126
2.02754e-05
-4.32577e-05
-0.000185255
-7.03308e-05
-9.93905e-06
-0.000174133
-0.000136746
2.25884e-05
-0.000163405
-0.000184914
4.96778e-05
-0.000152469
-0.000206809
6.85036e-05
-0.000142037
-0.000198751
7.78404e-05
-0.000134211
-0.000162043
7.72953e-05
-0.000131807
-0.000102602
6.66607e-05
-0.000136994
-2.98936e-05
4.60316e-05
-0.000149728
4.46413e-05
1.67319e-05
-0.000167078
0.000109517
-1.76912e-05
-0.000184221
0.000155182
-5.13975e-05
-0.000196714
0.0001754
-7.7773e-05
-0.000202353
0.000167798
-9.12709e-05
-0.000201518
0.000133576
-8.91155e-05
-0.000195955
7.7392e-05
-0.000187131
7.29183e-06
-5.47015e-05
-0.000211079
-8.23545e-05
-8.18581e-06
-0.00019661
-0.000134519
3.8114e-05
-0.000183468
-0.000171352
7.77122e-05
-0.000171487
-0.000186573
0.000106019
-0.000161793
-0.000177277
0.000120405
-0.000156551
-0.000144518
0.000119629
-0.000158074
-9.32542e-05
0.000103327
-0.000167471
-3.16426e-05
7.22226e-05
-0.000183449
3.0316e-05
2.9172e-05
-0.000202286
8.26532e-05
-1.99883e-05
-0.000219217
0.000117434
-6.6888e-05
-0.000230494
0.000130033
-0.000102694
-0.000234611
0.000119419
-0.000120534
-0.000232173
8.75732e-05
-0.000117288
-0.000224698
3.9089e-05
-0.000213215
-1.86667e-05
-7.01164e-05
-0.000216482
-0.000101098
-1.01554e-05
-0.000201545
-0.000133969
5.07433e-05
-0.000187042
-0.000153424
0.000104142
-0.000173054
-0.000155726
0.000143348
-0.000161259
-0.00013972
0.000163859
-0.00015431
-0.000107173
0.0001632
-0.000154702
-6.28283e-05
0.000140754
-0.000163254
-1.38815e-05
9.81248e-05
-0.00017825
3.14353e-05
4.02084e-05
-0.000195841
6.53972e-05
-2.44549e-05
-0.00021177
8.28373e-05
-8.48623e-05
-0.000223073
8.18261e-05
-0.000130241
-0.000228684
6.35798e-05
-0.00015261
-0.000228865
3.12379e-05
-0.000148654
-0.000224358
-1.027e-05
-0.00021517
-5.42618e-05
-8.72098e-05
-0.000199813
-0.000124051
-1.52211e-05
-0.000187195
-0.000135061
5.9272e-05
-0.000172473
-0.000133519
0.00012605
-0.000155857
-0.000118534
0.000176292
-0.000139632
-9.13461e-05
0.000203348
-0.000127312
-5.53171e-05
0.000203252
-0.000122097
-1.57942e-05
0.000174974
-0.000125281
2.05451e-05
0.000121188
-0.000135481
4.70997e-05
4.90689e-05
-0.00014943
5.91196e-05
-3.0056e-05
-0.000163757
5.49852e-05
-0.00010278
-0.000176258
3.62709e-05
-0.000156742
-0.000185937
6.83813e-06
-0.000183294
-0.000192345
-2.83902e-05
-0.000179082
-0.000194987
-6.4155e-05
-0.000192437
-9.45922e-05
-0.000103576
-0.000163462
-0.000147697
-2.22429e-05
-0.000155619
-0.000137283
6.33707e-05
-0.000141759
-0.000114246
0.000141665
-0.000122201
-8.03031e-05
0.000201849
-9.98578e-05
-3.92765e-05
0.00023518
-7.92292e-05
3.31971e-06
0.000236013
-6.46965e-05
4.07257e-05
0.000202828
-5.86682e-05
6.61397e-05
0.000139396
-6.08618e-05
7.44246e-05
5.51931e-05
-6.92306e-05
6.39122e-05
-3.58798e-05
-8.15723e-05
3.69276e-05
-0.000118453
-9.63212e-05
-1.13115e-06
-0.000179157
-0.000112251
-4.33866e-05
-0.000209067
-0.000127795
-8.32473e-05
-0.000204954
-0.0001409
-0.000115039
-0.000148494
-0.000133685
-0.000116919
-0.000113613
-0.000168076
-2.98938e-05
-0.000112467
-0.000139937
6.31659e-05
-0.000100412
-9.83294e-05
0.000149806
-7.78751e-05
-4.68421e-05
0.000217727
-4.83355e-05
8.41525e-06
0.000256273
-1.73199e-05
5.95827e-05
0.000258192
9.3518e-06
9.79592e-05
0.000221468
2.76471e-05
0.000115868
0.000150894
3.59831e-05
0.000109161
5.80021e-05
3.46276e-05
7.89175e-05
-4.12365e-05
2.44226e-05
3.1227e-05
-0.000130171
6.47315e-06
-2.48388e-05
-0.000195015
-1.7408e-05
-7.96887e-05
-0.000227004
-4.42414e-05
-0.000125101
-0.000223204
-7.01621e-05
-0.000155101
-9.0349e-05
-0.000165366
-0.000125299
-5.8993e-05
-0.000181597
-3.69576e-05
-6.5725e-05
-0.000142453
5.89051e-05
-5.62179e-05
-8.83375e-05
0.000149577
-3.10359e-05
-2.36218e-05
0.000221902
6.01905e-06
4.38843e-05
0.000263802
4.8512e-05
0.000104311
0.000266693
8.91125e-05
0.000146767
0.000228185
0.000121654
0.000162144
0.000153884
0.000142176
0.000146409
5.68446e-05
0.000148677
0.000102569
-4.56811e-05
0.000140559
3.96692e-05
-0.00013659
0.000118693
-3.02927e-05
-0.000202367
8.57995e-05
-9.55635e-05
-0.000234813
4.64898e-05
-0.000146723
-0.000231387
6.56766e-06
-0.000177592
-2.73178e-05
-0.00018436
-0.000127412
-8.96422e-06
-0.000185856
-4.25463e-05
-2.37283e-05
-0.000144521
5.07473e-05
-1.72996e-05
-8.6063e-05
0.000140293
9.81455e-06
-1.47684e-05
0.000212724
5.38044e-05
6.10765e-05
0.00025538
0.0001075
0.000130084
0.000258925
0.000162218
0.000179417
0.000220722
0.000209513
0.000198113
0.000146871
0.000242623
0.000181364
5.1146e-05
0.000257041
0.000132765
-4.89604e-05
0.000250769
6.2909e-05
-0.000136855
0.000224681
-1.45408e-05
-0.00019995
0.000182674
-8.65977e-05
-0.000230987
0.000131084
-0.000143241
-0.000227947
7.76522e-05
-0.000178084
3.06346e-05
-0.0001873
-0.000122831
2.84599e-05
-0.000180203
-4.62244e-05
6.69853e-06
-0.000146115
3.90127e-05
9.86934e-06
-9.22355e-05
0.000121792
3.79028e-05
-2.18653e-05
0.000189598
8.70517e-05
5.70951e-05
0.000230068
0.000149979
0.000132737
0.000233861
0.000216946
0.00019094
0.000198273
0.000277357
0.000218983
0.000129381
0.00032167
0.000210325
4.06982e-05
0.00034294
0.000167456
-5.11313e-05
0.000337984
0.000100561
-0.000130911
0.000307965
2.32614e-05
-0.000187672
0.000258065
-5.14163e-05
-0.000215403
0.000196299
-0.000113284
-0.000212635
0.000131962
-0.000155505
7.44945e-05
-0.000173386
-0.000112081
4.81273e-05
-0.000166054
-4.78901e-05
2.16508e-05
-0.00014749
2.42853e-05
2.19691e-05
-0.000106203
9.50867e-05
4.95217e-05
-4.39147e-05
0.000153607
0.00010099
3.27063e-05
0.000188933
0.000169245
0.000112157
0.000192602
0.000243817
0.000180275
0.00016202
0.00031255
0.000223085
0.000102567
0.000363815
0.000231629
2.63811e-05
0.000388981
0.000205269
-5.17999e-05
0.000384348
0.000151251
-0.000118977
0.00035171
8.1192e-05
-0.000166258
0.000297396
7.23301e-06
-0.000189142
0.000230384
-6.01143e-05
-0.000186697
0.000160565
-0.000113009
9.76595e-05
-0.000145068
-9.67321e-05
-0.000146491
-4.7646e-05
-0.000148987
8.12714e-06
-0.00012599
6.29372e-05
-7.72617e-05
0.000107995
-7.71528e-06
0.000134899
7.27651e-05
0.000137414
0.000150542
0.00011388
0.000210781
6.86279e-05
0.000241819
1.09558e-05
0.000238859
-4.80714e-05
0.000204727
-9.88823e-05
0.000147634
-0.000135043
7.80251e-05
-0.000153184
6.2634e-06
-0.000152278
-5.84333e-05
-0.000107649
-8.44241e-05
-3.26354e-05
-0.00012171
-7.18397e-05
-8.07299e-05
-0.000159334
-5.39058e-05
-9.41032e-05
-0.000162543
-3.37543e-05
-6.9388e-05
-0.000127219
-1.4732e-05
-9.026e-06
-5.84222e-05
-3.42631e-07
7.84815e-05
3.07939e-05
6.95219e-06
0.00017953
0.000123151
5.90439e-06
0.000277361
0.000201623
-2.92084e-06
0.000355356
0.000253778
-1.74426e-05
0.000400707
0.000274113
-3.49474e-05
0.000407198
0.000263575
-5.28619e-05
0.000375627
0.000227039
-6.91262e-05
0.000312603
0.000170617
-8.19128e-05
0.000228277
0.000100369
-8.93118e-05
0.000134684
2.29831e-05
4.50747e-05
-5.22702e-05
-4.73641e-05
-5.73696e-05
-7.44405e-05
-4.54971e-05
-9.96482e-05
-0.000132343
-4.05037e-05
-0.000112357
-0.000155093
-3.30329e-05
-9.21371e-05
-0.000137815
-2.38598e-05
-4.06483e-05
-8.3246e-05
-1.42676e-05
3.51071e-05
-1.01715e-06
-6.08013e-06
0.000123317
9.45104e-05
-1.25063e-06
0.000209133
0.000187347
-8.92043e-07
0.000277568
0.000263049
-4.83949e-06
0.000317112
0.000311347
-1.17994e-05
0.000322324
0.000327136
-2.03926e-05
0.000294471
0.000309874
-2.93389e-05
0.000239722
0.000262458
-3.74928e-05
0.000167064
0.000190518
-4.34916e-05
8.65284e-05
0.000102616
9.02047e-06
1.05276e-05
-1.43216e-05
-9.47141e-05
-3.99367e-05
-1.79565e-05
-0.000128674
-0.000114271
-2.01056e-05
-0.000139282
-0.000154123
-2.03956e-05
-0.000123424
-0.000153103
-1.81477e-05
-8.20685e-05
-0.000111968
-1.29981e-05
-2.0709e-05
-3.81469e-05
-5.53505e-06
5.09907e-05
5.6074e-05
2.64745e-06
0.000120629
0.000155865
9.55839e-06
0.00017565
0.000246269
1.36566e-05
0.000206544
0.000314475
1.42602e-05
0.000209265
0.000351395
1.15873e-05
0.00018554
0.000352342
6.42598e-06
0.000141022
0.000317069
1.76704e-07
8.29843e-05
0.000249669
-5.70678e-06
1.91649e-05
0.000158726
-4.25372e-05
5.68501e-05
9.62251e-06
-0.000139407
-2.19858e-05
6.65134e-06
-0.000164188
-0.000105294
4.0523e-06
-0.000171633
-0.000156638
2.20266e-06
-0.000159171
-0.000168299
2.24986e-06
-0.000127329
-0.000139339
5.38597e-06
-8.02853e-05
-7.52817e-05
1.18882e-05
-2.56155e-05
1.34906e-05
2.06254e-05
2.68851e-05
0.000113527
2.92869e-05
6.74052e-05
0.000210249
3.53461e-05
8.88192e-05
0.000289774
3.71202e-05
8.86048e-05
0.000340718
3.44591e-05
6.88736e-05
0.000355613
2.86598e-05
3.45017e-05
0.000331815
2.17424e-05
-8.8796e-06
0.000271946
1.59727e-05
-5.6003e-05
0.000183832
-0.000101361
7.97328e-05
2.07521e-05
-0.000185068
-2.25901e-05
2.42234e-05
-0.00020143
-0.000106349
2.7576e-05
-0.000205317
-0.000161764
3.03155e-05
-0.000194837
-0.000180675
3.31096e-05
-0.000170366
-0.000161006
3.71039e-05
-0.000135104
-0.000106633
4.28482e-05
-9.49005e-05
-2.61087e-05
4.95035e-05
-5.72292e-05
6.8739e-05
5.48632e-05
-2.93435e-05
0.000164242
5.63399e-05
-1.61588e-05
0.000246494
5.24409e-05
-1.89088e-05
0.000303191
4.38111e-05
-3.53637e-05
0.000325517
3.30612e-05
-6.1496e-05
0.000309631
2.35735e-05
-9.31597e-05
0.00025735
1.80855e-05
-0.000126566
0.00017577
-0.000158156
7.62926e-05
1.78357e-05
-0.00022454
-4.16564e-05
3.18842e-05
-0.000234507
-0.000117716
4.60282e-05
-0.000235183
-0.000169192
5.82182e-05
-0.000225207
-0.000188628
6.7786e-05
-0.000205033
-0.000173651
7.50433e-05
-0.000177384
-0.00012702
8.02571e-05
-0.000146997
-5.57199e-05
8.27607e-05
-0.000119647
3.00209e-05
8.08293e-05
-0.0001006
0.000117829
7.26619e-05
-9.30837e-05
0.00019461
5.7984e-05
-9.74569e-05
0.000248408
3.91082e-05
-0.000111638
0.00027055
2.0483e-05
-0.000132402
0.000257329
6.84488e-06
-0.000156576
0.00021063
1.78463e-06
-0.000181324
0.00013721
-0.000203685
4.7567e-05
2.02188e-06
-0.000251068
-7.67496e-05
2.86842e-05
-0.000257432
-0.000138257
5.62984e-05
-0.000255831
-0.000178317
8.08533e-05
-0.000245081
-0.000191254
9.97986e-05
-0.000225878
-0.000175377
0.000112002
-0.000201008
-0.000133098
0.000116986
-0.000174853
-7.03807e-05
0.000114121
-0.000152324
3.89918e-06
0.000102425
-0.00013745
7.88615e-05
8.15512e-05
-0.000132469
0.000142913
5.32076e-05
-0.000137358
0.000185679
2.19282e-05
-0.0001504
0.000200074
-5.91484e-06
-0.000168932
0.000183791
-2.41472e-05
-0.000190395
0.000139624
-2.89786e-05
-0.000211902
7.4498e-05
-0.000230448
-1.98176e-06
-2.37396e-05
-0.000259829
-0.000123176
1.55996e-05
-0.000265589
-0.000165151
5.71935e-05
-0.000262942
-0.000187907
9.50274e-05
-0.000250434
-0.000188207
0.000124435
-0.00022911
-0.000165896
0.000142475
-0.000202308
-0.000123913
0.000147555
-0.000174807
-6.79539e-05
0.000138967
-0.000151492
-6.12616e-06
0.000116552
-0.00013615
5.25508e-05
8.18929e-05
-0.000130624
9.82113e-05
3.91098e-05
-0.000134997
0.000123259
-4.96555e-06
-0.000147971
0.000123473
-4.17938e-05
-0.000167478
9.8954e-05
-6.46052e-05
-0.000190583
5.42374e-05
-6.91242e-05
-0.000214105
-3.54793e-06
-0.000234254
-6.50014e-05
-5.5549e-05
-0.000249063
-0.000174236
-4.97634e-06
-0.000257107
-0.000194117
4.93298e-05
-0.000254616
-0.000196151
9.96156e-05
-0.0002396
-0.000179655
0.000139194
-0.000213522
-0.000146512
0.000163194
-0.000180663
-0.000100962
0.00016871
-0.00014685
-4.9267e-05
0.000154659
-0.000117767
8.70621e-07
0.00012193
-9.77136e-05
4.1393e-05
7.41193e-05
-8.89696e-05
6.52755e-05
1.79451e-05
-9.20868e-05
6.82495e-05
-3.73967e-05
-0.000106236
4.98767e-05
-8.22973e-05
-0.000129303
1.35631e-05
-0.000108956
-0.000158053
-3.42615e-05
-0.000113214
-0.000188293
-8.57086e-05
-0.000214808
-0.000132285
-8.89746e-05
-0.000220601
-0.000222012
-2.9776e-05
-0.000233451
-0.000220138
3.45949e-05
-0.000232097
-0.000201136
9.51079e-05
-0.000213989
-0.000166427
0.000143399
-0.000181083
-0.000120007
0.000172786
-0.000138822
-6.79083e-05
0.000178977
-9.4543e-05
-1.77724e-05
0.000160367
-5.55239e-05
2.25077e-05
0.000118787
-2.7311e-05
4.5602e-05
5.98443e-05
-1.32738e-05
4.71587e-05
-7.36307e-06
-1.47251e-05
2.67734e-05
-7.16231e-05
-3.118e-05
-1.19266e-05
-0.000122474
-6.03741e-05
-6.14638e-05
-0.000151811
-9.81023e-05
-0.000113861
-0.000155692
-0.00013886
-0.000160591
-0.000175654
-0.000193703
-0.000119479
-0.000179494
-0.000258652
-5.51673e-05
-0.000199115
-0.000238586
1.5557e-05
-0.000199618
-0.000201533
8.29583e-05
-0.000178001
-0.000150231
0.000137559
-0.000136875
-9.03938e-05
0.000171188
-8.28232e-05
-3.00451e-05
0.000178153
-2.50249e-05
2.14755e-05
0.000156377
2.71706e-05
5.49497e-05
0.000108361
6.6175e-05
6.36916e-05
4.14882e-05
8.69527e-05
4.55636e-05
-3.3145e-05
8.71962e-05
3.93892e-06
-0.000103107
6.71898e-05
-5.32466e-05
-0.000157281
2.98392e-05
-0.000115728
-0.000187817
-1.94787e-05
-0.000173188
-0.000191204
-7.35576e-05
-0.000217017
-0.000123354
-0.00023992
-0.000142815
-0.000132874
-0.00027794
-7.76037e-05
-0.000160453
-0.000246326
-5.2107e-06
-0.000163204
-0.000197144
6.50365e-05
-0.000138271
-0.000133599
0.00012277
-8.83411e-05
-6.23832e-05
0.00015894
-2.13278e-05
6.64621e-06
0.000166783
5.17974e-05
6.21014e-05
0.000143613
0.000119204
9.32813e-05
9.24166e-05
0.00017067
9.31097e-05
2.18023e-05
0.000199036
6.11002e-05
-5.58442e-05
0.000200826
3.68619e-06
-0.000127437
0.00017631
-6.78197e-05
-0.000181942
0.000129322
-0.000140542
-0.000212062
6.68034e-05
-0.000202884
-0.000214874
-2.11848e-06
-0.000246219
-6.61955e-05
-0.000263855
-0.000155488
-8.84281e-05
-0.000276636
-9.39066e-05
-0.00012418
-0.000242375
-2.4583e-05
-0.000129557
-0.000189033
4.34203e-05
-0.000101729
-0.000119313
0.000100438
-4.37787e-05
-4.05032e-05
0.00013704
3.5686e-05
3.64678e-05
0.000145735
0.000124155
9.83649e-05
0.000123367
0.000207239
0.000132446
7.29021e-05
0.000271731
0.000130769
3.4821e-06
0.000307956
9.32643e-05
-7.21158e-05
0.000311147
2.81859e-05
-0.000140915
0.000281691
-5.11231e-05
-0.000192555
0.000224648
-0.000130283
-0.000220612
0.000148738
-0.000197118
-0.000222911
6.51997e-05
-0.000243102
-1.28107e-05
-0.000261774
-0.00015528
-5.30086e-05
-0.000255133
-0.000101854
-9.58856e-05
-0.000227835
-4.08276e-05
-0.000103982
-0.000178837
2.01172e-05
-7.45972e-05
-0.000109942
7.23654e-05
-1.07162e-05
-2.82157e-05
0.000107071
7.87129e-05
5.5004e-05
0.000116696
0.000180219
0.00012525
9.75185e-05
0.000277387
0.000168012
5.19773e-05
0.000354066
0.000173531
-1.11985e-05
0.000397816
0.000140772
-7.96853e-05
0.00040238
7.78142e-05
-0.000141338
0.000368327
-1.72233e-06
-0.000187007
0.000302117
-8.32167e-05
-0.000211444
0.000214468
-0.000154577
-0.000213224
0.000118569
-0.000207095
2.92306e-05
-0.00023386
-0.000141666
-3.13987e-05
-0.000217391
-0.00010021
-7.91835e-05
-0.000205648
-5.18987e-05
-8.97999e-05
-0.000168696
-2.74184e-06
-6.04681e-05
-0.000107201
4.0825e-05
5.85678e-06
-2.74334e-05
7.10936e-05
0.000100661
5.99398e-05
8.13781e-05
0.000210089
0.000140121
6.77114e-05
0.000316587
0.000197552
3.13791e-05
0.000401911
0.000220117
-2.04097e-05
0.000451266
0.000203607
-7.68517e-05
0.000457002
0.000153071
-0.000127369
0.000419885
8.0152e-05
-0.000164403
0.000347768
-1.38311e-06
-0.000184129
0.000252949
-7.88691e-05
-0.000185828
0.000149835
-0.000142576
5.38513e-05
-0.000184124
-0.000116335
-0.000170142
-8.89461e-05
-0.000179795
-5.57938e-05
-0.000160543
-2.14883e-05
-0.00011184
8.8407e-06
-3.81506e-05
3.05385e-05
5.14146e-05
3.91603e-05
0.000143179
3.21216e-05
0.000220805
9.91016e-06
0.000269027
-2.32452e-05
0.000278374
-6.05795e-05
0.000248294
-9.51976e-05
0.000186602
-0.000121981
0.000105992
-0.000138003
2.01022e-05
-0.000142029
-5.89144e-05
-0.000120427
-8.13166e-05
-9.63251e-05
-0.000109113
-9.36704e-05
-0.000164034
-0.000151724
-0.000101556
-0.000188559
-0.000158118
-0.000103833
-0.000165641
-0.000124265
-9.99201e-05
-9.79912e-05
-5.52717e-05
-9.03531e-05
4.86192e-06
3.59412e-05
-7.68408e-05
0.00012754
0.000132093
-6.1952e-05
0.000250866
0.000215944
-4.83182e-05
0.000354837
0.000274046
-3.79596e-05
0.000422532
0.000299358
-3.20709e-05
0.000443667
0.000291596
-3.10744e-05
0.000416086
0.000255391
-3.5005e-05
0.00034544
0.000197535
-4.32551e-05
0.000243166
0.000124587
-5.44308e-05
0.000124497
4.35525e-05
6.97253e-06
-3.66166e-05
-2.50513e-05
-0.000105466
-4.308e-05
-4.74983e-05
-0.000167656
-0.000106274
-6.75832e-05
-0.000191861
-0.000131707
-8.18612e-05
-0.000174203
-0.000114975
-8.72817e-05
-0.000116579
-5.92373e-05
-8.23673e-05
-2.674e-05
2.56704e-05
-6.79482e-05
8.23078e-05
0.000125324
-4.71975e-05
0.000193735
0.000223728
-2.44731e-05
0.000289371
0.00030579
-3.82125e-06
0.000353213
0.000360014
1.21129e-05
0.000374901
0.000379968
2.18002e-05
0.000351972
0.000364301
2.46162e-05
0.000289381
0.0003157
2.05485e-05
0.000197751
0.00024
1.05865e-05
9.09251e-05
0.00014615
-1.56362e-05
4.65542e-05
2.69175e-05
-0.000125132
5.26457e-06
-8.51251e-07
-0.000179132
-7.50275e-05
-2.74397e-05
-0.000201572
-0.000117823
-4.86461e-05
-0.000189016
-0.000117083
-6.03566e-05
-0.000142591
-7.42464e-05
-5.97838e-05
-6.8279e-05
2.81932e-06
-4.65744e-05
2.34241e-05
0.000101748
-2.32253e-05
0.000118432
0.000207819
5.58371e-06
0.000201136
0.000305696
3.44246e-05
0.000257343
0.000381504
5.856e-05
0.000277592
0.000424568
7.48614e-05
0.000259349
0.000428663
8.18047e-05
0.000206927
0.000392581
7.92193e-05
0.000129605
0.0003204
6.83035e-05
3.91784e-05
0.000221389
-5.20182e-05
0.000109084
6.67733e-05