/*--------------------------------*- C++ -*----------------------------------*\
| =========                 |                                                 |
| \\      /  F ield         | OpenFOAM: The Open Source CFD Toolbox           |
|  \\    /   O peration     | Version:  3.0.0                                 |
|   \\  /    A nd           | Web:      www.OpenFOAM.org                      |
|    \\/     M anipulation  |                                                 |
\*---------------------------------------------------------------------------*/
FoamFile
{
    version     2.0;
    format      ascii;
    class       volVectorField;
    location    "0.75";
    object      U;
}
// * * * * * * * * * * * * * * * * * * * * * * * * * * * * * * * * * * * * * //

dimensions      [0 1 -1 0 0 0 0];

internalField   nonuniform List<vector> 
4096
(
(-0.0225819 0.0262403 -0.0281297)
(-0.0110361 0.0248162 -0.0301267)
(0.00241434 0.0266251 -0.0276979)
(0.0160921 0.0316059 -0.0205271)
(0.0274777 0.0390079 -0.00977106)
(0.0343078 0.0474527 0.00223535)
(0.0352461 0.0553006 0.0127972)
(0.0302771 0.0611282 0.0199026)
(0.0206676 0.0640381 0.0227929)
(0.00846043 0.0637497 0.02184)
(-0.00423715 0.0605544 0.0179393)
(-0.0157183 0.0551783 0.01195)
(-0.0247572 0.0485492 0.00448977)
(-0.0304809 0.0415545 -0.00392763)
(-0.0322718 0.0349264 -0.012643)
(-0.0294096 0.0292611 -0.0205503)
(-0.0214094 0.020186 -0.0324622)
(-0.0126618 0.0198302 -0.0399077)
(-0.0026376 0.0217381 -0.043154)
(0.00742798 0.0260639 -0.0410216)
(0.0156086 0.0323614 -0.0337645)
(0.0202349 0.0394891 -0.0229727)
(0.0203832 0.0458587 -0.0109978)
(0.0161699 0.0499548 -9.79895e-05)
(0.00870108 0.0509071 0.00820175)
(-0.000393474 0.0487695 0.013236)
(-0.00956343 0.0443893 0.0148963)
(-0.0176757 0.0389634 0.013257)
(-0.0239765 0.0335328 0.00844229)
(-0.0279088 0.0286996 0.000722627)
(-0.0290046 0.0246625 -0.00924405)
(-0.0265297 0.021468 -0.0201039)
(-0.0215423 0.0107154 -0.0339102)
(-0.014366 0.0120677 -0.0456025)
(-0.00648932 0.0143215 -0.0536511)
(0.00114491 0.0177254 -0.0561438)
(0.00708124 0.0220237 -0.0525323)
(0.0101889 0.0263268 -0.0436968)
(0.00993454 0.0293154 -0.0315718)
(0.00650705 0.0298228 -0.018455)
(0.000736242 0.0274669 -0.00635926)
(-0.00622705 0.022929 0.00329156)
(-0.0132912 0.0176452 0.009606)
(-0.0196119 0.0131029 0.0120136)
(-0.0245481 0.0101886 0.0101677)
(-0.0275696 0.00896567 0.00403346)
(-0.0282311 0.00892069 -0.00590335)
(-0.0257942 0.00941805 -0.018278)
(-0.0230149 -0.000375121 -0.0324825)
(-0.015801 0.00304633 -0.0466481)
(-0.00831628 0.00594284 -0.0579734)
(-0.00138894 0.00851139 -0.0640362)
(0.00377106 0.0106195 -0.0636458)
(0.00635706 0.0116542 -0.0570468)
(0.00606471 0.0107274 -0.0457304)
(0.003082 0.00722341 -0.0318858)
(-0.00202029 0.00139457 -0.017776)
(-0.00844551 -0.00544841 -0.00530752)
(-0.0153179 -0.0114054 0.00411905)
(-0.0217481 -0.0148586 0.00952045)
(-0.026866 -0.0151663 0.0102435)
(-0.0299132 -0.012772 0.00599575)
(-0.0303619 -0.00879237 -0.00296456)
(-0.0274906 -0.00444236 -0.0154144)
(-0.0255702 -0.0116812 -0.0283664)
(-0.0167501 -0.00621393 -0.042919)
(-0.00789964 -0.00250702 -0.0555222)
(9.20498e-05 -0.000529957 -0.063574)
(0.00599008 -0.000383968 -0.0654916)
(0.00904644 -0.00243482 -0.0610286)
(0.00899959 -0.00708766 -0.051247)
(0.0059598 -0.0143256 -0.038111)
(0.000319248 -0.0232276 -0.0239044)
(-0.00726178 -0.0319332 -0.0107053)
(-0.0158219 -0.0382526 -0.000105834)
(-0.0241166 -0.0406049 0.00678225)
(-0.0307837 -0.0386425 0.00919842)
(-0.0346574 -0.0332162 0.00670582)
(-0.035059 -0.0258548 -0.000643326)
(-0.0313187 -0.0181489 -0.011871)
(-0.0287757 -0.0216611 -0.0221409)
(-0.0171787 -0.0144833 -0.034977)
(-0.00558748 -0.00992414 -0.0466706)
(0.00488551 -0.00817171 -0.0548218)
(0.0127527 -0.00939381 -0.0577857)
(0.017085 -0.0137852 -0.0550453)
(0.0174873 -0.0213456 -0.0473094)
(0.0139436 -0.0314798 -0.0362315)
(0.00676436 -0.0426737 -0.0238731)
(-0.00331367 -0.0526474 -0.0121393)
(-0.0149862 -0.059091 -0.00245302)
(-0.0264239 -0.0605732 0.00423374)
(-0.0356141 -0.0570231 0.00724802)
(-0.0408965 -0.0495553 0.00612697)
(-0.0414047 -0.0398969 0.000758581)
(-0.0365472 -0.0297882 -0.00818279)
(-0.0321363 -0.0287177 -0.0147376)
(-0.0171551 -0.0203619 -0.024019)
(-0.00201967 -0.0150148 -0.0327508)
(0.0118235 -0.013087 -0.0390955)
(0.0224807 -0.0148816 -0.0416935)
(0.0286636 -0.0205432 -0.0400301)
(0.0297032 -0.0298118 -0.0345914)
(0.0254114 -0.041666 -0.0266742)
(0.0160836 -0.0541574 -0.0178934)
(0.00269216 -0.0647566 -0.00964384)
(-0.0129279 -0.0711776 -0.00283263)
(-0.0282236 -0.0721933 0.00201381)
(-0.0404749 -0.0679387 0.00448881)
(-0.0475145 -0.0596209 0.00420638)
(-0.0482825 -0.0489567 0.00094076)
(-0.042283 -0.0376337 -0.00497163)
(-0.0351828 -0.0315221 -0.00729876)
(-0.0167681 -0.0226193 -0.0116859)
(0.00213599 -0.0166377 -0.0158324)
(0.0197047 -0.0141948 -0.018736)
(0.0335665 -0.0157738 -0.0196223)
(0.0419624 -0.0215913 -0.0182569)
(0.04384 -0.0312839 -0.0150682)
(0.038782 -0.0435916 -0.0110012)
(0.0270962 -0.0563302 -0.00705703)
(0.0100927 -0.0669057 -0.00384676)
(-0.00975002 -0.0731846 -0.00148281)
(-0.0291026 -0.0741664 0.000146768)
(-0.0445552 -0.0700965 0.00104503)
(-0.0534811 -0.0621056 0.000994798)
(-0.0546529 -0.0517192 -0.000284027)
(-0.0476756 -0.0404129 -0.00280869)
(-0.0375215 -0.0293559 -0.000983484)
(-0.0160769 -0.0205652 0.000190237)
(0.00633102 -0.0141766 0.00158331)
(0.0275182 -0.0109988 0.00323361)
(0.0446324 -0.0117222 0.00513052)
(0.0553935 -0.0167186 0.00701662)
(0.0582889 -0.0256606 0.00832733)
(0.0526058 -0.0372271 0.00840765)
(0.0386688 -0.0492003 0.00694254)
(0.0181848 -0.059115 0.00426608)
(-0.00568032 -0.0651066 0.00122464)
(-0.0288431 -0.0664094 -0.00129935)
(-0.047288 -0.0632855 -0.00279781)
(-0.0580229 -0.056648 -0.00322874)
(-0.0597021 -0.0476852 -0.00287141)
(-0.0520293 -0.0375432 -0.00207942)
(-0.0388471 -0.0223751 0.0032004)
(-0.015108 -0.014335 0.00980792)
(0.0101469 -0.00782335 0.0168737)
(0.0344444 -0.00382403 0.0235075)
(0.0545177 -0.00324297 0.0288532)
(0.0675626 -0.0066483 0.032008)
(0.0715541 -0.0138594 0.0321127)
(0.0654465 -0.0236434 0.0286867)
(0.049585 -0.033937 0.0220637)
(0.026104 -0.0425869 0.0135306)
(-0.00116661 -0.048109 0.00490053)
(-0.027494 -0.0499686 -0.00214001)
(-0.0484008 -0.048369 -0.00652953)
(-0.0606612 -0.0438995 -0.00791089)
(-0.0628741 -0.0373013 -0.00649463)
(-0.0548296 -0.0293099 -0.00290991)
(-0.0389601 -0.0116914 0.00457282)
(-0.013886 -0.00497466 0.0156539)
(0.0132537 0.00134189 0.0276439)
(0.039801 0.0061363 0.0389211)
(0.0621831 0.00830293 0.0478636)
(0.0771255 0.00704551 0.0528827)
(0.0821023 0.00233525 0.0527014)
(0.0757524 -0.00481441 0.046857)
(0.0584677 -0.012665 0.0361723)
(0.0327918 -0.0195303 0.0227259)
(0.00311984 -0.0243918 0.00917872)
(-0.0253487 -0.0269354 -0.00208037)
(-0.0478828 -0.0272473 -0.0094569)
(-0.0611768 -0.0255222 -0.0122506)
(-0.0638447 -0.0219885 -0.0105511)
(-0.0557445 -0.016913 -0.00513857)
(-0.0378047 0.000816518 0.00291676)
(-0.012494 0.0057598 0.0167665)
(0.01534 0.0115553 0.0321331)
(0.0429724 0.0170169 0.046978)
(0.0666509 0.0208882 0.0591148)
(0.0827564 0.022146 0.0663449)
(0.0883701 0.0204963 0.0669149)
(0.0819047 0.0166094 0.0602083)
(0.0638479 0.0117474 0.0472807)
(0.037088 0.00702061 0.0307023)
(0.00638739 0.00296027 0.0137022)
(-0.0228557 -0.000320827 -0.000819913)
(-0.0459079 -0.00274443 -0.0108458)
(-0.0595627 -0.00407982 -0.0153654)
(-0.0625094 -0.00401211 -0.0142748)
(-0.054641 -0.00231881 -0.00835217)
(-0.0355079 0.0129148 -0.0014683)
(-0.0111266 0.0158367 0.0129445)
(0.0160608 0.0208338 0.0295833)
(0.0433883 0.0267594 0.0463469)
(0.0670664 0.0322904 0.0607782)
(0.0833069 0.0362182 0.0702364)
(0.0889956 0.0379305 0.0725208)
(0.082492 0.0376344 0.0667168)
(0.0644406 0.0359948 0.0538049)
(0.0379574 0.0335034 0.0364535)
(0.00788551 0.0302443 0.0180722)
(-0.0205153 0.0262014 0.00179076)
(-0.0427901 0.021651 -0.0101412)
(-0.0560036 0.01725 -0.0164777)
(-0.0589781 0.0138313 -0.0168986)
(-0.0516097 0.0120745 -0.0119705)
(-0.0323983 0.0225277 -0.00784672)
(-0.0100816 0.0234774 0.0047923)
(0.0150982 0.0275105 0.0203949)
(0.0406464 0.0336385 0.0371387)
(0.0629003 0.0405814 0.0525961)
(0.0781217 0.0470044 0.0639457)
(0.083248 0.0519532 0.0686544)
(0.0767847 0.0550875 0.0654215)
(0.059576 0.0564247 0.0548562)
(0.0348035 0.0558907 0.0393021)
(0.00708681 0.0532486 0.021922)
(-0.0188008 0.0484668 0.00569861)
(-0.0389646 0.0420498 -0.00712545)
(-0.0509059 0.0350239 -0.0151807)
(-0.0536338 0.0286204 -0.0178884)
(-0.047005 0.0238736 -0.015397)
(-0.0289674 0.0281211 -0.015262)
(-0.0096938 0.0274966 -0.00643648)
(0.0122599 0.0305503 0.00601132)
(0.0346763 0.0365726 0.0208073)
(0.0541881 0.0444259 0.0358532)
(0.0673432 0.0527066 0.0484186)
(0.0713858 0.0601236 0.0558222)
(0.0651296 0.0657882 0.0563746)
(0.0496003 0.0691488 0.0500972)
(0.0278547 0.0697689 0.0386409)
(0.00400493 0.0673454 0.0245035)
(-0.0179433 0.0619916 0.0101651)
(-0.034873 0.0544336 -0.00239572)
(-0.0448516 0.0458831 -0.0118015)
(-0.0471097 0.037712 -0.0172066)
(-0.0414259 0.0310831 -0.0182165)
(-0.0258308 0.0293538 -0.0228063)
(-0.0102454 0.0278517 -0.0191622)
(0.0076559 0.0301831 -0.0114462)
(0.0259864 0.0360145 -0.000172363)
(0.0417998 0.0444566 0.0130991)
(0.0521387 0.0541026 0.0259153)
(0.0547887 0.0633003 0.0355726)
(0.0490149 0.0705529 0.0400682)
(0.0359739 0.0747641 0.0388375)
(0.0183771 0.0753421 0.0327535)
(-0.00045398 0.0722601 0.0234677)
(-0.0175138 0.066082 0.012697)
(-0.0305921 0.0578508 0.00186798)
(-0.0383391 0.0488213 -0.00788297)
(-0.0401542 0.0402182 -0.0155949)
(-0.0356561 0.0330405 -0.0203727)
(-0.0239767 0.0114732 -0.0312773)
(-0.0162024 0.0044091 -0.0368494)
(-0.00668184 0.00384055 -0.0358307)
(0.00359038 0.0102061 -0.027461)
(0.0127972 0.0226861 -0.0129243)
(0.0192042 0.0392433 0.00491943)
(0.0215446 0.0569944 0.0223552)
(0.0193822 0.0728735 0.0360375)
(0.0132877 0.0842931 0.0439801)
(0.00463453 0.0896216 0.0457967)
(-0.00493472 0.0883779 0.042199)
(-0.0139889 0.0811287 0.0342742)
(-0.0214834 0.0691976 0.0230758)
(-0.0267017 0.0543167 0.00963137)
(-0.0291111 0.0384056 -0.00481154)
(-0.0278195 0.0235322 -0.018397)
(-0.0181596 0.00548185 -0.0287966)
(-0.0130401 -0.000433996 -0.0395549)
(-0.00683291 -0.000910877 -0.0438329)
(-0.000175341 0.00457598 -0.0403532)
(0.0057871 0.015559 -0.0295474)
(0.00999277 0.0304521 -0.0134385)
(0.0116181 0.0467173 0.00488431)
(0.0103001 0.0613581 0.0221348)
(0.00633476 0.0716859 0.0356703)
(0.000612617 0.0760393 0.0439248)
(-0.00575371 0.0741219 0.0463303)
(-0.0117966 0.0668059 0.0429467)
(-0.0168174 0.0556246 0.0342544)
(-0.0203274 0.0422816 0.0211368)
(-0.021914 0.02843 0.00503925)
(-0.0208185 0.0157248 -0.0117854)
(-0.0138696 -0.00479222 -0.0261781)
(-0.0101132 -0.00886986 -0.0409652)
(-0.00577865 -0.00895617 -0.04967)
(-0.0013822 -0.00447733 -0.0505083)
(0.00235368 0.00425957 -0.0432875)
(0.00489537 0.0159446 -0.0293918)
(0.00587331 0.0284119 -0.0113948)
(0.00511006 0.0391437 0.0075995)
(0.00271245 0.0460233 0.0246609)
(-0.000906042 0.0480019 0.0375237)
(-0.00515979 0.0453032 0.0447396)
(-0.00944164 0.0390412 0.0455782)
(-0.0131819 0.0305732 0.0399344)
(-0.0158777 0.021058 0.0283534)
(-0.0170678 0.0114146 0.0121508)
(-0.016015 0.00259001 -0.00635131)
(-0.0118593 -0.017418 -0.0237893)
(-0.00787106 -0.0192552 -0.0408367)
(-0.00363954 -0.0186465 -0.0524978)
(0.000276986 -0.0150652 -0.0566183)
(0.00331154 -0.00868521 -0.052499)
(0.00520726 -0.000509929 -0.0409851)
(0.00587428 0.00777095 -0.0241731)
(0.00527189 0.0142456 -0.00490875)
(0.00338946 0.0174606 0.0138128)
(0.000326391 0.0169939 0.0293482)
(-0.00362962 0.0135249 0.0397137)
(-0.00795472 0.00833248 0.0436674)
(-0.0119187 0.00256735 0.0406962)
(-0.0147626 -0.00311856 0.0310421)
(-0.0158529 -0.00845189 0.0158097)
(-0.0144593 -0.0131452 -0.00281968)
(-0.0124041 -0.0307086 -0.0218859)
(-0.00669368 -0.0303339 -0.0391623)
(-0.000869396 -0.0288618 -0.0519233)
(0.00432658 -0.0259011 -0.0578793)
(0.00821784 -0.0215648 -0.0560071)
(0.0105483 -0.0165867 -0.0467055)
(0.0112943 -0.0121751 -0.0316326)
(0.0104456 -0.00961253 -0.0133227)
(0.00793385 -0.00968303 0.00531848)
(0.00375888 -0.0122399 0.02153)
(-0.00177344 -0.0162723 0.0331068)
(-0.00789272 -0.0204709 0.0386057)
(-0.0134478 -0.0239278 0.037362)
(-0.0172554 -0.026397 0.0294697)
(-0.0184631 -0.0280661 0.0158546)
(-0.0163685 -0.0291187 -0.00153214)
(-0.0152889 -0.0427923 -0.0207318)
(-0.00679876 -0.0405876 -0.0362248)
(0.00189238 -0.0382464 -0.0480702)
(0.00974406 -0.0355399 -0.0541337)
(0.0157502 -0.0326025 -0.053313)
(0.019409 -0.0299917 -0.0457275)
(0.020559 -0.0285354 -0.0326745)
(0.0191322 -0.0289761 -0.0163583)
(0.0150656 -0.0315143 0.000545889)
(0.00846657 -0.0355501 0.0154176)
(-6.12851e-05 -0.0398795 0.0261616)
(-0.00924642 -0.0432854 0.0314555)
(-0.017346 -0.0451076 0.0307377)
(-0.0226838 -0.0453773 0.024124)
(-0.024186 -0.044528 0.0124334)
(-0.0211985 -0.0429525 -0.00263328)
(-0.0199471 -0.0517368 -0.0205626)
(-0.00816671 -0.0483166 -0.0325075)
(0.00408537 -0.0452435 -0.04151)
(0.0154237 -0.0424248 -0.0458804)
(0.0243668 -0.0400788 -0.044719)
(0.0299804 -0.0387143 -0.0380945)
(0.0318 -0.0389407 -0.0270779)
(0.029618 -0.0411276 -0.0135604)
(0.0234196 -0.0450567 0.000140603)
(0.0135867 -0.0498368 0.0118027)
(0.00123661 -0.0542145 0.0197685)
(-0.0116898 -0.0571372 0.0231384)
(-0.0228013 -0.0581516 0.0216877)
(-0.029956 -0.0574233 0.015702)
(-0.0318855 -0.0554164 0.0059612)
(-0.0279898 -0.0524987 -0.00605844)
(-0.0256319 -0.0559335 -0.0215007)
(-0.0105554 -0.0520225 -0.0285864)
(0.00538848 -0.0484559 -0.0331656)
(0.0204961 -0.0452259 -0.0342233)
(0.0327505 -0.042678 -0.0313297)
(0.0406712 -0.0413983 -0.0247604)
(0.0433658 -0.041958 -0.0155454)
(0.0404112 -0.0445547 -0.0053224)
(0.0318592 -0.0487542 0.004052)
(0.0184824 -0.0535472 0.0109853)
(0.0020538 -0.0577574 0.014548)
(-0.0147445 -0.06053 0.014519)
(-0.0289077 -0.0615608 0.0111991)
(-0.0379082 -0.0609964 0.00514496)
(-0.0403442 -0.059162 -0.00282183)
(-0.0356575 -0.0562236 -0.0114528)
(-0.0315477 -0.054485 -0.0234776)
(-0.0135646 -0.05082 -0.0250246)
(0.0057373 -0.0470452 -0.0241998)
(0.0244236 -0.0431961 -0.0207743)
(0.0399594 -0.0397709 -0.0149822)
(0.0502769 -0.0375372 -0.00754055)
(0.0539757 -0.0371887 0.000344452)
(0.0503468 -0.0389508 0.00718609)
(0.0395126 -0.0423796 0.0116264)
(0.0227097 -0.0465257 0.0128851)
(0.00242776 -0.0503953 0.0109721)
(-0.0179314 -0.0533362 0.0065214)
(-0.0348387 -0.0551108 0.000456891)
(-0.0454979 -0.0557244 -0.0062851)
(-0.0484593 -0.055237 -0.0128183)
(-0.0431706 -0.0534859 -0.0181297)
(-0.0369201 -0.047481 -0.0262056)
(-0.0167151 -0.0447418 -0.0223147)
(0.00525034 -0.0410446 -0.0159066)
(0.0269344 -0.036454 -0.00750319)
(0.0453617 -0.0316318 0.00192771)
(0.0579054 -0.0275922 0.0110502)
(0.0626291 -0.0252807 0.0182792)
(0.0584927 -0.0251318 0.0221318)
(0.0456831 -0.0268871 0.0217187)
(0.0259234 -0.0298308 0.0171359)
(0.00240621 -0.0332372 0.00942053)
(-0.0208387 -0.0366361 0.000132851)
(-0.0399052 -0.039768 -0.00912896)
(-0.0518641 -0.0423993 -0.0170416)
(-0.0552897 -0.0442254 -0.0226305)
(-0.0496116 -0.0446783 -0.0251082)
(-0.041038 -0.0360604 -0.0292158)
(-0.0195223 -0.0348168 -0.0208357)
(0.00413058 -0.0314558 -0.00956959)
(0.0278995 -0.0260738 0.00349281)
(0.0485008 -0.0194949 0.0167172)
(0.0628384 -0.0130019 0.0280891)
(0.0684674 -0.00788234 0.035492)
(0.0640181 -0.00493668 0.0372629)
(0.0497365 -0.00428111 0.0328571)
(0.0278006 -0.00558976 0.0231638)
(0.00200937 -0.00846669 0.0101946)
(-0.0231456 -0.0125845 -0.00362215)
(-0.0435567 -0.0175754 -0.0160661)
(-0.0562992 -0.02288 -0.0254478)
(-0.0600455 -0.0277561 -0.0307091)
(-0.0541958 -0.0311898 -0.0312509)
(-0.0433089 -0.022206 -0.0319577)
(-0.0215671 -0.0228684 -0.0208145)
(0.00258299 -0.0200614 -0.0062588)
(0.0272463 -0.0139222 0.0103406)
(0.0489974 -0.00539565 0.0268674)
(0.0644287 0.00396896 0.0407164)
(0.07069 0.0124989 0.0491716)
(0.0661359 0.0189045 0.0502244)
(0.0510666 0.0225184 0.0434395)
(0.0280209 0.0231411 0.0302627)
(0.00121994 0.0208052 0.0134556)
(-0.0246079 0.0157477 -0.00386974)
(-0.0453574 0.0085315 -0.0190008)
(-0.0582466 0.000110841 -0.029966)
(-0.0621012 -0.00828046 -0.0356247)
(-0.0563021 -0.0151708 -0.0354793)
(-0.0433432 -0.00831633 -0.0339329)
(-0.0225596 -0.0110759 -0.022282)
(0.000756964 -0.00899351 -0.006585)
(0.02492 -0.00222204 0.0117937)
(0.0465528 0.0082246 0.0305701)
(0.0621391 0.0205979 0.0467255)
(0.0686222 0.0328393 0.0570152)
(0.0641879 0.0430841 0.058966)
(0.0491728 0.0499709 0.0519769)
(0.0263188 0.0526693 0.0376622)
(7.87945e-06 0.0508367 0.0191514)
(-0.0250701 0.0446828 -6.55813e-05)
(-0.045024 0.0350466 -0.0170006)
(-0.0573422 0.0233336 -0.0295098)
(-0.0610522 0.0112947 -0.0363609)
(-0.0555426 0.000850152 -0.0370039)
(-0.0410422 0.00329663 -0.0348159)
(-0.0223871 -0.00145628 -0.0250499)
(-0.00123851 -0.000199268 -0.0105598)
(0.0209539 0.00696168 0.00756783)
(0.0410735 0.0190209 0.0271582)
(0.0557614 0.0341214 0.045067)
(0.0619908 0.0498744 0.057721)
(0.0579238 0.0638283 0.0621876)
(0.0438886 0.0738837 0.0574151)
(0.0226134 0.0785555 0.044709)
(-0.00165267 0.0771527 0.02705)
(-0.0245264 0.0699141 0.00788401)
(-0.0425345 0.0580003 -0.00978169)
(-0.0535565 0.0432733 -0.0237348)
(-0.0568499 0.0279579 -0.032584)
(-0.0518612 0.0143601 -0.0355105)
(-0.036637 0.0107965 -0.0345796)
(-0.0211101 0.00448781 -0.028766)
(-0.00331002 0.00492144 -0.0175762)
(0.01557 0.0121261 -0.00163004)
(0.0328458 0.0251705 0.0172508)
(0.0455793 0.0421428 0.0360856)
(0.0510718 0.0604042 0.0512812)
(0.0476337 0.0770346 0.0595695)
(0.0355208 0.0893504 0.0592517)
(0.0171797 0.0953835 0.0508212)
(-0.00358572 0.094243 0.0365136)
(-0.0229468 0.0862645 0.0192689)
(-0.0380084 0.0728787 0.00187747)
(-0.0471299 0.0562471 -0.0134001)
(-0.0498131 0.0388502 -0.0248998)
(-0.0455775 0.0231842 -0.031346)
(-0.030713 0.0134067 -0.0334973)
(-0.0189599 0.00623874 -0.0329848)
(-0.00527233 0.00603498 -0.0265586)
(0.00933334 0.0130264 -0.0142438)
(0.0226729 0.0265006 0.00264314)
(0.0324343 0.0447164 0.0215184)
(0.0365739 0.0649291 0.0389272)
(0.0338725 0.0837606 0.0513787)
(0.0245985 0.0978464 0.0565245)
(0.0106619 0.104677 0.0538854)
(-0.00504251 0.103259 0.0446618)
(-0.0196608 0.0942399 0.0309538)
(-0.0310855 0.0795104 0.0150536)
(-0.038137 0.0615718 -0.000898761)
(-0.0404022 0.0430381 -0.0150104)
(-0.037327 0.0263983 -0.0254924)
(-0.0227533 -0.00662429 -0.0321582)
(-0.020222 -0.0196009 -0.0407779)
(-0.0163346 -0.0230507 -0.04108)
(-0.0113402 -0.0160306 -0.032037)
(-0.00612323 0.000558866 -0.0149164)
(-0.00159533 0.0240835 0.00702797)
(0.00139869 0.0505885 0.029457)
(0.0022776 0.0756368 0.0481821)
(0.000907554 0.0951859 0.0602782)
(-0.0023214 0.106357 0.0646072)
(-0.00668551 0.107857 0.0615732)
(-0.0114186 0.0999225 0.0524091)
(-0.0159026 0.0840206 0.0385556)
(-0.0196943 0.0624481 0.0214424)
(-0.0223804 0.0380975 0.00271214)
(-0.0229102 0.0144164 -0.0153188)
(-0.0119837 -0.0105112 -0.0229221)
(-0.0119318 -0.0222286 -0.0367218)
(-0.0111317 -0.0256113 -0.0421103)
(-0.00955233 -0.0198189 -0.0377874)
(-0.00738716 -0.00533825 -0.0243746)
(-0.00487755 0.0159125 -0.00425552)
(-0.00244987 0.0407178 0.0189705)
(-0.000664939 0.0649587 0.0413216)
(1.14465e-05 0.0844165 0.0593063)
(-0.000532345 0.0957681 0.0705582)
(-0.00206061 0.0973751 0.0740054)
(-0.0041678 0.0894817 0.0696107)
(-0.0064704 0.0738273 0.0580952)
(-0.00870364 0.0530327 0.0407935)
(-0.0105714 0.0300925 0.019738)
(-0.0112892 0.00820828 -0.0021938)
(-0.00288204 -0.0187714 -0.0160601)
(-0.00404868 -0.0286365 -0.0339753)
(-0.00488937 -0.0316908 -0.0437347)
(-0.0052929 -0.0270933 -0.0436213)
(-0.00511712 -0.0151682 -0.0337164)
(-0.00417379 0.00249101 -0.0158109)
(-0.00247727 0.0231362 0.00702804)
(-0.000350483 0.0432478 0.0310908)
(0.00167866 0.059254 0.0527064)
(0.0031173 0.068412 0.0688407)
(0.00368644 0.0694757 0.0774433)
(0.00336231 0.0628284 0.0775238)
(0.00231947 0.0500086 0.0690875)
(0.000805772 0.0331284 0.053108)
(-0.000803844 0.0144862 0.0315631)
(-0.00173506 -0.00349359 0.00746996)
(0.00307431 -0.0296415 -0.0123117)
(0.00222383 -0.0371721 -0.0324763)
(0.00143998 -0.0395349 -0.0451461)
(0.000772551 -0.0359873 -0.0482741)
(0.000425559 -0.0267058 -0.041485)
(0.000765352 -0.0129179 -0.0260637)
(0.00202506 0.00317731 -0.00458818)
(0.00408673 0.0187417 0.0195663)
(0.00645437 0.0309151 0.0427712)
(0.00843842 0.0375743 0.0616832)
(0.00945273 0.0378901 0.0736758)
(0.00926653 0.0323693 0.0771242)
(0.00807886 0.0223632 0.0715123)
(0.00635189 0.00949881 0.0574694)
(0.00466249 -0.00457195 0.0367798)
(0.00384784 -0.0181931 0.0123249)
(0.00503263 -0.0416249 -0.0120653)
(0.00588046 -0.0468111 -0.0323414)
(0.00675564 -0.0482781 -0.0460343)
(0.0074918 -0.0454535 -0.0509872)
(0.00811011 -0.0384326 -0.0465257)
(0.00890469 -0.0281307 -0.0335003)
(0.0101537 -0.0162335 -0.0140199)
(0.0118351 -0.00492068 0.00892423)
(0.0135149 0.00364922 0.0318964)
(0.0144905 0.00795591 0.0514957)
(0.0141587 0.00754189 0.0648515)
(0.0124027 0.00298072 0.0700372)
(0.00972077 -0.0045893 0.0663005)
(0.00696542 -0.0139516 0.0541059)
(0.00496594 -0.0239731 0.0350725)
(0.00459872 -0.0335812 0.011854)
(0.00291289 -0.0529496 -0.015348)
(0.00639332 -0.0561811 -0.0336759)
(0.0101124 -0.0567492 -0.0463579)
(0.0135442 -0.05425 -0.0514093)
(0.0163232 -0.0487717 -0.0480807)
(0.0184489 -0.0410343 -0.0369349)
(0.0200569 -0.0323446 -0.0196842)
(0.0211219 -0.0243499 0.00107178)
(0.0213001 -0.0186088 0.0221921)
(0.0200436 -0.0161289 0.040444)
(0.0169969 -0.0170848 0.0530331)
(0.0124242 -0.0209116 0.0580873)
(0.0073072 -0.0266913 0.0549263)
(0.0029609 -0.0335242 0.0440521)
(0.000471644 -0.0406137 0.0270148)
(0.000718884 -0.0471931 0.00624768)
(-0.00272394 -0.0617431 -0.0217752)
(0.00381013 -0.0636726 -0.0364047)
(0.0109865 -0.0635198 -0.0461689)
(0.017859 -0.0609772 -0.0495226)
(0.0235486 -0.0561781 -0.0458999)
(0.0275978 -0.0497884 -0.035785)
(0.029848 -0.0429228 -0.020635)
(0.0301814 -0.0368927 -0.00270888)
(0.0283553 -0.032836 0.0152153)
(0.0241068 -0.0314103 0.0302797)
(0.0175377 -0.0326321 0.0400832)
(0.00948393 -0.0360094 0.0431574)
(0.00148943 -0.0408082 0.0391794)
(-0.00470307 -0.0463301 0.0288814)
(-0.00777153 -0.0518895 0.0138416)
(-0.00686251 -0.0567823 -0.00368334)
(-0.0109231 -0.0664501 -0.0305279)
(-0.00134254 -0.067846 -0.0401875)
(0.00935713 -0.0672661 -0.0455181)
(0.0198595 -0.0643867 -0.0455955)
(0.0287373 -0.0594188 -0.0402677)
(0.0349923 -0.053112 -0.030176)
(0.0380654 -0.0465906 -0.0167167)
(0.0376686 -0.0410532 -0.00191323)
(0.0336499 -0.0374479 0.011844)
(0.0261157 -0.0362548 0.0222536)
(0.0157653 -0.0374585 0.0275925)
(0.00410949 -0.0406761 0.027102)
(-0.0067675 -0.0453249 0.0210594)
(-0.0147666 -0.0507361 0.0105768)
(-0.0184025 -0.0561712 -0.00266827)
(-0.0168613 -0.0608055 -0.0165699)
(-0.0205169 -0.0661956 -0.0403733)
(-0.00821564 -0.0678261 -0.0444185)
(0.0056256 -0.0671409 -0.044423)
(0.0194733 -0.0637023 -0.0401369)
(0.0313957 -0.0578198 -0.0319681)
(0.0398496 -0.0504433 -0.0209258)
(0.0438228 -0.0428904 -0.00856088)
(0.04278 -0.0364668 0.00318622)
(0.0366441 -0.0321558 0.0123038)
(0.0259426 -0.0304471 0.0171597)
(0.0120248 -0.0314035 0.0169278)
(-0.00293606 -0.0347613 0.0117851)
(-0.0163519 -0.0400102 0.0027746)
(-0.0258764 -0.0463927 -0.0085187)
(-0.0299996 -0.0529958 -0.0202933)
(-0.0278759 -0.0586972 -0.0305821)
(-0.0302375 -0.0609998 -0.0497928)
(-0.0157933 -0.0635633 -0.0483341)
(0.000469031 -0.0630529 -0.0429133)
(0.0170047 -0.058878 -0.033872)
(0.0314808 -0.0514693 -0.0222097)
(0.041872 -0.0420551 -0.00943987)
(0.046712 -0.0322935 0.00253296)
(0.0451764 -0.0238025 0.0116764)
(0.0372269 -0.017797 0.0162786)
(0.0238077 -0.0149636 0.0154182)
(0.00690555 -0.0155303 0.00927533)
(-0.0107022 -0.0193388 -0.000928159)
(-0.0260568 -0.0258557 -0.0133238)
(-0.0366908 -0.0341562 -0.0258298)
(-0.04114 -0.0430265 -0.0365331)
(-0.0384887 -0.0509209 -0.043635)
(-0.0387914 -0.0517889 -0.0572253)
(-0.0230145 -0.0558634 -0.0511992)
(-0.0053048 -0.0557361 -0.0411119)
(0.0129723 -0.0506855 -0.027707)
(0.0292314 -0.0412917 -0.012489)
(0.0410875 -0.0290938 0.00247871)
(0.0466603 -0.0161909 0.0147975)
(0.0448295 -0.00467813 0.0221757)
(0.035565 0.00379625 0.0230552)
(0.0201707 0.00819693 0.017156)
(0.00118439 0.00806592 0.00563582)
(-0.0181577 0.00348906 -0.0092791)
(-0.0346651 -0.00489577 -0.0249304)
(-0.0458648 -0.0158876 -0.0388118)
(-0.0504303 -0.0278841 -0.0489414)
(-0.0473416 -0.0388345 -0.0537026)
(-0.0449611 -0.0401822 -0.0613829)
(-0.0288797 -0.0461767 -0.0525007)
(-0.0108739 -0.0465667 -0.0392815)
(0.00797944 -0.0405947 -0.0226269)
(0.0250208 -0.0289452 -0.00437826)
(0.0376834 -0.0134862 0.0129128)
(0.043771 0.00319844 0.0262997)
(0.0418911 0.0184143 0.0330944)
(0.0319802 0.0299099 0.0316894)
(0.0156046 0.0361607 0.0222628)
(-0.00431323 0.0364346 0.00675886)
(-0.0242611 0.030791 -0.0117774)
(-0.0409894 0.0200698 -0.030073)
(-0.0521439 0.00582746 -0.0453133)
(-0.056593 -0.00985999 -0.055498)
(-0.0532237 -0.0243961 -0.0591626)
(-0.0477574 -0.0281302 -0.0615383)
(-0.0325446 -0.0362364 -0.0520634)
(-0.0155138 -0.0372408 -0.0377775)
(0.00261073 -0.0304165 -0.019507)
(0.0192923 -0.0165169 0.00077337)
(0.031951 0.00232433 0.0201861)
(0.0382537 0.0230682 0.0352953)
(0.0366105 0.0423631 0.0428991)
(0.0268743 0.0572166 0.0411655)
(0.0107059 0.0654847 0.0304092)
(-0.00880706 0.0661155 0.0130202)
(-0.0281011 0.0591877 -0.00746925)
(-0.0440455 0.0458314 -0.0274431)
(-0.0545157 0.0280497 -0.0439426)
(-0.0586185 0.00845904 -0.0549646)
(-0.055212 -0.00979214 -0.0590842)
(-0.0466109 -0.0175583 -0.0576885)
(-0.0334517 -0.0276883 -0.0500522)
(-0.0186223 -0.0293792 -0.0369297)
(-0.00255292 -0.0219328 -0.0189078)
(0.0125422 -0.00614761 0.00212418)
(0.024315 0.0156937 0.0231703)
(0.0305093 0.0402129 0.0404754)
(0.0294314 0.0634443 0.0503785)
(0.0207666 0.081608 0.0505923)
(0.00605598 0.0918764 0.041169)
(-0.0117028 0.0928461 0.0244335)
(-0.0291001 0.0846398 0.00395519)
(-0.0432788 0.068728 -0.0166314)
(-0.0524475 0.0476063 -0.0343544)
(-0.0559746 0.0244282 -0.0471394)
(-0.0528257 0.0028264 -0.0534016)
(-0.0414854 -0.0100857 -0.0505814)
(-0.0313905 -0.0218516 -0.0469383)
(-0.0197991 -0.0242497 -0.0369867)
(-0.00694929 -0.0165691 -0.0209696)
(0.00539638 0.000366269 -0.000517002)
(0.0153519 0.0242171 0.0215166)
(0.0210142 0.0513697 0.0413369)
(0.0207607 0.0774279 0.0549955)
(0.0140741 0.0980317 0.0595943)
(0.00211358 0.109808 0.0543741)
(-0.0125315 0.111075 0.0408904)
(-0.0268452 0.102015 0.0221976)
(-0.0383854 0.0843867 0.00173054)
(-0.0457691 0.0610447 -0.017468)
(-0.0486247 0.0354748 -0.0330348)
(-0.0460997 0.011565 -0.0429973)
(-0.0330091 -0.00633609 -0.0415457)
(-0.0265823 -0.0189194 -0.0433421)
(-0.0187804 -0.0218382 -0.0380068)
(-0.00991829 -0.0144136 -0.0253804)
(-0.0013273 0.00272114 -0.00663583)
(0.00569459 0.0276097 0.0157822)
(0.0099109 0.0568056 0.0382982)
(0.0102688 0.0856872 0.056758)
(0.00636093 0.109141 0.0675077)
(-0.00118053 0.122812 0.0685766)
(-0.0107537 0.124382 0.0602439)
(-0.0203998 0.11409 0.0446502)
(-0.0284892 0.0943124 0.0248695)
(-0.0340589 0.0686382 0.00406994)
(-0.0367216 0.0410736 -0.0149397)
(-0.0355544 0.0156696 -0.0296357)
(-0.0187503 -0.0248067 -0.0301465)
(-0.0224321 -0.0429681 -0.040723)
(-0.0253164 -0.049331 -0.0420282)
(-0.0267814 -0.0425784 -0.032976)
(-0.0266014 -0.0236943 -0.0148922)
(-0.0247412 0.00424286 0.00882565)
(-0.0215428 0.0366296 0.0336511)
(-0.017667 0.0682189 0.0550678)
(-0.0138774 0.0940581 0.0696489)
(-0.010788 0.110366 0.075714)
(-0.00875575 0.115092 0.0733383)
(-0.00791367 0.107958 0.0637783)
(-0.00828709 0.0902372 0.0487383)
(-0.00985348 0.0643944 0.0298826)
(-0.0124072 0.0339136 0.00901631)
(-0.0148491 0.00325227 -0.0114416)
(-0.00319545 -0.0249614 -0.0151704)
(-0.00917216 -0.0416823 -0.0309713)
(-0.0149495 -0.0479286 -0.0372012)
(-0.0196224 -0.0427199 -0.0326546)
(-0.0223232 -0.0266067 -0.0181107)
(-0.0223991 -0.00169518 0.00387681)
(-0.0197655 0.0284769 0.0295557)
(-0.0150064 0.0592779 0.0547032)
(-0.00919009 0.0856547 0.0754223)
(-0.00345344 0.103135 0.0888289)
(0.00132221 0.108854 0.0934062)
(0.00464659 0.102143 0.08893)
(0.00630378 0.0844534 0.0761722)
(0.00616651 0.0588249 0.0566716)
(0.00430406 0.0292123 0.0327576)
(0.0015223 -3.48118e-06 0.00761535)
(0.0106337 -0.0288633 -0.0043727)
(0.00356371 -0.0438623 -0.0244538)
(-0.00375113 -0.0499103 -0.0350768)
(-0.0102056 -0.0460761 -0.0346511)
(-0.0146851 -0.0327376 -0.0234862)
(-0.0162201 -0.0116392 -0.00359455)
(-0.0143726 0.0142241 0.0217974)
(-0.00945147 0.040889 0.0488041)
(-0.00246294 0.0639889 0.073436)
(0.00520453 0.0795929 0.0921714)
(0.0121918 0.0850963 0.10242)
(0.0174934 0.0798255 0.102788)
(0.0205474 0.0649779 0.0931524)
(0.0211247 0.0431449 0.0746506)
(0.0193585 0.0176576 0.0496689)
(0.0161098 -0.00789126 0.0216432)
(0.0206214 -0.0351382 0.00103642)
(0.0139123 -0.047825 -0.021402)
(0.00664446 -0.053255 -0.0349966)
(2.21267e-05 -0.0506385 -0.037827)
(-0.00486355 -0.040181 -0.0297846)
(-0.00696283 -0.0232034 -0.0124113)
(-0.00563933 -0.00209313 0.0115503)
(-0.000963196 0.0199055 0.0386018)
(0.00621774 0.0391572 0.0648903)
(0.0144652 0.0523332 0.0866569)
(0.0221553 0.0571908 0.100703)
(0.0279578 0.0531132 0.104846)
(0.0311497 0.0411036 0.0982592)
(0.0315826 0.0233221 0.0816633)
(0.0295628 0.00247206 0.0572757)
(0.0261708 -0.0186724 0.0284584)
(0.025315 -0.0429851 0.000410755)
(0.0202252 -0.0532888 -0.0221515)
(0.0145374 -0.0578522 -0.0368114)
(0.00932593 -0.0560891 -0.0415315)
(0.00543211 -0.0480925 -0.0359198)
(0.00376759 -0.0348228 -0.0211095)
(0.00498644 -0.0181315 0.000631856)
(0.00915624 -0.000605498 0.0262371)
(0.0155995 0.0148202 0.0521426)
(0.0229775 0.0254379 0.0746285)
(0.0296648 0.0294095 0.0902677)
(0.0343162 0.0262249 0.0964819)
(0.0363213 0.0167138 0.0920669)
(0.0357951 0.00263738 0.0774938)
(0.0332862 -0.0138544 0.0547965)
(0.0300788 -0.0306474 0.0271038)
(0.0242501 -0.051169 -0.00615682)
(0.0215903 -0.0594656 -0.0267284)
(0.0186525 -0.0631414 -0.0403874)
(0.0161061 -0.0617985 -0.0452791)
(0.0143517 -0.0554868 -0.0409372)
(0.0139669 -0.0449406 -0.02821)
(0.0154613 -0.0316407 -0.00895972)
(0.0189458 -0.0176731 0.014175)
(0.0239175 -0.00539582 0.0379992)
(0.0292627 0.00303419 0.0590392)
(0.0335883 0.00615578 0.0739717)