/*--------------------------------*- C++ -*----------------------------------*\
| =========                 |                                                 |
| \\      /  F ield         | OpenFOAM: The Open Source CFD Toolbox           |
|  \\    /   O peration     | Version:  3.0.0                                 |
|   \\  /    A nd           | Web:      www.OpenFOAM.org                      |
|    \\/     M anipulation  |                                                 |
\*---------------------------------------------------------------------------*/
FoamFile
{
    version     2.0;
    format      ascii;
    class       surfaceScalarField;
    location    "2.5";
    object      phi;
}
// * * * * * * * * * * * * * * * * * * * * * * * * * * * * * * * * * * * * * //

dimensions      [0 3 -1 0 0 0 0];

internalField   nonuniform List<scalar> 
11520
(
-0.000330761
-9.185e-05
0.000316441
-0.000282781
3.11064e-05
0.000338507
-0.000204606
0.000128911
0.000314981
-0.000121723
0.000209173
0.000220985
-6.3396e-05
0.0002797
5.85724e-05
-4.55897e-05
0.000342693
-0.000137807
-6.39732e-05
0.000382009
-0.000315835
-9.99472e-05
0.000364593
-0.00043417
-0.000133508
0.00026517
-0.000477717
-0.000154638
9.26043e-05
-0.000451824
-0.000168673
-0.000105155
-0.000372618
-0.000189584
-0.000265879
-0.000260493
-0.000226293
-0.000349161
-0.000134703
-0.000274419
-0.000350939
-9.02004e-06
-0.0003191
-0.000293656
0.000107262
-0.000211252
0.000200734
-0.000492418
-0.000101997
0.000268218
-0.000433275
2.37247e-05
0.000245537
-0.000336867
0.000125502
0.000189765
-0.000229176
0.000211965
8.32328e-05
-0.000136074
0.00028799
-6.69019e-05
-7.31762e-05
0.000350233
-0.000230754
-4.20426e-05
0.000377401
-0.000367379
-3.41766e-05
0.000334967
-0.000443941
-4.01661e-05
0.000202436
-0.000447544
-5.96161e-05
1.48036e-06
-0.000386093
-0.000101713
-0.000205602
-0.000282368
-0.000173229
-0.000353398
-0.000162876
-0.00026777
-0.000412032
-4.66906e-05
-0.00036688
-0.00039037
5.59315e-05
-0.000448843
-0.00031739
0.000140089
-0.000227239
0.000196034
-0.000626645
-0.000108346
0.000185754
-0.000552834
-2.13503e-07
0.000123984
-0.000433475
9.03772e-05
4.41288e-05
-0.000293249
0.000170198
-6.40417e-05
-0.00015443
0.000241581
-0.000191396
-3.39051e-05
0.000298503
-0.000313973
5.68384e-05
0.00031967
-0.000402007
0.000109862
0.000271782
-0.000430932
0.000119753
0.00013546
-0.000391624
8.10954e-05
-6.26575e-05
-0.000296499
-9.10054e-06
-0.000253882
-0.000174982
-0.000142366
-0.000375979
-5.6312e-05
-0.000296395
-0.000410788
4.26409e-05
-0.000443239
-0.000376177
0.000115257
-0.000558194
-0.000301601
0.000160936
-0.000215933
0.000177833
-0.000711123
-0.000115605
8.53571e-05
-0.000623057
-3.9467e-05
-4.22741e-06
-0.000481632
2.861e-05
-9.72925e-05
-0.000309347
9.23052e-05
-0.000198014
-0.00012638
0.000151681
-0.00029669
4.8509e-05
0.000200809
-0.00037615
0.000194584
0.000222443
-0.00041658
0.000287678
0.000187984
-0.000400388
0.00030649
7.67101e-05
-0.000321784
0.000241105
-8.91925e-05
-0.00019837
9.91395e-05
-0.000244663
-6.58345e-05
-9.324e-05
-0.000335435
4.62193e-05
-0.000300105
-0.000352363
0.000124084
-0.000486279
-0.000316532
0.000164606
-0.000627268
-0.000254392
0.000170412
-0.000184497
0.00015051
-0.000734241
-0.000120428
-8.62906e-06
-0.000636397
-8.43492e-05
-0.000112298
-0.000479257
-4.47787e-05
-0.000207838
-0.000284055
-2.24539e-06
-0.000293045
-6.99014e-05
4.1659e-05
-0.000360265
0.000143258
8.19764e-05
-0.000398895
0.00033015
0.000106902
-0.000397722
0.000456061
9.57738e-05
-0.000345131
0.000484227
2.91407e-05
-0.000237597
0.000397485
-8.12935e-05
-9.67441e-05
0.000212829
-0.000185619
3.79973e-05
-2.68288e-05
-0.00024245
0.000138146
-0.000273684
-0.000248258
0.00019364
-0.000488315
-0.000222414
0.00020319
-0.000646212
-0.000184019
0.000172421
-0.000139406
0.000120434
-0.000697363
-0.000117025
-7.24468e-05
-0.000595352
-0.000121576
-0.000178567
-0.000431651
-0.00011186
-0.000265406
-0.000226243
-9.17129e-05
-0.000328627
2.09935e-06
-6.39662e-05
-0.000363698
0.000232912
-3.25052e-05
-0.000366199
0.000440508
-4.88998e-06
-0.000332221
0.000587392
7.01669e-06
-0.000255952
0.000626779
-9.40169e-06
-0.000135791
0.000531003
-5.05783e-05
6.13874e-06
0.00032088
-9.25884e-05
0.000131466
5.17944e-05
-0.00011334
0.000214983
-0.000219202
-0.00011318
0.000248672
-0.00044951
-0.000105091
0.000231668
-0.000614467
-9.78073e-05
0.000171664
-8.55723e-05
9.44249e-05
-0.00060957
-9.94754e-05
-9.30792e-05
-0.000509259
-0.00014146
-0.000190776
-0.000347861
-0.000159881
-0.00025998
-0.000143965
-0.000160959
-0.00029753
8.3783e-05
-0.000148309
-0.000303083
0.000314677
-0.000125186
-0.000277666
0.000523755
-9.66218e-05
-0.000222909
0.000675429
-6.70923e-05
-0.000137857
0.00072247
-3.78524e-05
-2.34745e-05
0.00062842
-9.93992e-06
0.000102837
0.000412395
1.53703e-05
0.000207815
0.000134044
3.29157e-05
0.000271742
-0.000143995
3.69376e-05
0.000286419
-0.000376672
2.37859e-05
0.000250051
-0.000539198
-2.94451e-06
0.000171489
-2.6817e-05
7.86224e-05
-0.000485448
-6.9197e-05
-6.98763e-05
-0.000391364
-0.000141656
-0.000149916
-0.000239409
-0.000184078
-0.000195819
-4.59828e-05
-0.000203604
-0.000208236
0.000170808
-0.000204117
-0.000191504
0.000389922
-0.000188652
-0.000151137
0.000586322
-0.000160622
-9.19292e-05
0.00072751
-0.000119082
-1.53698e-05
0.000770547
-5.53553e-05
7.85283e-05
0.000682724
3.24879e-05
0.000176517
0.00047685
0.000121247
0.000256263
0.000208771
0.000177065
0.000301545
-5.88822e-05
0.000185448
0.000302713
-0.000280615
0.000151713
0.000256441
-0.000431846
9.21328e-05
0.00017221
3.24501e-05
7.6182e-05
-0.000341275
-3.34027e-05
-1.40737e-05
-0.000256957
-0.000126169
-6.83461e-05
-0.000119898
-0.000186027
-8.86252e-05
5.70422e-05
-0.000219707
-8.03052e-05
0.000256378
-0.000230486
-5.2471e-05
0.000456226
-0.000221628
-1.38568e-05
0.000630225
-0.000194879
3.03085e-05
0.000747572
-0.000144987
8.08772e-05
0.000774693
-5.63581e-05
0.000141268
0.000689489
7.49772e-05
0.000206884
0.000503623
0.000212523
0.00026333
0.000262855
0.000300993
0.000295459
2.24815e-05
0.000314748
0.00029125
-0.000174504
0.000263836
0.000246298
-0.000306029
0.000176445
0.000170598
8.48305e-05
8.639e-05
-0.000194336
-1.94592e-06
5.67125e-05
-0.000122612
-0.000102029
3.50962e-05
-3.15021e-06
-0.000170691
4.04135e-05
0.000152977
-0.000211314
6.29758e-05
0.000330753
-0.000228889
8.87765e-05
0.000505743
-0.000224875
0.000107802
0.000649322
-0.000199014
0.000117547
0.000732602
-0.000142399
0.000126091
0.000733012
-3.71176e-05
0.00014553
0.000644085
0.000118623
0.000179361
0.000481878
0.000282204
0.000217711
0.000281796
0.000388958
0.000244118
8.57191e-05
0.000405369
0.000243966
-7.31817e-05
0.0003427
0.000212853
-0.000176596
0.000235783
0.000160196
0.000121182
0.000103937
-6.30246e-05
1.63582e-05
0.000125772
-5.67383e-06
-7.63954e-05
0.000141472
9.29986e-05
-0.000141431
0.000171204
0.000228332
-0.000182097
0.000199955
0.00038215
-0.000200982
0.000210933
0.000526984
-0.000198701
0.000194031
0.000632384
-0.000171972
0.000153912
0.000673401
-0.000109121
0.000110568
0.000639901
5.07755e-06
8.68698e-05
0.00054209
0.000165072
9.17769e-05
0.000403709
0.000326381
0.000116203
0.000252606
0.000428272
0.0001424
0.000114129
0.000438286
0.000155014
6.37341e-06
0.000367787
0.000149845
-6.08808e-05
0.000253269
0.000134458
0.000131303
0.000121498
3.30957e-05
1.62258e-05
0.000183705
7.55069e-05
-5.35541e-05
0.000236972
0.000156132
-0.000102779
0.000287079
0.000270848
-0.000133898
0.00031412
0.000398782
-0.000147937
0.00029838
0.000508194
-0.000142947
0.000233131
0.00056849
-0.000112152
0.000134919
0.000561877
-4.35354e-05
3.84644e-05
0.000492158
6.99374e-05
-2.44438e-05
0.000385087
0.000213179
-4.40438e-05
0.000271811
0.000343222
-3.0463e-05
0.000173948
0.000412696
-9.88879e-07
0.000100043
0.000400986
3.11515e-05
5.01936e-05
0.000323723
6.13932e-05
2.22383e-05
0.00021556
9.3765e-05
0.000107646
0.000134155
7.60193e-05
-1.69544e-06
0.000230469
0.000106975
-3.51509e-05
0.00031431
0.000173514
-5.67693e-05
0.000376884
0.000270329
-6.94683e-05
0.000392685
0.000371462
-7.19861e-05
0.000340567
0.000441711
-5.8689e-05
0.000221174
0.000453556
-2.00795e-05
6.65635e-05
0.000399797
5.14995e-05
-7.47229e-05
0.000300229
0.000150822
-0.000167215
0.000191885
0.000253612
-0.000203598
0.000108698
0.000324705
-0.000195262
6.3999e-05
0.000338177
-0.000157141
5.0403e-05
0.000292852
-0.00010001
5.16457e-05
0.0002114
-2.97326e-05
5.63843e-05
0.00012407
5.16909e-05
5.04992e-05
0.000143286
5.45691e-05
-3.13697e-05
0.000270263
7.95632e-05
-1.87322e-05
0.000369834
0.000138681
-5.63271e-06
0.000431923
0.000221684
6.72062e-06
0.000425925
0.000297186
2.17342e-05
0.000332012
0.000329262
4.89697e-05
0.000161911
0.000297199
9.74624e-05
-3.65547e-05
0.000208085
0.000164218
-0.000205781
9.5349e-05
0.000230068
-0.000311853
1.89983e-06
0.000268354
-0.000351409
-4.46706e-05
0.000260833
-0.000336456
-4.36231e-05
0.000208247
-0.000280857
-1.59437e-05
0.000130309
-0.000195806
1.32484e-05
5.405e-05
-9.04596e-05
3.30972e-05
-7.99907e-07
2.81632e-05
-2.76394e-05
0.000154638
-3.02425e-05
-6.03996e-05
0.000302412
-4.39052e-06
1.80667e-07
0.000397866
5.29973e-05
4.91223e-05
0.000444399
0.000126952
8.81207e-05
0.000407432
0.000182074
0.000124247
0.000272491
0.000185929
0.000168754
6.373e-05
0.000128075
0.000224642
-0.000158765
2.81985e-05
0.000273448
-0.000334031
-7.27975e-05
0.000285593
-0.000432082
-0.000136355
0.000242845
-0.000454431
-0.000148116
0.000152225
-0.000416998
-0.000121192
4.21146e-05
-0.000336985
-8.26123e-05
-5.37748e-05
-0.000228573
-5.48221e-05
-0.000111839
-0.000102788
-4.35339e-05
-0.000126075
3.2859e-05
-0.000106522
0.000169208
-0.000165323
0.00031495
-0.000137852
0.000389852
-7.71686e-05
0.000408796
-6.11617e-06
0.000337849
4.11917e-05
0.00016798
3.97096e-05
-6.57916e-05
-1.02428e-05
-0.000295501
-8.61196e-05
-0.000456775
-0.000153517
-0.000522682
-0.00018778
-0.000503155
-0.000185181
-0.00042646
-0.000162352
-0.000319615
-0.000142431
-0.000199551
-0.000140316
-7.34708e-05
-0.000153649
5.53214e-05
0.000177928
-0.000313243
-0.000258662
0.000320657
-0.000240643
-0.000126382
0.000281514
-0.000146723
6.34199e-06
0.000212717
-5.7575e-05
0.00014405
0.000102528
-2.69004e-06
0.000280996
-4.04687e-05
2.87223e-06
0.000400954
-0.00018867
-3.39945e-05
0.000476803
-0.000307275
-9.11726e-05
0.000478215
-0.000371499
-0.0001452
0.000387979
-0.000373111
-0.000182954
0.000216389
-0.000316564
-0.000206942
5.14689e-06
-0.000215425
-0.000230833
-0.000187628
-9.1071e-05
-0.000264764
-0.000319263
3.36702e-05
-0.000305632
-0.000376992
0.000141372
-0.000338753
-0.000372662
0.000222953
-0.000326195
0.000271197
-0.000438119
-0.000292653
0.000266421
-0.000355469
-0.000155477
0.00019198
-0.000243278
-1.83426e-05
0.000102259
-0.000128325
0.000124774
-1.24433e-05
-3.84257e-05
0.000266783
-0.000142588
8.99476e-06
0.000387712
-0.000264932
1.39636e-05
0.000456093
-0.000351638
-9.03648e-06
0.000438653
-0.000381379
-4.26042e-05
0.000320116
-0.000346113
-7.97536e-05
0.000120808
-0.000253363
-0.00012783
-0.000103308
-0.000125837
-0.000196447
-0.000288115
6.22814e-06
-0.000283228
-0.000398041
0.000118868
-0.000371124
-0.000433286
0.000200121
-0.000438247
-0.000413008
0.000247558
-0.0003557
0.000261199
-0.000538239
-0.000323373
0.000178336
-0.000442713
-0.000199776
7.27567e-05
-0.000310412
-7.4249e-05
-3.2266e-05
-0.000166048
6.02791e-05
-0.000143911
-3.35317e-05
0.000196221
-0.00025335
6.82443e-05
0.00031455
-0.000342586
0.000128608
0.000384378
-0.000390655
0.000146317
0.000369983
-0.000379971
0.000126435
0.000252138
-0.000303763
7.11879e-05
5.37058e-05
-0.00017415
-2.26193e-05
-0.000160836
-2.36469e-05
-0.000151501
-0.000325627
0.000110083
-0.000296492
-0.000414773
0.000204364
-0.000429384
-0.000437958
0.000252821
-0.000524872
-0.000416236
0.000259652
-0.000361433
0.000235071
-0.000597063
-0.000349557
7.04356e-05
-0.000490784
-0.000253176
-5.71054e-05
-0.000341269
-0.000150295
-0.000170762
-0.000170433
-3.48401e-05
-0.00027373
1.51782e-06
8.63841e-05
-0.000358804
0.000155219
0.00019803
-0.000413332
0.000270945
0.000274702
-0.000422631
0.000330371
0.000282271
-0.000372102
0.000322113
0.000194201
-0.000255589
0.000242377
2.59647e-05
-9.08929e-05
9.67433e-05
-0.000159328
7.82916e-05
-9.32013e-05
-0.00029806
0.000208597
-0.000291826
-0.000372493
0.000280429
-0.000462322
-0.000396307
0.000293451
-0.000578881
-0.00038737
0.000258105
-0.000347506
0.000195871
-0.000610146
-0.000365152
-3.5944e-05
-0.000497566
-0.000303703
-0.000174351
-0.000337328
-0.000229783
-0.000288589
-0.0001488
-0.000138837
-0.000377576
5.03753e-05
-3.67079e-05
-0.000436349
0.000241628
6.53048e-05
-0.000457422
0.000401738
0.000148867
-0.000431997
0.000500543
0.000186426
-0.00034809
0.000507826
0.000147956
-0.000198635
0.00040891
3.43579e-05
-6.22136e-06
0.000217564
-0.000104011
0.000174026
-2.42843e-05
-0.00021335
0.000295284
-0.000265473
-0.000280282
0.000342618
-0.000463324
-0.000316213
0.000320948
-0.000593014
-0.000331431
0.000246172
-0.000316878
0.000149848
-0.000581072
-0.000362494
-0.000118812
-0.000467004
-0.000339358
-0.00025698
-0.000303017
-0.000296481
-0.000362696
-0.00010676
-0.000231356
-0.000432365
0.000105423
-0.000148893
-0.000463696
0.000315859
-5.73924e-05
-0.000453938
0.000501995
3.02285e-05
-0.000399718
0.000630166
9.48493e-05
-0.000292547
0.000655648
0.000111303
-0.000124619
0.000548255
6.7952e-05
7.9937e-05
0.000326093
-9.67626e-06
0.000259293
4.85233e-05
-8.64703e-05
0.000365672
-0.000220216
-0.000151135
0.000388264
-0.000433705
-0.000207035
0.000335978
-0.000568699
-0.000253486
0.000228713
-0.000271425
0.000105052
-0.000517209
-0.000338169
-0.000161773
-0.000404945
-0.000352937
-0.00028946
-0.000242795
-0.0003401
-0.00037851
-4.69687e-05
-0.000299235
-0.000425477
0.000166655
-0.000234602
-0.000430998
0.000380609
-0.000152805
-0.000396208
0.000573559
-6.38388e-05
-0.000321791
0.000713577
2.00268e-05
-0.000203053
0.000750777
8.4427e-05
-3.37982e-05
0.000643949
0.000114042
0.000163575
0.000409358
0.00010457
0.00032816
0.000116189
6.36344e-05
0.000414806
-0.000162999
-5.65403e-07
0.000415037
-0.000379791
-7.95992e-05
0.000339407
-0.000512556
-0.000159813
0.000210582
-0.000213796
7.00146e-05
-0.000426765
-0.000295387
-0.000158303
-0.000318439
-0.000343944
-0.000267235
-0.000162358
-0.000357326
-0.000334676
2.68818e-05
-0.000336983
-0.000359728
0.000233646
-0.000287038
-0.000345832
0.000439958
-0.000213523
-0.000296731
0.000624345
-0.000125089
-0.000215066
0.000756513
-2.89216e-05
-9.85894e-05
0.000791068
7.16555e-05
5.67454e-05
0.000686611
0.000164524
0.000230491
0.000456384
0.000220656
0.000370404
0.000168636
0.00021677
0.000436158
-0.000102978
0.000154293
0.000419469
-0.000310207
5.31547e-05
0.000330916
-0.000433111
-5.94593e-05
0.00019476
-0.000149476
5.1161e-05
-0.000318984
-0.000243248
-0.000113281
-0.000216576
-0.000317169
-0.00019753
-7.01799e-05
-0.000349878
-0.000242469
0.00010766
-0.000344313
-0.000250815
0.000301452
-0.000305071
-0.000228231
0.000491889
-0.000238245
-0.000179572
0.000655579
-0.000151301
-0.000107169
0.000763287
-4.716e-05
-8.59302e-06
0.000778194
7.85689e-05
0.000119449
0.000671837
0.00021736
0.000260403
0.00045796
0.000325045
0.000372818
0.000195176
0.000353547
0.000421466
-5.03993e-05
0.000294457
0.000396661
-0.000234577
0.000175299
0.000308332
-0.00033959
3.50084e-05
0.000181142
-8.73037e-05
5.06812e-05
-0.000205246
-0.000193517
-4.05137e-05
-0.000111119
-0.000280046
-9.61533e-05
2.23358e-05
-0.000322128
-0.000120791
0.000184929
-0.000323572
-0.000120358
0.000360764
-0.000290218
-0.000101912
0.000528047
-0.000227883
-6.98424e-05
0.000660477
-0.000142099
-2.40861e-05
0.00072975
-3.20613e-05
4.17191e-05
0.00071154
0.000109804
0.000132505
0.000597274
0.000273716
0.000237271
0.000406617
0.000409166
0.000324247
0.000185162
0.000456608
0.000362511
-1.65279e-05
0.000399512
0.000340601
-0.000163486
0.00026762
0.00026749
-0.000242177
0.000107404
0.000166491
-3.863e-05
6.58277e-05
-9.96487e-05
-0.000157011
4.31414e-05
-1.60991e-05
-0.000240288
1.81631e-05
0.000101893
-0.000278877
9.96003e-06
0.000246366
-0.000278466
1.03759e-05
0.000399908
-0.00024497
1.21431e-05
0.000536734
-0.000183575
1.28963e-05
0.000627526
-9.70211e-05
1.80414e-05
0.000647959
1.81696e-05
3.99051e-05
0.00058919
0.000166991
8.84511e-05
0.000463875
0.000333546
0.000157263
0.000300163
0.000467208
0.000221872
0.000131711
0.000511433
0.000256027
-1.091e-05
0.000448905
0.000248241
-0.000107958
0.000308845
0.000205668
-0.000152962
0.000139933
0.000146933
-1.50657e-05
9.07461e-05
-1.85212e-05
-0.000140613
0.000124259
5.30227e-05
-0.0002035
0.00012864
0.000154963
-0.000225416
0.000131678
0.000280044
-0.000213165
0.000123738
0.000407607
-0.000172412
9.82608e-05
0.000506927
-0.000106678
5.69135e-05
0.000547659
-1.59815e-05
1.31474e-05
0.000514249
0.00010269
-1.26457e-05
0.000415679
0.000246203
-5.086e-06
0.00028276
0.000391198
3.12233e-05
0.000149992
0.000492301
7.7212e-05
4.05254e-05
0.00050706
0.000112852
-3.53613e-05
0.000427032
0.000128911
-7.64478e-05
0.000282248
0.000129076
-8.52714e-05
0.000118972
0.00012355
-2.4836e-05
0.000120223
2.215e-05
-0.000145527
0.000196128
8.27057e-05
-0.00017299
0.000223244
0.000170384
-0.000166428
0.000230218
0.000276739
-0.000132997
0.000206161
0.00037607
-7.72948e-05
0.000146117
0.000433324
-9.25902e-07
5.8169e-05
0.000421398
9.65517e-05
-3.40441e-05
0.0003382
0.000212654
-0.000101488
0.00021102
0.000333891
-0.000127724
8.2341e-05
0.000432115
-0.000115837
-1.3592e-05
0.000473387
-8.04148e-05
-6.50811e-05
0.000436898
-3.54903e-05
-7.96335e-05
0.000330171
1.14034e-05
-7.17863e-05
0.00018615
5.85184e-05
-5.14437e-05
4.4203e-05
0.000106117
-6.82513e-05
0.000152363
1.09424e-05
-0.000166846
0.000255986
6.40054e-05
-0.000149284
0.000293065
0.000142054
-0.000106982
0.000294428
0.000232653
-4.53727e-05
0.000247702
0.000304682
3.2038e-05
0.000150651
0.000321497
0.000124378
1.97915e-05
0.000264307
0.000227818
-0.00011063
0.000147382
0.000330002
-0.000206204
1.22002e-05
0.000408081
-0.000250862
-9.58839e-05
0.000436833
-0.000248042
-0.000150851
0.000401115
-0.000209218
-0.000154499
0.000305391
-0.000145702
-0.000127481
0.000174072
-6.67244e-05
-9.21597e-05
4.05296e-05
1.98392e-05
-5.96238e-05
-6.69761e-05
0.000106806
-0.000134951
0.000186368
-5.32004e-05
-0.000195175
0.000298711
-2.4708e-06
-0.000131476
0.000329328
7.11814e-05
-5.17412e-05
0.000315506
0.000150871
3.99731e-05
0.000242397
0.000201699
0.000142404
0.000111297
0.000190162
0.000251884
-5.22385e-05
0.000108424
0.00035581
-0.000205019
-1.59432e-05
0.000429716
-0.000309378
-0.000135635
0.000446646
-0.000350955
-0.000211691
0.000393806
-0.000335349
-0.000231436
0.000280136
-0.000276273
-0.000208547
0.000133777
-0.00018826
-0.000169441
-9.05543e-06
-8.455e-05
-0.000134624
-0.000120979
2.39032e-05
-0.00010989
-0.000186665
0.000127813
-0.000207829
0.000217425
-0.000154614
0.000309301
-0.00010669
0.000321226
-3.50777e-05
0.000287446
3.83714e-05
0.000189633
8.04102e-05
3.15054e-05
6.5762e-05
-0.000154912
-4.8634e-06
-0.000317562
-0.000102408
-0.000413222
-0.000189508
-0.000427494
-0.000239135
-0.000373617
-0.000246761
-0.000277049
-0.00022791
-0.000162593
-0.000204373
-4.7323e-05
-0.000191285
5.99303e-05
-0.0001878
0.000155264
0.000232056
-0.000210985
-0.000385044
0.000308636
-0.000129261
-0.000250288
0.000224825
-4.36506e-05
-9.03763e-05
0.000125294
2.13354e-05
9.18443e-05
1.20455e-05
4.34951e-05
0.000279066
-0.000102744
1.70754e-05
0.000442908
-0.0002011
-4.44336e-05
0.000550173
-0.000265454
-0.000117288
0.000572265
-0.000284867
-0.000179525
0.00049547
-0.000255388
-0.000219043
0.000328931
-0.000178696
-0.000237921
0.000108707
-6.43769e-05
-0.000249131
-0.00011161
6.67599e-05
-0.000264176
-0.000285661
0.000187744
-0.000281784
-0.000392464
0.000276689
-0.000289325
-0.000433898
0.000323146
-0.000418217
0.000325821
-0.000304195
-0.000432556
0.000253577
-0.000215388
-0.000291213
0.000144097
-0.000110536
-0.000126495
3.35258e-05
-1.42938e-05
6.1443e-05
-7.82839e-05
4.90279e-05
0.000254591
-0.000181434
6.63852e-05
0.00042165
-0.000261031
4.23942e-05
0.000524651
-0.000302125
-4.56849e-06
0.000530995
-0.000293145
-5.41394e-05
0.00042782
-0.000228893
-9.69645e-05
0.000232913
-0.00011452
-0.00013895
-4.11936e-06
2.89747e-05
-0.000191408
-0.000221302
0.000168378
-0.000255511
-0.000376871
0.000274182
-0.000317383
-0.000462342
0.000331871
-0.000357198
-0.000487548
0.000341023
-0.000459527
0.000309863
-0.000381743
-0.000476341
0.000162601
-0.00028325
-0.000345303
2.83537e-05
-0.000159531
-0.000192006
-9.04739e-05
-3.20816e-05
-1.39783e-05
-0.000195939
7.73419e-05
0.000172845
-0.000281029
0.000151374
0.000339785
-0.000334753
0.000181616
0.000448932
-0.000345178
0.00017122
0.000462672
-0.000301254
0.000131008
0.000361779
-0.00019751
6.83538e-05
0.000165125
-4.37069e-05
-1.88954e-05
-6.81138e-05
0.000127597
-0.000130404
-0.000270657
0.000270945
-0.000251383
-0.00040859
0.000357063
-0.000356513
-0.000482741
0.00037835
-0.000422501
-0.000505836
0.000343927
-0.000479177
0.000273483
-0.000432979
-0.000510686
4.62681e-05
-0.000326765
-0.00040254
-0.000106083
-0.000187542
-0.000272212
-0.000229779
-3.34184e-05
-0.000115877
-0.000325956
0.000117353
5.38805e-05
-0.000390611
0.000245862
0.000214502
-0.000416558
0.000332842
0.000334208
-0.000394886
0.000363426
0.000374701
-0.000314714
0.000333397
0.000305819
-0.000169599
0.000245925
0.000136509
2.51941e-05
0.000107008
-7.30387e-05
0.000222133
-6.57453e-05
-0.000254859
0.000365553
-0.000240275
-0.000380781
0.000427149
-0.000382162
-0.000456093
0.000408689
-0.000467669
-0.000490755
0.00032853
-0.000477781
0.000218298
-0.000454998
-0.000527677
-7.56176e-05
-0.000344256
-0.000450616
-0.000237016
-0.000195049
-0.000350335
-0.000359673
-2.30969e-05
-0.000222315
-0.000443089
0.000155884
-7.56672e-05
-0.000485782
0.000323736
7.35159e-05
-0.000484287
0.000457129
0.000201832
-0.000433014
0.000528459
0.00027645
-0.000321169
0.000514935
0.000260165
-0.000139458
0.000408912
0.000144358
9.19537e-05
0.000223978
-2.31046e-05
0.000309026
-2.1465e-06
-0.000179757
0.000446306
-0.000219892
-0.000300602
0.000480185
-0.000388996
-0.000387941
0.0004219
-0.00048709
-0.000444679
0.000298191
-0.000455025
0.000151664
-0.000448796
-0.000521092
-0.000180831
-0.000336154
-0.000480056
-0.000340183
-0.000182304
-0.000413049
-0.000453831
-1.83788e-06
-0.000315348
-0.000519799
0.000190579
-0.000192916
-0.000538864
0.000377996
-5.69257e-05
-0.000510913
0.000538284
7.58184e-05
-0.000433993
0.000640467
0.000180543
-0.000298823
0.000647152
0.000222279
-9.34192e-05
0.000534041
0.000177147
0.000160259
0.000317435
6.77034e-05
0.000385092
5.38162e-05
-5.94125e-05
0.000508947
-0.000192998
-0.000179572
0.000514048
-0.00037811
-0.000286221
0.000419371
-0.000481701
-0.000371354
0.000258979
-0.000411407
8.39624e-05
-0.000416398
-0.000490346
-0.000248984
-0.000303061
-0.000487224
-0.000395631
-0.00014869
-0.00045338
-0.000492551
3.25467e-05
-0.000384315
-0.000537746
0.000226186
-0.000283619
-0.000533934
0.000416013
-0.00015946
-0.0004835
0.000582286
-2.50506e-05
-0.000387196
0.000696656
0.000101407
-0.000238287
0.000716777
0.00019392
-2.55602e-05
0.000605064
0.000222895
0.00022954
0.000374748
0.000180824
0.000445355
9.35349e-05
8.7793e-05
0.000548814
-0.000164886
-3.28078e-05
0.000526694
-0.000353547
-0.000161392
0.000403238
-0.000455115
-0.000277199
0.000217996
-0.000350366
2.67211e-05
-0.000360172
-0.000441204
-0.000267682
-0.000246896
-0.000474014
-0.000393722
-9.5613e-05
-0.000469627
-0.000469712
7.99746e-05
-0.000424397
-0.000495233
0.00026557
-0.00034076
-0.000474286
0.000445306
-0.000225615
-0.000410312
0.000600713
-9.06094e-05
-0.000304914
0.00070677
5.04038e-05
-0.000153643
0.000724449
0.000181489
5.1498e-05
0.000614743
0.000275106
0.000287986
0.000387189
0.000298796
0.000479986
0.000109985
0.000241808
0.000559346
-0.000141285
0.000122453
0.000515478
-0.000319996
-2.69257e-05
0.00037516
-0.000411252
-0.000172481
0.000181298
-0.000279547
-1.05009e-05
-0.000284474
-0.00038377
-0.000236248
-0.000172804
-0.000445454
-0.00033776
-2.84263e-05
-0.000462896
-0.000393577
0.000135896
-0.000433984
-0.00040555
0.000306247
-0.000361522
-0.000377821
0.000466587
-0.00025218
-0.000313346
0.000598288
-0.000116638
-0.000212841
0.000678219
3.44578e-05
-7.25787e-05
0.0006755
0.000192389
0.000111269
0.000562378
0.000332928
0.000315703
0.000349703
0.000408521
0.000475768
9.70743e-05
0.000383353
0.00053255
-0.000127613
0.000267046
0.000476756
-0.000282214
0.000100665
0.000335342
-0.000354161
-7.15099e-05
0.000152118
-0.000210132
-2.28887e-05
-0.000197079
-0.00032922
-0.000165378
-8.97528e-05
-0.000407346
-0.000241587
4.37169e-05
-0.000435348
-0.000281808
0.000192022
-0.00041331
-0.000289338
0.000341232
-0.000345326
-0.000267317
0.000474167
-0.000238256
-0.000216701
0.000570831
-0.000101495
-0.000135894
0.00061046
5.73196e-05
-2.0771e-05
0.000573271
0.000231447
0.000130635
0.00045094
0.000397178
0.000295351
0.000261186
0.000500992
0.00042153
5.06513e-05
0.000494852
0.000461547
-0.000128862
0.000380393
0.000406767
-0.000244969
0.000201204
0.000283059
-0.000288998
8.61472e-06
0.000130395
-0.00015466
-1.12485e-05
-0.000109322
-0.000287034
-7.19805e-05
-9.37671e-06
-0.000365237
-0.000123891
0.000109645
-0.000389749
-0.000154661
0.000238224
-0.000364068
-0.000167445
0.000361237
-0.000293238
-0.000162958
0.000459004
-0.000184113
-0.000139013
0.000510491
-4.44313e-05
-9.05096e-05
0.000499391
0.000119495
-1.117e-05
0.000421346
0.000298586
9.93568e-05
0.000288802
0.000465699
0.000221286
0.000128033
0.0005685
0.000315133
-2.74728e-05
0.000560676
0.000345709
-0.000146979
0.000441531
0.000306611
-0.000212969
0.000253532
0.00021933
-0.000222816
5.0435e-05
0.000114959
-0.000124329
1.98565e-05
-3.51574e-05
-0.000263221
2.78002e-05
5.45748e-05
-0.000323553
-2.77624e-06
0.000157664
-0.000330511
-3.0649e-05
0.000264522
-0.000290145
-5.70434e-05
0.000357391
-0.000208548
-7.92989e-05
0.000413345
-9.21629e-05
-9.09905e-05
0.000412305
5.22212e-05
-8.24651e-05
0.000347232
0.000216585
-4.46628e-05
0.000231834
0.000386147
2.27518e-05
9.57714e-05
0.000529345
0.000103639
-2.98128e-05
0.000600968
0.000170328
-0.000123913
0.000567375
0.000200253
-0.000177108
0.00043361
0.000190028
-0.000188996
0.00024111
0.000153386
-0.000164342
4.13456e-05
0.000107985
-0.000126096
6.54511e-05
1.12963e-05
-0.000259592
0.000122531
9.03135e-05
-0.000286225
0.0001069
0.000178011
-0.000263266
7.52748e-05
0.000263321
-0.00019831
2.90175e-05
0.000324277
-9.80808e-05
-2.53059e-05
0.000335372
3.07424e-05
-7.58309e-05
0.000281616
0.00017975
-0.000107816
0.000170233
0.000335939
-0.000109459
3.16094e-05
0.00047704
-7.99937e-05
-9.45915e-05
0.000570935
-3.12253e-05
-0.000179164
0.000585518
1.96079e-05
-0.000213974
0.000506663
6.0032e-05
-0.000207537
0.000351364
8.72116e-05
-0.00017381
0.000161043
0.000104858
-0.00012332
-1.95208e-05
0.000116493
-0.000159858
0.000121477
1.84342e-05
-0.000273389
0.000204157
8.88517e-05
-0.000256569
0.000192991
0.000164825
-0.000195983
0.000151173
0.000231855
-9.92777e-05
8.16398e-05
0.000263523
2.58271e-05
-4.92471e-06
0.00023417
0.000170651
-9.07636e-05
0.000138109
0.000320946
-0.000155765
-1.70124e-06
0.00045569
-0.000186145
-0.000142622
0.00054761
-0.000180511
-0.000244266
0.000571196
-0.000146659
-0.000286298
0.000513225
-9.48935e-05
-0.000273782
0.000382032
-3.35869e-05
-0.000227541
0.000207482
3.09161e-05
-0.000168912
2.93457e-05
9.29084e-05
-0.000109032
-0.000118484
0.000145889
-0.000217391
0.00018206
-1.63241e-05
-0.000299286
0.000263482
4.87323e-05
-0.000236975
0.000244678
0.000118144
-0.000137655
0.000187766
0.000172985
-6.88786e-06
9.5166e-05
0.000184391
0.000144974
-1.92555e-05
0.000129563
0.000305583
-0.000132343
1.30501e-05
0.000450569
-0.00021813
-0.000130053
0.000549822
-0.000260407
-0.000253528
0.000576887
-0.000256756
-0.000323441
0.000520296
-0.000214536
-0.000331705
0.000389533
-0.000144317
-0.000293871
0.000213384
-5.7446e-05
-0.000235785
3.03994e-05
3.44463e-05
-0.000177896
-0.000125094
0.000120454
-0.000126853
-0.00023245
0.000190736
-0.00028563
0.000236262
-8.0348e-05
0.000284188
-2.06457e-05
0.000249802
4.29623e-05
0.000178372
9.11247e-05
6.82349e-05
9.63227e-05
-6.7669e-05
4.35937e-05
-0.000200658
-5.68114e-05
-0.000297073
-0.000172059
-0.000334195
-0.000265007
-0.000308615
-0.000312518
-0.000233091
-0.000312571
-0.000128341
-0.000280879
-1.59118e-05
-0.000238643
8.74731e-05
-0.000200891
0.000171838
-0.00016933
0.000232499
0.000265589
-4.64826e-05
-0.000448485
0.000281781
2.70214e-05
-0.000319691
0.000175645
8.21091e-05
-0.000142527
6.3696e-05
0.000100725
6.80902e-05
-3.86658e-05
7.27948e-05
0.000283648
-0.000119837
5.15104e-06
0.000468606
-0.000173452
-8.19501e-05
0.000589751
-0.000196345
-0.000165476
0.000623396
-0.000186159
-0.00022709
0.000559509
-0.000140087
-0.000257348
0.000405656
-5.60955e-05
-0.000258255
0.000190226
6.07138e-05
-0.000242126
-4.10619e-05
0.000191382
-0.000222375
-0.00024206
0.000306288
-0.000202424
-0.000385235
0.000378722
-0.0001748
-0.000462952
0.000395198
-0.000474924
0.000354612
-0.000119618
-0.000497927
0.000229972
-3.99385e-05
-0.000360455
0.000105181
3.94219e-05
-0.000177473
-1.08891e-05
9.87234e-05
3.93359e-05
-0.000108831
0.000120287
0.00026135
-0.0001807
9.90428e-05
0.000450273
-0.000221453
4.57004e-05
0.000568023
-0.000227054
-1.90335e-05
0.000587118
-0.000192134
-7.51514e-05
0.000498598
-0.000111864
-0.000112668
0.000316701
1.19515e-05
-0.000136367
8.1259e-05
0.000161641
-0.000158753
-0.000153216
0.000302918
-0.000186198
-0.000340839
0.000400406
-0.000210796
-0.000464827
0.000436061
-0.000217164
-0.000525678
0.000410119
-0.00052355
0.000333989
-0.000186168
-0.000541971
0.000139127
-9.92301e-05
-0.000412013
-7.02586e-06
4.78546e-07
-0.000240457
-0.000127199
9.61698e-05
-3.48007e-05
-0.000217494
0.000170146
0.000180608
-0.000274263
0.000209025
0.000370955
-0.000294315
0.000208585
0.000497114
-0.000273829
0.000175906
0.000525163
-0.000206619
0.000125096
0.000439134
-8.72357e-05
6.65855e-05
0.000253288
7.82172e-05
-3.04515e-07
1.63618e-05
0.000259384
-8.08186e-05
-0.000209777
0.000408021
-0.000164905
-0.00038394
0.00048425
-0.00023338
-0.000496976
0.000478975
-0.000266746
-0.000553366
0.00040498
-0.000550162
0.000287035
-0.000241932
-0.000573236