/*--------------------------------*- C++ -*----------------------------------*\
| =========                 |                                                 |
| \\      /  F ield         | OpenFOAM: The Open Source CFD Toolbox           |
|  \\    /   O peration     | Version:  3.0.0                                 |
|   \\  /    A nd           | Web:      www.OpenFOAM.org                      |
|    \\/     M anipulation  |                                                 |
\*---------------------------------------------------------------------------*/
FoamFile
{
    version     2.0;
    format      ascii;
    class       volVectorField;
    location    "2.5";
    object      U;
}
// * * * * * * * * * * * * * * * * * * * * * * * * * * * * * * * * * * * * * //

dimensions      [0 1 -1 0 0 0 0];

internalField   nonuniform List<vector> 
4096
(
(-0.0913244 -0.0209453 0.0773703)
(-0.0792214 0.00862177 0.0900621)
(-0.0634582 0.0313446 0.090386)
(-0.0415966 0.0492506 0.0703609)
(-0.0219261 0.0649595 0.028574)
(-0.0113398 0.0800606 -0.0271756)
(-0.011978 0.0915308 -0.0821535)
(-0.0205078 0.0916403 -0.122496)
(-0.0306503 0.0731499 -0.141398)
(-0.0375882 0.0356432 -0.139223)
(-0.0410561 -0.0117738 -0.120551)
(-0.0447222 -0.054117 -0.0913469)
(-0.0522129 -0.0790341 -0.0569916)
(-0.0641863 -0.0829089 -0.0213839)
(-0.0782882 -0.0703058 0.0128636)
(-0.0827236 -0.0500618 0.0416546)
(-0.137254 -0.0247309 0.0666787)
(-0.118772 0.00828508 0.0676262)
(-0.1001 0.0349901 0.0587021)
(-0.0728616 0.0573881 0.0339979)
(-0.0456017 0.0770925 -0.00588016)
(-0.0247144 0.0937579 -0.053517)
(-0.0128136 0.102142 -0.0969428)
(-0.00864672 0.0932379 -0.125072)
(-0.0087663 0.0613573 -0.132449)
(-0.0113512 0.0111044 -0.120487)
(-0.0184336 -0.0425602 -0.0954339)
(-0.0331578 -0.082819 -0.0645314)
(-0.0555232 -0.100806 -0.0329555)
(-0.0821589 -0.0976269 -0.00354904)
(-0.108577 -0.0802161 0.0221746)
(-0.117215 -0.0573632 0.0409971)
(-0.177033 -0.0266145 0.0467542)
(-0.150623 0.00428937 0.0371911)
(-0.128253 0.0298674 0.0209759)
(-0.0941487 0.0519848 -0.00538246)
(-0.0569231 0.0714799 -0.0399545)
(-0.0225735 0.0869118 -0.0764077)
(0.00514165 0.0925169 -0.105783)
(0.0238102 0.0794788 -0.119931)
(0.032349 0.0430324 -0.115216)
(0.0294894 -0.0100263 -0.0945988)
(0.0129854 -0.0623658 -0.0657125)
(-0.0170056 -0.097381 -0.0358592)
(-0.0557668 -0.109032 -0.00924224)
(-0.096709 -0.101089 0.0123265)
(-0.13439 -0.0813316 0.0281932)
(-0.145577 -0.0579334 0.0368738)
(-0.203177 -0.0284701 0.0217966)
(-0.16995 -0.00427951 0.00464665)
(-0.143856 0.0166443 -0.0159576)
(-0.103012 0.0355546 -0.0409824)
(-0.0560664 0.052689 -0.0680225)
(-0.00891796 0.0663909 -0.0922162)
(0.0336003 0.0715586 -0.107578)
(0.0656884 0.0600399 -0.108631)
(0.0814069 0.0267233 -0.0934266)
(0.0761506 -0.0215697 -0.0663921)
(0.0484811 -0.0670476 -0.0359923)
(0.00307287 -0.0945544 -0.00882697)
(-0.0507008 -0.100796 0.0120177)
(-0.10378 -0.0910875 0.0253756)
(-0.150451 -0.0728357 0.0313102)
(-0.163449 -0.0521874 0.0306031)
(-0.211335 -0.0307424 -0.00116285)
(-0.174581 -0.0160996 -0.0223894)
(-0.14556 -0.00205746 -0.0440242)
(-0.0998573 0.0117972 -0.0650943)
(-0.0460126 0.0252046 -0.0833622)
(0.0100641 0.0367719 -0.0957363)
(0.0630576 0.0427961 -0.0988871)
(0.105528 0.0368025 -0.08966)
(0.127726 0.0132364 -0.0674197)
(0.120925 -0.0233356 -0.0374691)
(0.0839127 -0.0574948 -0.00817083)
(0.0258812 -0.0765935 0.015088)
(-0.0395661 -0.0791953 0.0300574)
(-0.101564 -0.0707941 0.0358086)
(-0.154187 -0.0574065 0.0328121)
(-0.168927 -0.0422932 0.0241398)
(-0.201258 -0.0316498 -0.015427)
(-0.165054 -0.0275769 -0.0374875)
(-0.134338 -0.0212768 -0.0568667)
(-0.0864695 -0.0132203 -0.0718519)
(-0.0295339 -0.00402289 -0.0810219)
(0.0305622 0.0052234 -0.0830656)
(0.0884157 0.0121503 -0.0769183)
(0.136592 0.0126321 -0.0614551)
(0.163895 0.00214281 -0.0370235)
(0.157742 -0.0176976 -0.00865696)
(0.115534 -0.0370252 0.0166725)
(0.0495765 -0.0471828 0.0350694)
(-0.0231291 -0.0477704 0.0445779)
(-0.0902377 -0.043153 0.044011)
(-0.145422 -0.0370543 0.0340838)
(-0.162025 -0.0295986 0.019431)
(-0.175988 -0.0291558 -0.017674)
(-0.143587 -0.035301 -0.0377712)
(-0.112558 -0.0366032 -0.0522755)
(-0.0651128 -0.0342683 -0.0600538)
(-0.00850616 -0.0291487 -0.0609499)
(0.0514616 -0.0221403 -0.0553086)
(0.109341 -0.0147736 -0.0437617)
(0.158176 -0.00901761 -0.0266546)
(0.187422 -0.00674447 -0.00491701)
(0.183038 -0.00809608 0.0178052)
(0.140188 -0.0103203 0.0369694)
(0.0717658 -0.0109032 0.0500994)
(-0.00334151 -0.0104 0.0550169)
(-0.0715648 -0.0110073 0.050025)
(-0.126019 -0.0134813 0.035896)
(-0.144394 -0.0149933 0.0177889)
(-0.140297 -0.0226317 -0.00882374)
(-0.113458 -0.0376971 -0.0244887)
(-0.0834346 -0.0458143 -0.0325673)
(-0.0384903 -0.0486632 -0.033346)
(0.0152788 -0.0472151 -0.0281359)
(0.0723034 -0.0422879 -0.0186797)
(0.126971 -0.0349571 -0.0065534)
(0.172497 -0.0255922 0.00744904)
(0.199495 -0.0130646 0.0227196)
(0.19561 0.0026598 0.0375965)
(0.155348 0.0178029 0.0501118)
(0.0896101 0.0272891 0.0586102)
(0.0170175 0.0287783 0.0603999)
(-0.0483046 0.022627 0.0532595)
(-0.0990026 0.0114043 0.0380066)
(-0.118426 0.000508566 0.0194935)
(-0.099269 -0.0134133 0.00697801)
(-0.0784432 -0.0352074 -0.00201805)
(-0.0507194 -0.0487865 -0.00311617)
(-0.00979308 -0.0559101 0.0018517)
(0.0395293 -0.0575432 0.0100858)
(0.0918686 -0.0545176 0.0188166)
(0.141239 -0.0475464 0.026329)
(0.18055 -0.0357928 0.0326447)
(0.201561 -0.015833 0.038886)
(0.195514 0.0133413 0.0457379)
(0.158825 0.0434756 0.0528472)
(0.0998521 0.0625649 0.0584079)
(0.0345316 0.065432 0.0590483)
(-0.0238539 0.0543433 0.0523209)
(-0.067994 0.0351796 0.0391329)
(-0.086857 0.0154069 0.0236804)
(-0.0579579 -0.00397896 0.0244924)
(-0.0427204 -0.0295149 0.0240868)
(-0.0185023 -0.0466023 0.0299627)
(0.017462 -0.0565551 0.0389237)
(0.0614419 -0.0604765 0.046841)
(0.107933 -0.0590401 0.0503608)
(0.150334 -0.0524928 0.04851)
(0.181108 -0.0389533 0.0434826)
(0.193255 -0.0137846 0.0392808)
(0.182328 0.0241092 0.0388572)
(0.148594 0.0642779 0.0423276)
(0.0989753 0.0905329 0.0469622)
(0.0451962 0.0948328 0.0486673)
(-0.00216521 0.0800859 0.0450611)
(-0.036952 0.0546738 0.0371863)
(-0.0528908 0.0275962 0.0285615)
(-0.0213873 0.00305239 0.0395711)
(-0.0109118 -0.0226229 0.0489917)
(0.00904403 -0.0404957 0.0615116)
(0.0397023 -0.0514538 0.0726437)
(0.0778435 -0.0565273 0.0771369)
(0.117573 -0.0560719 0.0715579)
(0.151325 -0.0496539 0.0567129)
(0.17142 -0.0344863 0.03815)
(0.172687 -0.00597232 0.0231932)
(0.155126 0.0356676 0.0163403)
(0.123342 0.0790965 0.017287)
(0.0841765 0.107552 0.0222831)
(0.0451973 0.11189 0.026983)
(0.0125725 0.0948316 0.0292576)
(-0.0103519 0.0657574 0.0300782)
(-0.0207251 0.0344092 0.0320668)
(0.00540075 0.00568313 0.050639)
(0.0121892 -0.0161285 0.0698865)
(0.0277569 -0.0315395 0.088166)
(0.0533882 -0.0413292 0.0995476)
(0.0857177 -0.0460409 0.0978323)
(0.117823 -0.0455644 0.080195)
(0.141264 -0.0385597 0.0503357)
(0.148893 -0.0217261 0.0178658)
(0.138285 0.00812951 -0.00708275)
(0.113884 0.0483933 -0.0195684)
(0.084031 0.0875884 -0.0207173)
(0.0558582 0.111344 -0.014683)
(0.0333066 0.112223 -0.00539892)
(0.0173818 0.0933341 0.00526602)
(0.00742335 0.0639392 0.0176459)
(0.00421104 0.0331687 0.0330548)
(0.0178798 0.00312063 0.058791)
(0.0220542 -0.0108521 0.0860811)
(0.0341624 -0.0205645 0.108121)
(0.0557966 -0.0267178 0.117385)
(0.0826372 -0.0293384 0.107018)
(0.106501 -0.0274515 0.0756853)
(0.118519 -0.0187834 0.0308804)
(0.113052 -0.000457407 -0.0138273)
(0.0914802 0.0279676 -0.0467405)
(0.0624407 0.0611575 -0.0633327)
(0.0364231 0.0886158 -0.0654638)
(0.0198241 0.100484 -0.0570803)
(0.0130359 0.0936197 -0.0415358)
(0.0122726 0.0728801 -0.0209513)
(0.0132862 0.0468624 0.00379299)
(0.0161733 0.0224636 0.0324889)
(0.0131872 -0.00382045 0.0661564)
(0.0159252 -0.00677444 0.0977409)
(0.026351 -0.00816768 0.120145)
(0.045488 -0.00855047 0.124414)
(0.0675254 -0.0073499 0.103641)
(0.0832916 -0.00250739 0.058889)
(0.0843124 0.00870056 0.00167728)
(0.0676373 0.0272851 -0.0514869)
(0.0390034 0.0500115 -0.088476)
(0.0100998 0.069671 -0.105818)
(-0.00868746 0.078736 -0.105904)
(-0.0137653 0.0737121 -0.0926228)
(-0.00859841 0.057207 -0.069541)
(-6.28016e-05 0.0360671 -0.0396535)
(0.00629705 0.017093 -0.00505354)
(0.0114608 0.00376042 0.0327542)
(-0.00857462 -0.0124094 0.0732869)
(-0.00594062 -0.00300386 0.104186)
(0.00458158 0.00516539 0.122779)
(0.0228016 0.0115324 0.119229)
(0.0412434 0.0176671 0.0875355)
(0.0506021 0.0264467 0.0317297)
(0.0439741 0.0398936 -0.0332126)
(0.0217332 0.0557645 -0.0891497)
(-0.00699271 0.0674574 -0.1244)
(-0.029908 0.0680949 -0.136884)
(-0.0394589 0.0553554 -0.130383)
(-0.0361116 0.033163 -0.109977)
(-0.0261048 0.009334 -0.0801894)
(-0.0167764 -0.00877531 -0.0445381)
(-0.0121514 -0.0176821 -0.00538391)
(-0.00907928 -0.0181552 0.0349352)
(-0.0438277 -0.0166632 0.0775607)
(-0.0401956 0.0042993 0.103286)
(-0.0289845 0.0214071 0.114806)
(-0.0106203 0.03484 0.101746)
(0.00647029 0.047435 0.0598821)
(0.0136589 0.0624343 -0.00385218)
(0.00666891 0.0786993 -0.0719407)
(-0.0116741 0.0882119 -0.124786)
(-0.0323771 0.0819647 -0.151188)
(-0.0462524 0.0581697 -0.151803)
(-0.0495209 0.0237694 -0.134099)
(-0.0448373 -0.0104246 -0.106044)
(-0.0382436 -0.0353605 -0.0728302)
(-0.0352527 -0.0466645 -0.0368942)
(-0.0377415 -0.0449416 0.000607814)
(-0.0395663 -0.0346194 0.0372029)
(-0.0915609 -0.0616647 0.0834039)
(-0.0713825 -0.0291971 0.0805782)
(-0.0500563 0.00284047 0.0678635)
(-0.02499 0.0353296 0.0406178)
(-0.00485916 0.0674139 0.000632089)
(0.00324233 0.0960345 -0.0436563)
(-0.00197874 0.115688 -0.0809535)
(-0.0158654 0.119695 -0.103201)
(-0.0313214 0.103269 -0.108024)
(-0.0430027 0.0665751 -0.097034)
(-0.0498863 0.016947 -0.0740376)
(-0.0551299 -0.0326216 -0.0441456)
(-0.0625778 -0.0696538 -0.0124181)
(-0.0732468 -0.0882402 0.017375)
(-0.0850072 -0.0896821 0.0429555)
(-0.0871399 -0.0791383 0.0613196)
(-0.126904 -0.070002 0.0694597)
(-0.10178 -0.0345756 0.0562177)
(-0.0775819 0.00101154 0.0367071)
(-0.0470787 0.038158 0.00757772)
(-0.0191599 0.0750454 -0.028758)
(-0.000933773 0.10666 -0.065256)
(0.00509257 0.124941 -0.0931488)
(0.00150438 0.121484 -0.105869)
(-0.00637061 0.0924693 -0.101193)
(-0.0148584 0.0425296 -0.0812895)
(-0.0248322 -0.0150577 -0.051865)
(-0.0397378 -0.0642557 -0.019904)
(-0.0606833 -0.0949685 0.00933123)
(-0.0848668 -0.106087 0.0330604)
(-0.107802 -0.102042 0.0502557)
(-0.113906 -0.0879347 0.0593372)
(-0.156448 -0.0788092 0.0471247)
(-0.125357 -0.0445035 0.0249657)
(-0.0977997 -0.00997002 0.000573743)
(-0.0612858 0.026472 -0.0281163)
(-0.0242508 0.0627729 -0.0586149)
(0.00676597 0.0936793 -0.0855101)
(0.0277672 0.110836 -0.102419)
(0.0374317 0.105279 -0.104208)
(0.0371532 0.0730151 -0.0890952)
(0.0282877 0.0201935 -0.0602813)
(0.00951086 -0.0372972 -0.0255726)
(-0.0201717 -0.0825782 0.0066911)
(-0.0572758 -0.10779 0.0316038)
(-0.0952533 -0.114511 0.0474682)
(-0.12821 -0.108226 0.0545823)
(-0.136433 -0.0929541 0.0537511)
(-0.174262 -0.0866028 0.0204503)
(-0.138811 -0.0577919 -0.00786992)
(-0.108314 -0.0279582 -0.0349215)
(-0.0665038 0.00459648 -0.0613569)
(-0.0211975 0.0379862 -0.0850113)
(0.0217278 0.0677136 -0.102083)
(0.0573535 0.0863573 -0.108252)
(0.0806903 0.0846212 -0.0995159)
(0.0881286 0.0566433 -0.0744069)
(0.0776301 0.00789598 -0.0374594)
(0.0480153 -0.0444091 0.00120544)
(0.00246101 -0.0835918 0.032379)
(-0.0501886 -0.104158 0.0519102)
(-0.10016 -0.109458 0.059234)
(-0.140876 -0.104755 0.0558721)
(-0.150292 -0.0918782 0.0455253)
(-0.178422 -0.0926714 -0.00476266)
(-0.141446 -0.0720861 -0.0362125)
(-0.108971 -0.0491713 -0.0635219)
(-0.0636944 -0.0224857 -0.0861631)
(-0.0127944 0.00633948 -0.102538)
(0.0384043 0.0339273 -0.110354)
(0.0849296 0.0547084 -0.107075)
(0.120094 0.0605047 -0.0896551)
(0.135867 0.0435302 -0.0566591)
(0.125096 0.0059868 -0.013787)
(0.0858815 -0.0364633 0.0267291)
(0.0263927 -0.0684995 0.0554052)
(-0.0390202 -0.0862731 0.0690782)
(-0.0980315 -0.0933763 0.0680698)
(-0.14377 -0.093652 0.0549963)
(-0.154162 -0.0861953 0.0362097)
(-0.169988 -0.0948389 -0.0230898)
(-0.134208 -0.0838393 -0.0547442)
(-0.100815 -0.0688345 -0.0798797)
(-0.0541183 -0.0488244 -0.0973553)
(-0.000667105 -0.0251855 -0.106309)
(0.0545448 -0.000353646 -0.105798)
(0.106799 0.0218334 -0.0948345)
(0.149556 0.0354256 -0.0714604)
(0.172777 0.0327943 -0.0343381)
(0.163865 0.0120755 0.0104316)
(0.118524 -0.0163533 0.0497516)
(0.0492368 -0.0404692 0.0745275)
(-0.0247783 -0.0571626 0.0823508)
(-0.0892459 -0.0686278 0.0740698)
(-0.137178 -0.0762709 0.0530988)
(-0.148624 -0.0764713 0.0275822)
(-0.151463 -0.0913991 -0.0308321)
(-0.118655 -0.0903654 -0.0601546)
(-0.0851735 -0.0833652 -0.081034)
(-0.0387459 -0.0699392 -0.0925052)
(0.0147653 -0.0512446 -0.0945694)
(0.0705381 -0.0291219 -0.0874146)
(0.123935 -0.00637037 -0.0712202)
(0.169004 0.0131703 -0.0451049)
(0.195951 0.0241981 -0.00823086)
(0.189369 0.0227122 0.0336492)
(0.142037 0.011344 0.0685588)
(0.0683213 -0.00393577 0.0883799)
(-0.00936927 -0.0204508 0.0909861)
(-0.075433 -0.0376985 0.0772804)
(-0.122822 -0.0539046 0.05116)
(-0.135215 -0.0630965 0.0214226)
(-0.125613 -0.0823421 -0.027152)
(-0.0965712 -0.0907453 -0.0519593)
(-0.0637017 -0.0911361 -0.0672388)
(-0.0188594 -0.0835895 -0.0728442)
(0.0328691 -0.069146 -0.0696722)
(0.0867758 -0.0493778 -0.0587675)
(0.138034 -0.0266245 -0.040944)
(0.180751 -0.00324879 -0.015956)
(0.206112 0.0185737 0.0165106)
(0.199727 0.035153 0.0518452)
(0.153516 0.0416661 0.0803578)
(0.0809358 0.0360011 0.0951638)
(0.00480184 0.0196775 0.0939458)
(-0.0588561 -0.00355925 0.077361)
(-0.103016 -0.0284202 0.0495528)
(-0.115689 -0.0470325 0.018925)
(-0.0952446 -0.0694198 -0.014009)
(-0.0701562 -0.0856903 -0.0324786)
(-0.0386898 -0.0921137 -0.0416817)
(0.00346934 -0.0892191 -0.042556)
(0.0520374 -0.0780956 -0.0368539)
(0.102313 -0.0602856 -0.0261486)
(0.148987 -0.0378779 -0.0112991)
(0.185698 -0.0121336 0.00813808)
(0.204455 0.0174002 0.0327919)
(0.194676 0.0482462 0.0596599)
(0.150935 0.0704734 0.0816365)
(0.084356 0.0742055 0.0926175)
(0.0150236 0.0586261 0.0897438)
(-0.0420764 0.0301519 0.0734026)
(-0.0802903 -0.00256006 0.0478232)
(-0.0918443 -0.0301261 0.0203005)
(-0.0635352 -0.0555054 0.00468002)
(-0.0422826 -0.0769225 -0.00596322)
(-0.013157 -0.087207 -0.00926605)
(0.0253954 -0.0872163 -0.00717849)
(0.0697386 -0.0782903 -0.00223824)
(0.114914 -0.0619858 0.00386447)
(0.154799 -0.0400226 0.0109228)
(0.182314 -0.0126299 0.0206402)
(0.190573 0.0221026 0.0350786)
(0.174262 0.0621528 0.0530894)
(0.133012 0.0950205 0.0695017)
(0.0760132 0.105938 0.0784877)
(0.0183688 0.0913799 0.0765603)
(-0.0279158 0.0589763 0.0639754)
(-0.0573833 0.0199811 0.0447136)
(-0.06584 -0.0150436 0.0245605)
(-0.0342755 -0.043701 0.0246194)
(-0.0165652 -0.0665183 0.0227951)
(0.00935764 -0.0776816 0.0248282)
(0.0436551 -0.0784344 0.0277605)
(0.0829488 -0.0703261 0.0286356)
(0.12164 -0.0548229 0.0260205)
(0.152421 -0.0330122 0.0212825)
(0.167832 -0.00419494 0.018519)
(0.16317 0.0336073 0.0218231)
(0.138845 0.0773274 0.0314717)
(0.0998901 0.113722 0.0432995)
(0.0546083 0.12711 0.0517776)
(0.0125679 0.112538 0.0532942)
(-0.0190617 0.0775587 0.047941)
(-0.0373228 0.0346717 0.0388952)
(-0.0406894 -0.0049162 0.0300365)
(-0.0117558 -0.0364904 0.0427854)
(0.00290565 -0.0563123 0.0497538)
(0.0251807 -0.0649001 0.0559864)
(0.055001 -0.0639257 0.0576368)
(0.0887648 -0.0549338 0.0514631)
(0.119644 -0.039083 0.037016)
(0.139113 -0.0166537 0.0183029)
(0.140345 0.0134718 0.00252443)
(0.122264 0.0518128 -0.00450156)
(0.0907701 0.0932862 -0.00204331)
(0.0549763 0.125245 0.00610581)
(0.0225531 0.134462 0.015149)
(-0.00191716 0.117055 0.0220834)
(-0.0169239 0.0804101 0.0266844)
(-0.0230262 0.0369344 0.0305796)
(-0.0203967 -0.00263963 0.0354103)
(-0.000130145 -0.0350725 0.0581716)
(0.0121154 -0.0475286 0.0721924)
(0.0310987 -0.050176 0.0806374)
(0.0568946 -0.0448881 0.0787247)
(0.0850317 -0.0330272 0.0632464)
(0.107125 -0.0152088 0.0356147)
(0.113993 0.00884364 0.00331221)
(0.100945 0.039515 -0.0235222)
(0.0716566 0.0746989 -0.0383556)
(0.036514 0.107439 -0.0409295)
(0.00637565 0.127154 -0.0347359)
(-0.0127255 0.125415 -0.0235208)
(-0.0206069 0.101826 -0.00965384)
(-0.0207063 0.0643914 0.00586148)
(-0.0166874 0.0243314 0.0227495)
(-0.00934754 -0.00965728 0.0405553)
(-0.00237491 -0.0391078 0.0708655)
(0.00837094 -0.0407522 0.0882764)
(0.0252288 -0.0348222 0.0959485)
(0.0480905 -0.0230093 0.0882182)
(0.0710798 -0.00632944 0.0624448)
(0.0844488 0.0150194 0.0226832)
(0.0795088 0.0410115 -0.0200232)
(0.0551657 0.0699604 -0.0536803)
(0.0198629 0.0969275 -0.0722265)
(-0.0135056 0.114477 -0.07615)
(-0.0349767 0.115847 -0.0687037)
(-0.0416994 0.0988497 -0.0531113)
(-0.0373448 0.0677768 -0.0318873)
(-0.0283187 0.0314431 -0.00709944)
(-0.0194296 -0.00123002 0.0194833)
(-0.0107874 -0.0249022 0.0460442)
(-0.0188421 -0.0465904 0.080043)
(-0.0083672 -0.0357977 0.0960098)
(0.00773434 -0.0200649 0.0996155)
(0.0290196 -0.000693762 0.0844268)
(0.0480686 0.0217643 0.0489888)
(0.0547103 0.046953 0.000220007)
(0.0420826 0.0734379 -0.048058)
(0.0128883 0.0969191 -0.0831662)
(-0.0213468 0.110648 -0.0999893)
(-0.0478979 0.108742 -0.100025)
(-0.0598636 0.0896466 -0.0872739)
(-0.0580796 0.0576341 -0.0657)
(-0.0486497 0.0211154 -0.0385968)
(-0.0384138 -0.0111261 -0.00857952)
(-0.0311025 -0.0335021 0.0222757)
(-0.0248534 -0.0446312 0.0513947)
(-0.0455804 -0.0510467 0.0822129)
(-0.0345558 -0.0295187 0.0928687)
(-0.0190831 -0.00504283 0.0902183)
(0.00119127 0.0224455 0.0675203)
(0.0182065 0.0530719 0.0243348)
(0.0227972 0.0851118 -0.0302352)
(0.0107558 0.112816 -0.0802962)
(-0.0135006 0.127053 -0.112185)
(-0.0395175 0.120808 -0.121331)
(-0.0576833 0.0941543 -0.111279)
(-0.0641765 0.0542458 -0.0889473)
(-0.0613524 0.011541 -0.0607233)
(-0.0548771 -0.0246242 -0.0306932)
(-0.050007 -0.0486972 -0.000756197)
(-0.048836 -0.0595572 0.0281593)
(-0.0468714 -0.0593916 0.0538466)
(-0.0672385 -0.0939396 0.0812034)
(-0.0435054 -0.0604081 0.0644198)
(-0.0214764 -0.0209968 0.0418085)
(-0.000664165 0.0229871 0.0123274)
(0.0116065 0.0674325 -0.0211302)
(0.0107035 0.106343 -0.052525)
(-0.00216565 0.1331 -0.0752783)
(-0.0212003 0.141811 -0.0851204)
(-0.0395707 0.128718 -0.0807235)
(-0.0524984 0.0938545 -0.062962)
(-0.0589645 0.0429915 -0.0348376)
(-0.0618359 -0.0124673 -0.00181292)
(-0.0651073 -0.0598782 0.0297291)
(-0.0702065 -0.0912427 0.0548349)
(-0.0753071 -0.104934 0.0711182)
(-0.0727215 -0.102803 0.0774527)
(-0.0926012 -0.103659 0.0667567)
(-0.06664 -0.0676044 0.0423312)
(-0.0418135 -0.0251285 0.015801)
(-0.0146487 0.0234764 -0.0138769)
(0.00716145 0.0735339 -0.0440649)
(0.0176818 0.116853 -0.0697905)
(0.0157511 0.14366 -0.085651)
(0.00518178 0.145887 -0.087621)
(-0.00793642 0.120518 -0.0741686)
(-0.0192995 0.0717147 -0.0470016)
(-0.0291347 0.0111781 -0.0118018)
(-0.0409623 -0.0457616 0.0232203)
(-0.0567749 -0.0877463 0.0512815)
(-0.0745089 -0.111445 0.0690895)
(-0.0899111 -0.118919 0.0763453)
(-0.0919195 -0.11244 0.0740262)
(-0.114504 -0.116616 0.0436742)
(-0.0852878 -0.0808419 0.0122704)
(-0.0574395 -0.039182 -0.0171628)
(-0.0241651 0.00864211 -0.0455195)
(0.00757598 0.0581522 -0.0707136)
(0.0318736 0.101317 -0.0889868)
(0.0451521 0.127978 -0.0961588)
(0.0469741 0.129029 -0.0886451)
(0.0401189 0.100884 -0.0649615)
(0.0275424 0.0488971 -0.0279961)
(0.00886026 -0.0126364 0.0137045)
(-0.0174666 -0.0669184 0.0494474)
(-0.0491401 -0.104263 0.0726643)
(-0.0802319 -0.123966 0.0816963)
(-0.104849 -0.12926 0.0782782)
(-0.1094 -0.121374 0.0661466)
(-0.128871 -0.127307 0.0150438)
(-0.0974831 -0.0959961 -0.0213896)
(-0.0671436 -0.0590358 -0.0524595)
(-0.0287787 -0.0155939 -0.078484)
(0.0115226 0.0306406 -0.0979858)
(0.0484382 0.0730026 -0.108397)
(0.0769982 0.102298 -0.106691)
(0.0925502 0.108388 -0.0895872)
(0.0929563 0.0849847 -0.0554596)
(0.0784978 0.0363577 -0.00866828)
(0.0490645 -0.0215422 0.0387843)
(0.00681487 -0.0711199 0.0741071)
(-0.0405118 -0.104567 0.0913664)
(-0.0834325 -0.123023 0.0908692)
(-0.115252 -0.129692 0.0762847)
(-0.121207 -0.123907 0.0543318)
(-0.134672 -0.134444 -0.0140018)
(-0.102715 -0.110282 -0.0529258)
(-0.070719 -0.080404 -0.0839228)
(-0.0289784 -0.0436875 -0.106557)
(0.0170489 -0.00290544 -0.11996)
(0.0626285 0.0370627 -0.122707)
(0.102675 0.0691818 -0.112932)
(0.130544 0.083999 -0.0876235)
(0.139526 0.0722883 -0.0445583)
(0.125051 0.0342939 0.0106247)
(0.0861041 -0.0151673 0.0621632)
(0.0295828 -0.0588503 0.0955824)
(-0.0308677 -0.0901538 0.106235)
(-0.0828808 -0.110467 0.0962979)
(-0.119517 -0.121686 0.0711561)
(-0.126338 -0.12088 0.0402324)
(-0.132459 -0.136042 -0.0378882)
(-0.101146 -0.12066 -0.076543)
(-0.0682247 -0.0991269 -0.105346)
(-0.0248549 -0.0702043 -0.123352)
(0.0238784 -0.0357954 -0.130309)
(0.0735591 0.00072955 -0.125823)
(0.119499 0.0344251 -0.109178)
(0.15528 0.0579382 -0.077972)
(0.172202 0.0614086 -0.0294367)
(0.160183 0.0401191 0.0303311)
(0.115155 0.00376476 0.0828598)
(0.0482652 -0.0329163 0.112725)
(-0.021283 -0.0636443 0.116626)
(-0.0789174 -0.0882183 0.0982026)
(-0.117846 -0.106151 0.0642299)
(-0.125219 -0.112346 0.0261136)
(-0.123172 -0.131094 -0.0519567)
(-0.0930403 -0.125393 -0.0877378)
(-0.0596586 -0.112598 -0.112359)
(-0.0161046 -0.0914621 -0.1249)
(0.0328218 -0.0631461 -0.125714)
(0.0828525 -0.0300097 -0.115202)
(0.129624 0.00427903 -0.0935077)
(0.167626 0.0343897 -0.0590439)
(0.188628 0.0523088 -0.00927022)
(0.17946 0.0505058 0.0498698)
(0.132324 0.0308334 0.0994675)
(0.0603921 0.00240825 0.124297)
(-0.0132746 -0.0284567 0.121962)
(-0.0726599 -0.0585508 0.0969343)
(-0.111249 -0.0842481 0.0569879)
(-0.118663 -0.0986549 0.0144944)
(-0.107655 -0.120357 -0.053775)
(-0.078863 -0.124392 -0.084648)
(-0.0454725 -0.119864 -0.103932)
(-0.00300837 -0.105638 -0.111253)
(0.0441034 -0.0824009 -0.107462)
(0.0917402 -0.0519922 -0.0934026)
(0.135672 -0.0175173 -0.0695661)
(0.17092 0.0170435 -0.0349837)
(0.190436 0.0464039 0.0120916)
(0.181573 0.063042 0.0659496)
(0.135195 0.0612277 0.109437)
(0.0638913 0.0420916 0.128632)
(-0.00844864 0.0112571 0.121455)
(-0.0654251 -0.0244595 0.0926332)
(-0.100885 -0.05806 0.050557)
(-0.107354 -0.0812053 0.0074231)
(-0.0870467 -0.106015 -0.0438217)
(-0.0597666 -0.118678 -0.0685303)
(-0.027074 -0.120954 -0.0824561)
(0.0130727 -0.112008 -0.0860023)
(0.0567375 -0.0924398 -0.0802976)
(0.0999221 -0.0639448 -0.0662297)
(0.138317 -0.0293856 -0.0441136)
(0.166943 0.00817009 -0.0130629)
(0.179698 0.045758 0.0278733)
(0.167159 0.0769993 0.0734466)
(0.122737 0.0909767 0.10941)
(0.0571661 0.0810226 0.123664)
(-0.0083063 0.0508359 0.113987)
(-0.0585221 0.0102039 0.085012)
(-0.0879251 -0.0307421 0.0453225)
(-0.0919442 -0.062477 0.00584154)
(-0.0633264 -0.090929 -0.0251776)
(-0.0378672 -0.109708 -0.0431014)
(-0.00684241 -0.116317 -0.0525288)
(0.0298597 -0.110433 -0.0544824)
(0.0687537 -0.092907 -0.0501152)
(0.105787 -0.0654806 -0.0399466)
(0.136247 -0.030755 -0.0236317)
(0.154949 0.00899854 0.000187011)
(0.156915 0.0520766 0.0322488)
(0.137446 0.0926812 0.0680983)
(0.0952104 0.117371 0.0965377)
(0.0393353 0.114473 0.107428)
(-0.0141162 0.085202 0.0982597)
(-0.0532067 0.0407465 0.0734022)
(-0.0736739 -0.00638127 0.0408589)
(-0.0735093 -0.0456214 0.00934349)
(-0.039486 -0.077875 -0.00216491)
(-0.0161539 -0.0989858 -0.0131465)
(0.0121989 -0.106603 -0.0193504)
(0.044593 -0.101181 -0.022094)
(0.0777022 -0.0839081 -0.0221965)
(0.107033 -0.0565679 -0.0194591)
(0.127204 -0.0213494 -0.0123961)
(0.133103 0.0201099 0.00137188)
(0.121928 0.0660784 0.0229142)
(0.0944481 0.110195 0.0486739)
(0.0548861 0.138534 0.0701442)
(0.0113892 0.138235 0.0793377)
(-0.0260131 0.108935 0.0739318)
(-0.0503659 0.06174 0.0575475)
(-0.0596942 0.0103979 0.0365269)
(-0.0539839 -0.0338506 0.0166181)
(-0.0192441 -0.068982 0.0213495)
(0.00186104 -0.0878515 0.0168068)
(0.0268756 -0.092759 0.0123247)
(0.0545186 -0.0849868 0.00664952)
(0.0812138 -0.0659996 -0.000462455)
(0.101505 -0.0375015 -0.0076744)
(0.109364 -0.00125202 -0.0118691)
(0.100743 0.0411717 -0.00932373)
(0.0764823 0.0868743 0.00149938)
(0.0426669 0.128222 0.0177903)
(0.00745526 0.152356 0.0333482)
(-0.0221413 0.148523 0.0425945)
(-0.0416903 0.116799 0.0438705)
(-0.0498415 0.0678184 0.0393949)
(-0.0476139 0.0153152 0.0327282)
(-0.0362692 -0.029739 0.0263266)
(-0.00639087 -0.0653677 0.0428862)
(0.0126198 -0.0774343 0.0431415)
(0.0343163 -0.0760956 0.0386254)
(0.0574458 -0.0631921 0.0282593)
(0.0776108 -0.0403746 0.0125685)
(0.0881224 -0.00923173 -0.0055465)
(0.0828929 0.0285076 -0.0209933)
(0.0604587 0.0703407 -0.0287792)
(0.0262064 0.111426 -0.0270793)
(-0.00975888 0.143264 -0.0180999)
(-0.0378994 0.155619 -0.00605001)
(-0.0533445 0.142125 0.00562806)
(-0.0563973 0.105357 0.0155933)
(-0.0504295 0.055859 0.02408)
(-0.0390498 0.00616664 0.0315404)
(-0.0239103 -0.0343914 0.0376043)
(-0.00390346 -0.0671316 0.0609161)
(0.0134949 -0.0688051 0.0630249)
(0.0326531 -0.0584436 0.0564828)
(0.0522459 -0.0381042 0.0402284)
(0.0666135 -0.00956772 0.015696)
(0.0680031 0.0253357 -0.0123285)
(0.0512871 0.064069 -0.0367619)
(0.018732 0.10233 -0.0517613)
(-0.0199921 0.133482 -0.0555296)
(-0.0528765 0.149641 -0.0497611)
(-0.0715947 0.144661 -0.0373048)
(-0.0745135 0.117745 -0.0206781)
(-0.0656638 0.0750193 -0.00187938)
(-0.0511914 0.0270964 0.0173126)
(-0.0356839 -0.0157374 0.0351162)
(-0.0201426 -0.0470197 0.0494935)
(-0.0126937 -0.0734421 0.0735443)
(0.00393454 -0.0628228 0.0738814)
(0.0216861 -0.0420861 0.0635373)
(0.0391486 -0.013284 0.041058)
(0.0494814 0.0216096 0.0087182)
(0.0446013 0.0598138 -0.0268677)
(0.0211641 0.0972755 -0.0567798)
(-0.0150833 0.127956 -0.0744654)
(-0.0518956 0.144675 -0.0781899)
(-0.077747 0.141763 -0.0698225)
(-0.0872411 0.117968 -0.0525087)
(-0.0820358 0.0779735 -0.0295566)
(-0.0683062 0.0310541 -0.00415775)
(-0.0526619 -0.0125962 0.0208482)
(-0.0388602 -0.0456757 0.0430292)
(-0.0262704 -0.0650728 0.0599502)
(-0.0294891 -0.0769577 0.0768213)
(-0.0131694 -0.0564741 0.0728455)
(0.0031537 -0.0272187 0.0582228)
(0.0190788 0.0103928 0.030551)
(0.0276405 0.0545494 -0.00784793)
(0.0218208 0.100101 -0.0489158)
(0.000376778 0.13807 -0.0815987)
(-0.0300763 0.158141 -0.0976658)
(-0.0588084 0.153847 -0.0951649)
(-0.0772034 0.125901 -0.0776403)
(-0.0823356 0.0815737 -0.0511026)
(-0.0768633 0.0314644 -0.0215186)
(-0.0663391 -0.0143606 0.00677416)
(-0.055829 -0.0491621 0.03139)
(-0.0476313 -0.0702928 0.0512513)
(-0.0393817 -0.0781087 0.0649995)
(-0.0243985 -0.111285 0.0759363)
(-0.00147298 -0.0792529 0.0503469)
(0.0159646 -0.0352273 0.0220816)
(0.0264659 0.0161144 -0.00628149)
(0.0254084 0.0676052 -0.0315163)
(0.0120098 0.111566 -0.0504563)
(-0.00963688 0.141549 -0.0607087)
(-0.033094 0.152893 -0.0608853)
(-0.0524695 0.142831 -0.0502856)
(-0.0640565 0.111295 -0.0288825)
(-0.0670904 0.0624302 0.00144259)
(-0.064083 0.00539113 0.0354893)
(-0.0591464 -0.0480534 0.0658582)
(-0.0546404 -0.0886239 0.0862979)
(-0.0498128 -0.112095 0.0938985)
(-0.0402652 -0.117657 0.0886042)
(-0.0431398 -0.11995 0.0619618)
(-0.0201818 -0.0852803 0.0309625)
(0.000802202 -0.0383499 0.00101413)
(0.0197546 0.0176204 -0.0264408)
(0.0308759 0.0751008 -0.0489774)
(0.0304876 0.123985 -0.0640179)
(0.0195432 0.154484 -0.0692839)
(0.00292845 0.159891 -0.0628238)
(-0.0132665 0.138162 -0.0434752)
(-0.024843 0.0927418 -0.0121631)
(-0.0316278 0.0330191 0.0260618)
(-0.0369816 -0.0276273 0.0623946)
(-0.0439262 -0.0772918 0.0884528)
(-0.0518493 -0.1106 0.100168)
(-0.057373 -0.127222 0.0976877)
(-0.0538774 -0.127549 0.0836963)
(-0.0607154 -0.133657 0.0385315)
(-0.0368134 -0.0985288 0.00182326)
(-0.0127669 -0.0521356 -0.0295686)
(0.0132685 0.00304301 -0.0551299)
(0.0360699 0.0600403 -0.0734424)
(0.0509645 0.109076 -0.0826698)
(0.055491 0.139807 -0.08087)
(0.0503149 0.144332 -0.0659515)
(0.0390465 0.120025 -0.0365895)
(0.0254655 0.0711665 0.00514191)
(0.00995418 0.00933882 0.0509766)
(-0.00936357 -0.0501782 0.0887006)
(-0.0318831 -0.0963879 0.109469)
(-0.0532012 -0.126114 0.111338)
(-0.0679022 -0.140326 0.0972539)
(-0.0680071 -0.138837 0.0730154)
(-0.0751653 -0.143979 0.0078099)
(-0.0507636 -0.112507 -0.0333888)
(-0.0243896 -0.0709279 -0.065631)
(0.00723195 -0.0207009 -0.0888214)
(0.0397457 0.0326754 -0.102393)
(0.0685864 0.081162 -0.105257)
(0.0890886 0.115129 -0.0958701)
(0.0973107 0.125104 -0.0719369)
(0.092453 0.105495 -0.0317923)
(0.0765968 0.0592858 0.0210964)
(0.0507842 -0.00041642 0.0744202)
(0.0159597 -0.0567534 0.112445)
(-0.0222604 -0.099886 0.126662)
(-0.0555545 -0.128236 0.117747)
(-0.0775454 -0.143037 0.0914209)
(-0.0798222 -0.142898 0.05672)
(-0.0856702 -0.149753 -0.0254334)
(-0.061261 -0.124632 -0.0688744)
(-0.0332685 -0.0905948 -0.100689)
(0.00217852 -0.0481543 -0.120778)
(0.0412071 -0.00112127 -0.129238)
(0.0796125 0.0447852 -0.125727)
(0.112202 0.0820543 -0.109247)
(0.132587 0.101284 -0.0772762)
(0.135623 0.0933744 -0.027291)
(0.119574 0.0570531 0.035988)
(0.0847678 0.00441746 0.0955403)
(0.035965 -0.0472934 0.132334)
(-0.0154432 -0.0886368 0.139033)
(-0.057953 -0.118301 0.119183)
(-0.0849634 -0.136479 0.0811068)
(-0.0884796 -0.140239 0.0368771)
(-0.0917162 -0.149566 -0.0552325)
(-0.0672711 -0.132706 -0.0980342)
(-0.038075 -0.107854 -0.127463)
(-0.000452748 -0.074593 -0.143282)
(0.0417663 -0.035115 -0.14612)
(0.084556 0.00689193 -0.136324)
(0.123058 0.0460872 -0.113594)
(0.150915 0.0746447 -0.0755818)
(0.161067 0.0820482 -0.0189044)
(0.147254 0.0617888 0.0512097)
(0.106877 0.0212038 0.113795)
(0.0480416 -0.0242436 0.147337)
(-0.0123688 -0.0649277 0.146082)
(-0.060464 -0.0979545 0.116114)
(-0.0899349 -0.121404 0.0680747)
(-0.0938604 -0.130857 0.0165071)
(-0.0924844 -0.143175 -0.0758882)
(-0.0675233 -0.135949 -0.11516)
(-0.0373019 -0.12098 -0.140235)
(0.00100584 -0.0969321 -0.150918)
(0.0434596 -0.0646073 -0.148222)
(0.0861317 -0.0263109 -0.13297)
(0.124705 0.0139452 -0.105384)
(0.153891 0.049892 -0.0636297)
(0.167172 0.0719737 -0.00435818)
(0.155816 0.0705579 0.067064)
(0.11367 0.0458262 0.128036)
(0.0502464 0.0083275 0.156253)
(-0.0138631 -0.0320398 0.147354)
(-0.0633549 -0.0694117 0.109272)
(-0.0924387 -0.0991224 0.0544581)
(-0.095679 -0.115504 -0.00103271)
(-0.0869515 -0.132006 -0.0835042)
(-0.061111 -0.134928 -0.11719)
(-0.0302509 -0.129402 -0.13692)
(0.00715501 -0.113377 -0.142778)