/*--------------------------------*- C++ -*----------------------------------*\
| =========                 |                                                 |
| \\      /  F ield         | OpenFOAM: The Open Source CFD Toolbox           |
|  \\    /   O peration     | Version:  3.0.0                                 |
|   \\  /    A nd           | Web:      www.OpenFOAM.org                      |
|    \\/     M anipulation  |                                                 |
\*---------------------------------------------------------------------------*/
FoamFile
{
    version     2.0;
    format      ascii;
    class       surfaceScalarField;
    location    "2.25";
    object      phi;
}
// * * * * * * * * * * * * * * * * * * * * * * * * * * * * * * * * * * * * * //

dimensions      [0 3 -1 0 0 0 0];

internalField   nonuniform List<scalar> 
11520
(
-0.000303779
-4.47776e-05
0.00028232
-0.000234092
2.31931e-05
0.000303262
-0.000138987
7.76257e-05
0.000278582
-4.37933e-05
0.000124854
0.000191561
2.00698e-05
0.000169198
4.76075e-05
3.06712e-05
0.000211436
-0.000124429
-1.03888e-05
0.000241405
-0.00028239
-8.10622e-05
0.000238669
-0.000392364
-0.000153226
0.000187458
-0.000440166
-0.000209087
9.36424e-05
-0.000428126
-0.000247067
-1.42999e-05
-0.000367562
-0.000275791
-0.000102694
-0.00027299
-0.000303346
-0.00015104
-0.000158732
-0.000329856
-0.000158044
-3.72035e-05
-0.000346792
-0.000135308
8.00233e-05
-0.000101881
0.000175148
-0.000453991
-5.67734e-05
0.000239063
-0.00037603
2.1972e-05
0.00021055
-0.00026566
8.42426e-05
0.000149202
-0.000148252
0.000138644
4.47497e-05
-5.28875e-05
0.000188491
-9.2725e-05
-5.36798e-07
0.00023077
-0.0002364
4.22237e-06
0.000250044
-0.000352021
-2.67776e-05
0.000222147
-0.00041367
-7.58732e-05
0.00013488
-0.000412596
-0.000132241
6.7156e-06
-0.00035687
-0.000195254
-0.00011978
-0.000264973
-0.00026726
-0.000205472
-0.000156949
-0.000344479
-0.000236162
-4.83083e-05
-0.000415843
-0.000220093
5.04197e-05
-0.000466676
-0.000176171
0.000131511
-0.00012681
0.000182922
-0.000584831
-6.73694e-05
0.000167187
-0.000494151
2.2786e-06
9.43881e-05
-0.000361833
5.6865e-05
3.91439e-06
-0.000212381
0.000105126
-0.000106757
-7.16999e-05
0.000150305
-0.00022624
3.71579e-05
0.000188303
-0.000331279
9.94877e-05
0.000202876
-0.00039645
0.000111074
0.000168288
-0.000404051
7.64708e-05
7.21709e-05
-0.00035195
2.37795e-06
-6.12731e-05
-0.000255404
-0.000104676
-0.000181884
-0.000139941
-0.000233905
-0.00025116
-2.83755e-05
-0.000367962
-0.000262395
6.48398e-05
-0.000486424
-0.000231413
0.000132142
-0.000570813
-0.000179494
0.000170558
-0.00012709
0.000177044
-0.000672595
-7.96765e-05
7.92959e-05
-0.000567909
-3.49931e-05
-2.58974e-05
-0.000412547
-9.37404e-07
-0.000132956
-0.000229206
3.0552e-05
-0.000239588
-4.20745e-05
6.25922e-05
-0.000333159
0.000123816
9.30766e-05
-0.000396421
0.000243083
0.000109565
-0.000412429
0.000294021
8.81303e-05
-0.000370386
0.000266517
1.25588e-05
-0.000273689
0.000165283
-9.69662e-05
-0.000144589
7.56769e-06
-0.000191404
-1.45077e-05
-0.000180209
-0.000236576
9.28689e-05
-0.000368117
-0.000232018
0.000165236
-0.000528102
-0.000196502
0.000198471
-0.000640806
-0.000150602
0.000193691
-0.000107349
0.000159311
-0.000704001
-9.0413e-05
-6.87814e-06
-0.000587564
-8.0785e-05
-0.000128229
-0.000413555
-7.48169e-05
-0.000238968
-0.000203801
-6.64289e-05
-0.000330969
1.86497e-05
-5.22465e-05
-0.000393909
0.00022778
-3.15801e-05
-0.000416837
0.000392344
-1.04312e-05
-0.00039076
0.000476991
-6.28552e-06
-0.000310389
0.000456018
-3.87066e-05
-0.000182508
0.000329837
-9.93443e-05
-3.44543e-05
0.000126636
-0.000151546
9.91908e-05
-0.000111243
-0.000168819
0.000195165
-0.000342525
-0.000153994
0.00024435
-0.000534409
-0.00012479
0.000244724
-0.000666725
-9.68229e-05
0.000201451
-7.31994e-05
0.000133547
-0.000678558
-9.38626e-05
-7.05425e-05
-0.000554235
-0.000122151
-0.000194552
-0.000369325
-0.000146596
-0.000295217
-0.000145225
-0.000162972
-0.000363893
9.53605e-05
-0.000167641
-0.000393959
0.000326688
-0.000157584
-0.000380893
0.000516954
-0.000132939
-0.000322805
0.000625412
-0.00010194
-0.000219367
0.000613586
-8.12685e-05
-7.92463e-05
0.000473565
-7.68836e-05
6.97479e-05
0.000239657
-7.46455e-05
0.000193288
-3.29476e-05
-6.15627e-05
0.000271543
-0.000293436
-4.15787e-05
0.000297233
-0.000505115
-2.70259e-05
0.000269443
-0.000647076
-2.53286e-05
0.000196372
-2.93851e-05
0.000104429
-0.000604478
-8.3722e-05
-0.000102526
-0.000476857
-0.00014852
-0.000213715
-0.000289274
-0.00020198
-0.000292466
-6.28476e-05
-0.00024146
-0.000331948
0.000179721
-0.000263228
-0.000330386
0.000413299
-0.00026297
-0.000289111
0.000608204
-0.000237051
-0.000211746
0.000725355
-0.000184789
-0.000102119
0.000722032
-0.000114279
3.02108e-05
0.000581058
-4.11487e-05
0.000160832
0.000335467
2.23384e-05
0.000261619
4.68485e-05
6.827e-05
0.00031732
-0.000226795
9.06134e-05
0.000321245
-0.000445465
8.59601e-05
0.000272645
-0.000587506
5.7165e-05
0.000181473
2.06325e-05
7.72281e-05
-0.000495607
-5.96456e-05
-9.83492e-05
-0.000368699
-0.00015595
-0.000184202
-0.000185506
-0.000234365
-0.000232625
3.3593e-05
-0.000293151
-0.000241471
0.00026615
-0.00032873
-0.00021428
0.000487633
-0.000336474
-0.000157086
0.0006705
-0.000310818
-7.66143e-05
0.000780494
-0.000244398
2.14446e-05
0.000778343
-0.000135242
0.000128473
0.000644389
-9.66982e-07
0.000226368
0.00040462
0.000122736
0.000296366
0.000119232
0.000202684
0.000328084
-0.000151328
0.00022761
0.000314686
-0.000364465
0.000202971
0.000254742
-0.000497975
0.000143354
0.000159132
7.32336e-05
5.63313e-05
-0.00036747
-2.70758e-05
-6.26813e-05
-0.000244771
-0.000146853
-0.00011351
-7.15289e-05
-0.00024395
-0.000127774
0.00013342
-0.000316595
-0.000109513
0.000348277
-0.000361825
-6.72798e-05
0.000548792
-0.000375368
-1.02396e-05
0.000708489
-0.000350565
5.45703e-05
0.000797776
-0.000275339
0.000123378
0.000786462
-0.000139658
0.000191594
0.000659654
4.05717e-05
0.000249766
0.000438005
0.000213673
0.00028813
0.000173031
0.000324836
0.000299238
-7.81486e-05
0.000353542
0.000275734
-0.000273396
0.00031153
0.000215825
-0.000390713
0.000224233
0.000130635
0.000122704
4.45755e-05
-0.000235909
5.29166e-06
-5.79515e-06
-0.000120709
-0.000127129
-1.56931e-05
3.85514e-05
-0.000234364
3.38455e-06
0.00022509
-0.000313981
4.11368e-05
0.000417708
-0.000364082
8.48745e-05
0.000591644
-0.000380881
0.000124269
0.000720461
-0.000356593
0.00015495
0.000778861
-0.000275702
0.000179016
0.000747893
-0.000124057
0.000200022
0.000623874
8.31337e-05
0.000217894
0.000426343
0.000287078
0.000229014
0.000195885
0.000419655
0.000226692
-2.02799e-05
0.000451707
0.000202818
-0.000185199
0.000396946
0.00015575
-0.00027899
0.000288254
9.60965e-05
0.000161596
4.22836e-05
-0.000116892
2.88347e-05
6.02472e-05
-1.20111e-05
-0.000103225
9.25866e-05
0.000130655
-0.000209548
0.000140191
0.000296606
-0.000288228
0.000187208
0.000464304
-0.000337741
0.00021826
0.000607244
-0.000354645
0.000224019
0.000698728
-0.000329543
0.000205934
0.000718562
-0.000244693
0.0001756
0.000660174
-8.63203e-05
0.000146922
0.000533815
0.000127795
0.000127815
0.000362032
0.000337597
0.000117906
0.000176183
0.000474391
0.000110421
8.46852e-06
0.000505035
9.68842e-05
-0.000113984
0.000441987
7.57729e-05
-0.000177445
0.000321689
5.58339e-05
0.000181377
4.78745e-05
-2.65447e-05
3.79497e-05
0.00012566
6.61433e-05
-7.92987e-05
0.000196055
0.000191604
-0.000172966
0.000263704
0.000336551
-0.000241762
0.000308633
0.000477554
-0.000284681
0.000314163
0.000585391
-0.000297712
0.000274451
0.000633947
-0.000269505
0.000200031
0.000610255
-0.00018216
0.00011411
0.000521008
-2.69046e-05
3.99911e-05
0.000390021
0.000173744
-9.0814e-06
0.000245414
0.000363393
-3.32077e-05
0.000110027
0.000481734
-3.84971e-05
5.07474e-07
0.000500497
-3.2165e-05
-7.20718e-05
0.000432283
-1.60389e-05
-0.00010137
0.000311927
1.35196e-05
0.000174714
5.94397e-05
2.06885e-05
3.12459e-05
0.000184902
0.000101176
-5.70053e-05
0.000282793
0.000210771
-0.000126515
0.000358789
0.000335738
-0.000176984
0.000389944
0.000449076
-0.000207241
0.000360081
0.00051884
-0.000211804
0.000269693
0.00052164
-0.000178001
0.000140756
0.000454324
-9.12075e-05
7.56131e-06
0.000337701
4.88287e-05
-0.000100487
0.000206545
0.000214656
-0.000169695
9.15563e-05
0.000358225
-0.000199187
7.75182e-06
0.000436072
-0.000194193
-4.37638e-05
0.000432256
-0.000160378
-6.70236e-05
0.000361554
-0.000101722
-6.42809e-05
0.000254315
-2.07092e-05
0.000138818
7.65381e-05
1.36184e-05
1.24134e-05
0.000235542
8.45336e-05
-3.55329e-05
0.000343987
0.000181885
-7.23556e-05
0.000413863
0.000289438
-9.79708e-05
0.000420447
0.000376031
-0.000110302
0.000350257
0.000408581
-0.000102081
0.000212528
0.000369337
-6.17051e-05
4.09888e-05
0.000267068
1.78232e-05
-0.000122082
0.000134998
0.000126588
-0.000246184
1.40541e-05
0.000236289
-0.000319242
-6.80922e-05
0.00031365
-0.000341174
-0.000105965
0.000337152
-0.000316753
-0.000111108
0.000306672
-0.000252134
-9.85114e-05
0.000239439
-0.000154733
-7.49323e-05
0.000157943
-3.30987e-05
7.91931e-05
9.98239e-05
-5.1027e-05
-1.01697e-05
0.000273853
1.52449e-05
-1.32614e-05
0.000371999
0.000105512
-1.403e-05
0.000420711
0.000200061
-1.18795e-05
0.000394813
0.000264882
-3.23777e-06
0.000285892
0.000268606
2.03115e-05
0.000112706
0.000201591
6.47196e-05
-8.16312e-05
8.36244e-05
0.000126377
-0.000251626
-4.49166e-05
0.000186946
-0.000369013
-0.000144309
0.000224511
-0.000425399
-0.000195094
0.00022671
-0.000424083
-0.000202364
0.000196038
-0.00037269
-0.000184981
0.000145732
-0.000280413
-0.000160342
9.16035e-05
-0.000157718
-0.000133697
4.50166e-05
-1.60715e-05
9.60221e-06
0.000127436
-0.000163536
0.000290537
-9.85059e-05
0.000359499
-9.86179e-06
0.00037556
7.91504e-05
0.000314736
0.00013351
0.000174859
0.000127358
-1.74262e-05
5.85314e-05
-0.000213978
-4.78991e-05
-0.000368645
-0.000153464
-0.00045628
-0.000227366
-0.000474819
-0.000260183
-0.00043578
-0.000262496
-0.000354172
-0.000252249
-0.000243163
-0.00024144
-0.000113742
-0.000229385
2.38299e-05
0.000152115
-0.000305441
-0.000155928
0.000257258
-0.000214884
-7.45356e-05
0.000218359
-0.000108202
1.07773e-05
0.000151517
-1.268e-05
0.00010302
5.33949e-05
4.23251e-05
0.000196114
-6.46017e-05
3.89119e-05
0.000277628
-0.000180322
-1.61068e-05
0.000328758
-0.000270391
-9.77559e-05
0.000330389
-0.000318355
-0.000178552
0.000273046
-0.000318406
-0.000241821
0.000166211
-0.000273737
-0.000286047
3.80448e-05
-0.000194421
-0.000319323
-7.76416e-05
-9.52083e-05
-0.000348362
-0.000158333
8.14335e-06
-0.000372036
-0.000198546
0.000102097
-0.000380764
-0.000204582
0.000176266
-0.000187141
0.000220218
-0.000418944
-0.000190804
0.000215839
-0.000320923
-9.69465e-05
0.000134939
-0.000198856
-2.16143e-06
4.00738e-05
-7.9502e-05
9.80798e-05
-6.96646e-05
8.02129e-06
0.000197031
-0.000181165
4.45711e-05
0.000278905
-0.000274226
2.9766e-05
0.000320811
-0.000329268
-1.99495e-05
0.000300396
-0.000333961
-8.36737e-05
0.000210876
-0.000286701
-0.000149292
7.22796e-05
-0.00019732
-0.000216618
-7.44072e-05
-8.51955e-05
-0.000289325
-0.000189279
2.73947e-05
-0.000364269
-0.000254677
0.00012298
-0.000429474
-0.00027413
0.000191209
-0.000469231
-0.000260811
0.000227496
-0.000226481
0.000230075
-0.000513606
-0.00022498
0.000142777
-0.000404037
-0.000136775
2.46464e-05
-0.000261946
-4.86197e-05
-9.17184e-05
-0.000111917
4.56163e-05
-0.000204322
1.93555e-05
0.000139702
-0.000300184
0.000109992
0.000219002
-0.000362013
0.000148608
0.000260442
-0.000374696
0.000136855
0.000238415
-0.000330317
8.49703e-05
0.000143273
-0.000232462
1.76224e-06
-7.12967e-07
-9.92031e-05
-0.00010804
-0.000144552
4.00065e-05
-0.000236519
-0.000246548
0.000157372
-0.000366863
-0.000295385
0.000235892
-0.000476824
-0.000301982
0.000269954
-0.000546475
-0.000282258
0.000261656
-0.000244075
0.000220357
-0.000571859
-0.000255151
4.92133e-05
-0.000451332
-0.00018746
-9.57392e-05
-0.000289918
-0.000118555
-0.000224435
-0.000110064
-4.22084e-05
-0.000331617
6.47229e-05
3.74579e-05
-0.000405702
0.000210825
0.000110032
-0.000433552
0.000306057
0.000157351
-0.00040457
0.000334372
0.000153597
-0.000313883
0.000291331
8.16628e-05
-0.000169039
0.000182706
-3.98845e-05
3.20813e-06
2.21579e-05
-0.000161428
0.000162916
-0.000166277
-0.000242954
0.00027771
-0.000351069
-0.000278807
0.00033345
-0.000501365
-0.000283173
0.000329959
-0.000595462
-0.000270527
0.000276057
-0.000241204
0.00019309
-0.000587705
-0.000275473
-4.8343e-05
-0.000459076
-0.000237481
-0.000206836
-0.00028362
-0.000195893
-0.000337086
-8.15667e-05
-0.000144518
-0.000430712
0.000126126
-8.52957e-05
-0.000478848
0.00031613
-2.3478e-05
-0.000473331
0.000460528
3.04419e-05
-0.000408249
0.000528371
5.59526e-05
-0.000280588
0.000496999
2.98735e-05
-9.93468e-05
0.000364896
-4.3796e-05
0.00010156
0.000156348
-0.000125893
0.000272204
-8.62162e-05
-0.000182726
0.000377501
-0.000316904
-0.00021119
0.00040742
-0.000498557
-0.00022385
0.000367054
-0.000609385
-0.000229625
0.000271377
-0.000220074
0.000152523
-0.000563467
-0.000277922
-0.000132044
-0.000430557
-0.000274951
-0.000289994
-0.000247422
-0.000264221
-0.000410024
-3.30671e-05
-0.000240296
-0.00048247
0.00019286
-0.000203144
-0.000502037
0.000408159
-0.000153972
-0.000465698
0.000584565
-9.6377e-05
-0.000372392
0.00068411
-4.18136e-05
-0.000221146
0.000667611
-1.24183e-05
-2.04548e-05
0.000521638
-2.03012e-05
0.000192225
0.000277347
-4.90417e-05
0.000360727
-5.64974e-06
-7.78561e-05
0.00044967
-0.000268602
-0.000103949
0.000452945
-0.000470178
-0.000132751
0.00037992
-0.000589424
-0.000164554
0.000250547
-0.000182538
0.000104886
-0.000506969
-0.000259584
-0.000187449
-0.000372259
-0.000292562
-0.000330814
-0.000186817
-0.000312572
-0.000429557
3.10539e-05
-0.000314922
-0.000475194
0.00026198
-0.000298005
-0.000466451
0.000484348
-0.000260564
-0.000404888
0.000671658
-0.000201957
-0.000293475
0.000786359
-0.000125004
-0.00013363
0.000781415
-4.38204e-05
6.65573e-05
0.000632039
1.94407e-05
0.000270466
0.000369911
5.23346e-05
0.000422371
6.5646e-05
5.45908e-05
0.000489138
-0.000213202
2.87066e-05
0.000467438
-0.000422249
-2.02415e-05
0.000369183
-0.000541761
-8.15157e-05
0.000217946
-0.000131325
5.78082e-05
-0.000426937
-0.00022277
-0.00020554
-0.000292026
-0.000289206
-0.000322468
-0.000108456
-0.00033678
-0.000391988
0.000105938
-0.000361474
-0.000409312
0.000331568
-0.000360756
-0.000377159
0.00054673
-0.000332363
-0.000300449
0.000726202
-0.000273716
-0.000184327
0.000835968
-0.000181467
-3.18587e-05
0.000831216
-5.96884e-05
0.000149092
0.000683984
6.72789e-05
0.000325762
0.000422179
0.000161034
0.000449472
0.000117573
0.000195824
0.000491456
-0.000159236
0.000170719
0.000449482
-0.000362884
0.000101695
0.000336454
-0.00047474
1.11728e-05
0.000178299
-7.1339e-05
1.8919e-05
-0.000332667
-0.0001752
-0.000185147
-0.000199039
-0.000268827
-0.000267518
-2.09141e-05
-0.000337802
-0.000304876
0.000184222
-0.000378565
-0.000297559
0.000396644
-0.000388787
-0.00025167
0.000593989
-0.000366118
-0.000173831
0.000751182
-0.000307132
-6.92064e-05
0.000837922
-0.000204462
5.96329e-05
0.000818734
-5.44943e-05
0.000205588
0.000673162
0.000119886
0.000342731
0.000426017
0.000263366
0.000432942
0.000141125
0.000327677
0.000452276
-0.000115569
0.000304935
0.000398212
-0.000300759
0.000218938
0.000283772
-0.0003972
0.000102535
0.000135714
-1.03275e-05
-6.0724e-06
-0.000234427
-0.000127193
-0.00013268
-0.000104227
-0.00023776
-0.000176959
6.47646e-05
-0.000318909
-0.0001845
0.000255888
-0.000367794
-0.000160757
0.000448779
-0.000382892
-0.000113912
0.000619866
-0.000362337
-5.05989e-05
0.000743525
-0.000301869
2.60279e-05
0.000793453
-0.000191497
0.000116123
0.000747422
-2.43742e-05
0.000215933
0.000600063
0.000177033
0.000308105
0.000376757
0.000350129
0.000365557
0.000128544
0.000434021
0.000368561
-9.08574e-05
0.000413484
0.00031367
-0.000244682
0.000315121
0.000213392
-0.000318053
0.000178762
9.32395e-05
4.17665e-05
-1.45578e-05
-0.000143876
-8.84731e-05
-5.94683e-05
-1.98559e-05
-0.000202374
-6.68199e-05
0.000136587
-0.000283935
-5.1226e-05
0.0003096
-0.000331676
-2.1924e-05
0.000477707
-0.000345036
1.22976e-05
0.000615251
-0.000322584
4.67222e-05
0.000696234
-0.000258823
8.1904e-05
0.00070024
-0.000142607
0.000122705
0.000620391
3.12929e-05
0.000171103
0.000469022
0.000237655
0.000218562
0.000274847
0.000414717
0.000247494
7.5707e-05
0.000501176
0.000242407
-9.19636e-05
0.000478533
0.000199506
-0.000202968
0.000372296
0.000129602
-0.000246748
0.000224803
5.35739e-05
7.45982e-05
-6.83382e-06
-7.38111e-05
-6.56798e-05
2.23453e-05
4.11704e-05
-0.000167318
4.60177e-05
0.000182526
-0.000236545
7.49595e-05
0.000334615
-0.000273312
9.81803e-05
0.000473751
-0.000277981
0.000107972
0.00057174
-0.000248967
0.000102845
0.000603687
-0.000179782
8.90431e-05
0.000558174
-6.07444e-05
7.77605e-05
0.000444874
0.000107722
7.6862e-05
0.000291785
0.000296655
8.50072e-05
0.000130657
0.000450518
9.21196e-05
-1.26662e-05
0.000518269
8.7732e-05
-0.000120335
0.000485141
6.88971e-05
-0.000181771
0.000374918
4.2774e-05
-0.00019295
0.000227726
2.17755e-05
7.9983e-05
1.5437e-05
-3.67381e-05
-6.12341e-05
0.000102835
6.75883e-05
-0.000135414
0.000146563
0.000192995
-0.000180259
0.000177096
0.000323097
-0.000196815
0.000183346
0.000430956
-0.000185895
0.000160136
0.000486226
-0.000145661
0.000111118
0.000467946
-7.016e-05
4.94142e-05
0.000377223
4.56402e-05
-8.1009e-06
0.000239286
0.000192936
-4.77634e-05
9.23987e-05
0.000341464
-6.76161e-05
-3.21258e-05
0.000447471
-7.16158e-05
-0.000119766
0.00047711
-6.53932e-05
-0.000169119
0.000425464
-5.13483e-05
-0.00018366
0.000315758
-2.802e-05
-0.000165624
0.000182347
6.63468e-06
5.47538e-05
5.05023e-05
-4.2302e-05
-7.30471e-05
0.00017424
5.18812e-05
-0.000108067
0.000222457
0.000163045
-0.000119559
0.000242
0.000272712
-0.000108716
0.000222681
0.000350412
-7.65071e-05
0.00016317
0.000365512
-2.18499e-05
7.36168e-05
0.000304457
5.77337e-05
-2.58501e-05
0.000181757
0.000159537
-0.000113279
3.49925e-05
0.000267827
-0.00017431
-9.45046e-05
0.000355791
-0.000204072
-0.000181059
0.000396641
-0.000203791
-0.000221191
0.000377395
-0.000176906
-0.000225776
0.000305406
-0.000127491
-0.000207364
0.000203155
-6.05441e-05
-0.000171483
9.61251e-05
1.72425e-05
3.29062e-06
9.52207e-05
-9.32485e-05
-9.541e-05
0.000228133
-6.38704e-06
-8.61952e-05
0.000263266
9.46029e-05
-6.04414e-05
0.000260604
0.000188635
-1.89262e-05
0.000210991
0.000242749
3.73801e-05
0.00011789
0.000228969
0.000106395
-1.75849e-06
0.000142608
0.000184257
-0.000121793
9.27053e-06
0.000259109
-0.000217861
-0.000128126
0.000312404
-0.000276194
-0.000231954
0.000327372
-0.000293152
-0.000285878
0.000297999
-0.000271516
-0.000295868
0.000231939
-0.000217244
-0.000278992
0.000146407
-0.00013829
-0.000249762
6.04003e-05
-4.41937e-05
-0.000212311
-1.15682e-05
5.41707e-05
-6.27966e-05
0.000142544
-0.000180693
0.00025237
-9.85731e-05
0.000260065
-2.50656e-06
0.000228658
8.3612e-05
0.000149316
0.000127521
2.94201e-05
0.000106084
-0.000107916
2.17832e-05
-0.000231158
-9.65086e-05
-0.000313993
-0.000209798
-0.000344596
-0.000289213
-0.000325364
-0.000326703
-0.00026725
-0.000332049
-0.000183751
-0.000321218
-8.70911e-05
-0.000304094
1.2455e-05
-0.000280415
0.000105649
0.000180092
-0.000222475
-0.000241722
0.000223682
-0.000129647
-0.000144985
0.000140801
-3.82658e-05
-2.79151e-05
4.63099e-05
2.73208e-05
0.000104242
-5.03954e-05
4.58949e-05
0.00023589
-0.000135866
1.20294e-05
0.000345731
-0.000198332
-6.07416e-05
0.000411838
-0.000230403
-0.000147869
0.000416991
-0.000228468
-0.000225953
0.000354847
-0.000191762
-0.000281902
0.000235669
-0.000122832
-0.000315595
8.65597e-05
-3.01865e-05
-0.000335336
-5.807e-05
7.10979e-05
-0.000347699
-0.000171676
0.000162672
-0.000351785
-0.000243317
0.000229071
-0.00033889
-0.000273444
0.00026067
-0.000265427
0.00025359
-0.000302177
-0.000289418
0.000188476
-0.000203727
-0.000178974
7.04782e-05
-9.53282e-05
-5.07721e-05
-4.54678e-05
-1.33848e-06
9.11797e-05
-0.000150592
5.48871e-05
0.00022992
-0.00023142
6.18241e-05
0.000341041
-0.000276474
2.52099e-05
0.000398459
-0.000279275
-3.63147e-05
0.000382345
-0.000237791
-0.000102765
0.000289174
-0.000154579
-0.000163527
0.000138559
-3.94469e-05
-0.000219762
-3.05549e-05
8.81537e-05
-0.000276657
-0.000176868
0.000203088
-0.000332486
-0.000277518
0.000284651
-0.000376355
-0.000330178
0.000321939
-0.000393592
-0.000342017
0.000313306
-0.000316944
0.000265237
-0.000369854
-0.000335045
0.000115983
-0.000262579
-0.00022782
-3.37837e-05
-0.000134296
-0.000104908
-0.000165865
-7.08844e-06
3.16774e-05
-0.000272027
9.62989e-05
0.000166616
-0.000340267
0.000158649
0.000277035
-0.000360357
0.000173289
0.000336065
-0.000326942
0.000145559
0.000319721
-0.000239964
8.75809e-05
0.000220972
-0.000106282
8.44935e-06
6.28531e-05
5.56345e-05
-8.97099e-05
-0.00010665
0.000214261
-0.000201128
-0.000243632
0.000335554
-0.000311067
-0.000330135
0.000398449
-0.000398416
-0.000371159
0.000398284
-0.00044424
-0.000376909
0.000342372
-0.00034788
0.000249328
-0.000414128
-0.00037134
1.56678e-05
-0.00029902
-0.000281253
-0.000157415
-0.00015279
-0.000177007
-0.000298566
5.35689e-06
-5.89605e-05
-0.000399126
0.000154736
6.10456e-05
-0.00044951
0.000274543
0.000165664
-0.000441988
0.00034582
0.00023262
-0.000372402
0.000356745
0.000236137
-0.000241224
0.000306803
0.000160195
-5.8319e-05
0.000202447
2.19385e-05
0.000148479
5.47466e-05
-0.000129667
0.000333633
-0.000116193
-0.000249664
0.000454682
-0.000280288
-0.00032518
0.00049259
-0.00040748
-0.000364612
0.000450603
-0.000477002
-0.000376798
0.000345467
-0.000356205
0.000208382
-0.000431786
-0.000390595
-9.60523e-05
-0.000311324
-0.000327239
-0.000281312
-0.000152217
-0.000250672
-0.000422528
2.86274e-05
-0.000159824
-0.000510693
0.000212673
-6.24789e-05
-0.000539369
0.00037853
3.07193e-05
-0.000504243
0.000500508
0.000105385
-0.000402992
0.000551795
0.000139624
-0.000235362
0.000515001
0.000109497
-1.18547e-05
0.000388947
1.65469e-05
0.000233006
0.000193727
-9.92423e-05
0.000437
-3.19726e-05
-0.000197287
0.000550823
-0.000242596
-0.000266839
0.000559703
-0.000401343
-0.00031434
0.000475529
-0.000487744
-0.000343186
0.000324166
-0.000341067
0.000148391
-0.000424337
-0.000386868
-0.000201115
-0.000300719
-0.000356358
-0.000384493
-0.000134081
-0.00031229
-0.000515043
5.97349e-05
-0.000252352
-0.000583757
0.000263295
-0.000180358
-0.000587719
0.000456037
-0.000101444
-0.000526276
0.000611625
-2.26288e-05
-0.000399967
0.000696425
4.19091e-05
-0.000208231
0.000676728
6.74173e-05
4.13227e-05
0.000538866
3.88961e-05
0.000307737
0.000307876
-2.56171e-05
0.000518093
4.04811e-05
-9.73472e-05
0.000617125
-0.000203514
-0.000165158
0.000595258
-0.000382738
-0.00022773
0.000472533
-0.000478336
-0.000279868
0.000282827
-0.000303075
7.8241e-05
-0.000395087
-0.000359752
-0.000281063
-0.000269109
-0.000364926
-0.000448223
-9.9109e-05
-0.00035447
-0.000557377
9.91903e-05
-0.000324829
-0.000601017
0.000308405
-0.000276438
-0.000579586
0.000508691
-0.000210744
-0.000495874
0.000675818
-0.000130232
-0.000352999
0.000776891
-4.16242e-05
-0.000151169
0.000770446
3.65577e-05
0.000103861
0.000630216
7.88634e-05
0.000370729
0.000380705
7.50938e-05
0.00057117
9.07502e-05
3.35649e-05
0.000648181
-0.000169776
-3.40131e-05
0.000596819
-0.000356684
-0.000114948
0.00044331
-0.000453249
-0.000193349
0.000227992
-0.000245697
8.76534e-06
-0.000347289
-0.000314602
-0.000321934
-0.000219034
-0.000354824
-0.000460825
-4.91211e-05
-0.000375408
-0.000540963
0.000146428
-0.000371755
-0.000557935
0.000349977
-0.000342076
-0.00051507
0.000542111
-0.000285906
-0.00041742
0.000700676
-0.000203721
-0.000269405
0.000796605
-9.72088e-05
-7.2203e-05
0.000790277
2.33433e-05
0.000168635
0.000651365
0.000129742
0.000413796
0.000400979
0.000186342
0.000588609
0.000110215
0.000176653
0.000639133
-0.000147755
0.000110155
0.000563284
-0.000328415
1.1161e-05
0.000391005
-0.000417132
-9.34907e-05
0.000167157
-0.000176272
-4.91063e-05
-0.00028498
-0.000260851
-0.000317602
-0.0001551
-0.000331111
-0.00042111
1.10756e-05
-0.000376221
-0.000470239
0.000197308
-0.000391162
-0.000464385
0.000385922
-0.000373408
-0.000408951
0.000557758
-0.000321994
-0.000309578
0.000691901
-0.000236683
-0.000170387
0.000763405
-0.000116222
7.14185e-06
0.00074065
3.50064e-05
0.00021668
0.000600921
0.000189374
0.000422829
0.000363914
0.000294866
0.000561425
9.36696e-05
0.000313587
0.000585588
-0.000142169
0.000249525
0.000494681
-0.000302281
0.00013519
0.000319854
-0.000374011
6.42878e-06
0.000107525
-0.000105392
-8.72798e-05
-0.000214309
-0.000208897
-0.000271402
-8.48629e-05
-0.000299268
-0.000338249
7.33186e-05
-0.000358635
-0.000360268
0.000244274
-0.00038257
-0.000340304
0.000410216
-0.000369006
-0.000284256
0.000551956
-0.000317397
-0.000196936
0.000649354
-0.0002271
-8.09538e-05
0.000681673
-9.53586e-05
6.29414e-05
0.000629373
7.53818e-05
0.000227858
0.000485189
0.00025705
0.000384613
0.000271524
0.000391047
0.00048304
3.99027e-05
0.000427912
0.000485857
-0.00015562
0.000365525
0.000393193
-0.000281438
0.000239286
0.000235115
-0.000327671
9.09277e-05
5.49736e-05
-4.50618e-05
-0.000101483
-0.00014402
-0.0001673
-0.000194189
-1.82751e-05
-0.000263651
-0.000228183
0.000127591
-0.000324255
-0.000231472
0.000278117
-0.000346372
-0.000208648
0.000415004
-0.000329078
-0.000164517
0.000518543
-0.000272392
-0.000101823
0.000569732
-0.000175412
-2.09725e-05
0.000553826
-3.54083e-05
7.86611e-05
0.000466112
0.000142886
0.000191313
0.000317117
0.000329332
0.000295276
0.000133834
0.000466461
0.000355362
-4.60878e-05
0.00050487
0.000345371
-0.000187242
0.000439607
0.000266578
-0.00026794
0.000304836
0.00014475
-0.000282429
0.00014428
1.47102e-05
-6.03438e-06
-9.1146e-05
-8.48241e-05
-0.000141353
-9.97791e-05
3.35673e-05
-0.000227225
-0.000108799
0.000163693
-0.000275172
-0.000104249
0.000290144
-0.000284527
-9.01158e-05
0.000393391
-0.000255757
-6.8596e-05
0.000452847
-0.000189507
-3.94968e-05
0.000452435
-8.50613e-05
-8.95456e-07
0.000386511
5.77337e-05
5.05427e-05
0.000266557
0.000229093
0.000110609
0.000118201
0.000396925
0.000165769
-2.90602e-05
0.000510869
0.000194974
-0.000150903
0.000531216
0.000183228
-0.000231172
0.000455685
0.000133088
-0.000262187
0.000316092
6.25329e-05
-0.000243652
0.000154168
-6.64712e-06
4.37522e-06
-5.76237e-05
-4.77768e-05
-0.000133019
-1.04948e-06
6.06777e-05
-0.00019251
3.39365e-06
0.000173557
-0.000214991
4.03516e-06
0.000274648
-0.000201745
-5.26735e-07
0.000342417
-0.000154702
-8.68736e-06
0.000356222
-7.55507e-05
-1.66439e-05
0.000305367
3.44974e-05
-1.92895e-05
0.000196746
0.000170741
-1.24871e-05
5.65109e-05
0.000317758
3.8072e-06
-8.10172e-05
0.00044407
2.27672e-05
-0.000188423
0.000511793
3.48649e-05
-0.000253748
0.000497032
3.41171e-05
-0.000277207
0.000405139
2.2656e-05
-0.000263595
0.000266057
8.40395e-06
-0.000217619
0.000116056
-1.22897e-06
-1.58934e-05
-3.52016e-06
-4.18931e-05
-0.00014138
9.07205e-05
5.62121e-05
-0.000162469
9.4311e-05
0.000153232
-0.000150034
8.00234e-05
0.000231112
-0.000106848
4.99031e-05
0.000266225
-3.65191e-05
9.87415e-06
0.000239459
5.65595e-05
-3.17272e-05
0.000148385
0.000167071
-6.73495e-05
1.28968e-05
0.000284053
-9.11028e-05
-0.000130848
0.000387964
-0.000100771
-0.000246916
0.000453608
-9.75418e-05
-0.00031475
0.00045983
-8.39947e-05
-0.000333691
0.00040128
-6.22134e-05
-0.000315264
0.000292682
-3.34609e-05
-0.000272
0.000161789
4.60732e-07
-0.000210941
3.65161e-05
3.57226e-05
-6.31815e-05
6.53417e-05
-7.05335e-05
-0.000163403
0.000163539
1.9071e-05
-0.000140756
0.000151949
0.000104529
-8.93533e-05
0.000114465
0.00016556
-1.2977e-05
5.60892e-05
0.000177186
8.22944e-05
-1.25493e-05
0.000123623
0.000187558
-7.91941e-05
1.11769e-05
0.000290659
-0.000132935
-0.00013034
0.00037454
-0.000166831
-0.000261571
0.000420592
-0.000177593
-0.000350899
0.00041505
-0.000165266
-0.000386906
0.000356256
-0.000131934
-0.000377629
0.000256552
-8.17935e-05
-0.000340016
0.000137992
-2.12127e-05
-0.000288187
2.38439e-05
4.19225e-05
-0.000227586
-6.78461e-05
9.79315e-05
-0.000127665
0.000136592
-0.000126383
0.0002029
-4.33528e-05
0.000165993
3.54547e-05
0.000102238
8.87276e-05
1.70287e-05
9.25468e-05
-7.5305e-05
3.5539e-05
-0.000157205
-7.07214e-05
-0.000213294
-0.000195314
-0.000234612
-0.000302993
-0.00021973
-0.000370298
-0.000173633
-0.000392642
-0.000105752
-0.000380622
-2.77139e-05
-0.00034989
4.96802e-05
-0.000310325
0.000117163
-0.000263613
0.000167235
0.000192202
-7.61874e-05
-0.000290361
0.000187141
-7.09905e-07
-0.000178412
8.10676e-05
5.20198e-05
-3.20555e-05
-2.36408e-05
6.56793e-05
0.000131364
-0.000107208
3.28167e-05
0.00028684
-0.00015871
-3.86191e-05
0.000408968
-0.000177606
-0.000129084
0.000477437
-0.000168404
-0.000216136
0.00047931
-0.000134463
-0.000282001
0.000411423
-7.63431e-05
-0.000318077
0.000283817
5.16659e-06
-0.000326311
0.000120544
0.000103688
-0.000315832
-4.55111e-05
0.000203734
-0.00029518
-0.00018523
0.000284512
-0.000266304
-0.00028213
0.000327989
-0.000224435
-0.000330648
0.000323947
-0.000328589
0.000269562
-0.000130446
-0.000340216
0.000160059
-4.88281e-05
-0.000213187
2.36345e-05
2.60817e-05
-5.35589e-05
-9.88741e-05
7.54426e-05
0.000121768
-0.000190357
8.50306e-05
0.000285528
-0.000239696
5.40378e-05
0.000408686
-0.000245199
-4.85154e-06
0.00046735
-0.000210299
-7.2082e-05
0.00044756
-0.00013881
-0.000130668
0.000349597
-3.41676e-05
-0.000173128
0.00019112
9.57103e-05
-0.000202572
6.27705e-06
0.000231864
-0.000226995
-0.000165123
0.000347124
-0.000248467
-0.000295609
0.000416502
-0.000259978
-0.000375985
0.000427306
-0.000250054
-0.000407008
0.000379743
-0.000387699
0.00028301
-0.000180901
-0.000385257
8.96811e-05
-9.22633e-05
-0.000259851
-7.57572e-05
4.43426e-06
-0.000104436
-0.000211685
9.17944e-05
6.64523e-05
-0.000304071
0.000153074
0.000227835
-0.000343854
0.000178444
0.000351572
-0.000328613
0.000167789
0.000412058
-0.000260995
0.000129846
0.000391312
-0.000145773
7.67792e-05
0.000286794
9.58823e-06
1.60764e-05
0.00011895
0.000188508
-5.28861e-05
-7.00728e-05
0.000359573
-0.000129526
-0.000236543
0.000483613
-0.000204131
-0.000355821
0.000533266
-0.00025943
-0.000425318
0.000502915
-0.00027904
-0.000449265
0.000404239
-0.000425128