/*--------------------------------*- C++ -*----------------------------------*\
| =========                 |                                                 |
| \\      /  F ield         | OpenFOAM: The Open Source CFD Toolbox           |
|  \\    /   O peration     | Version:  3.0.0                                 |
|   \\  /    A nd           | Web:      www.OpenFOAM.org                      |
|    \\/     M anipulation  |                                                 |
\*---------------------------------------------------------------------------*/
FoamFile
{
    version     2.0;
    format      ascii;
    class       volVectorField;
    location    "2.25";
    object      U;
}
// * * * * * * * * * * * * * * * * * * * * * * * * * * * * * * * * * * * * * //

dimensions      [0 1 -1 0 0 0 0];

internalField   nonuniform List<vector> 
4096
(
(-0.0869015 -0.00942284 0.0734369)
(-0.0696596 0.00514646 0.0859243)
(-0.0486903 0.0167692 0.0856318)
(-0.0228687 0.0267917 0.0664364)
(-0.000618195 0.0366179 0.0279411)
(0.00998851 0.0470106 -0.0230232)
(0.00552823 0.0562729 -0.0738722)
(-0.0105864 0.0598061 -0.11276)
(-0.030513 0.053061 -0.133303)
(-0.0474435 0.0355385 -0.134995)
(-0.0590918 0.0120897 -0.120896)
(-0.0671194 -0.0097479 -0.095391)
(-0.0741831 -0.0241523 -0.0628515)
(-0.0816009 -0.0292929 -0.0270885)
(-0.088635 -0.0269269 0.0085019)
(-0.0869718 -0.0211151 0.0387639)
(-0.128936 -0.0130945 0.0628514)
(-0.106755 0.00686168 0.0623698)
(-0.0834555 0.0228888 0.0518219)
(-0.0529959 0.036847 0.0270205)
(-0.0238992 0.049701 -0.0107095)
(-0.00376187 0.0609988 -0.0545171)
(0.00346084 0.0671635 -0.0938761)
(-0.0010313 0.0622808 -0.119317)
(-0.0122813 0.0428797 -0.126335)
(-0.0259702 0.0124534 -0.116179)
(-0.0411233 -0.0193763 -0.0938156)
(-0.0586346 -0.0427734 -0.0649305)
(-0.0784026 -0.0531776 -0.0340628)
(-0.0985853 -0.0516295 -0.00438021)
(-0.11663 -0.0423227 0.0217699)
(-0.119283 -0.0308031 0.040408)
(-0.166958 -0.0156934 0.0448566)
(-0.138192 0.00437679 0.0325234)
(-0.111377 0.0203824 0.0135807)
(-0.0742118 0.0344466 -0.0139174)
(-0.035256 0.0473198 -0.0473687)
(-0.00179694 0.0578486 -0.0806844)
(0.0208847 0.0616437 -0.105787)
(0.0302475 0.0522129 -0.115988)
(0.0269655 0.0267751 -0.109067)
(0.0128262 -0.00864162 -0.0883335)
(-0.010963 -0.0416886 -0.0603196)
(-0.0424329 -0.0621898 -0.0310738)
(-0.0775898 -0.0674897 -0.00458078)
(-0.111626 -0.0608931 0.0168816)
(-0.140882 -0.0478007 0.0320314)
(-0.146992 -0.0338608 0.0389023)
(-0.193534 -0.0186921 0.0227766)
(-0.158536 -0.0032901 0.00163257)
(-0.127788 0.00881932 -0.0225388)
(-0.0835052 0.0197082 -0.0494481)
(-0.0343084 0.0301338 -0.0760669)
(0.0126386 0.0391476 -0.0975281)
(0.0508007 0.0428172 -0.108455)
(0.0737257 0.0345112 -0.104741)
(0.0771073 0.0107274 -0.0861689)
(0.0601125 -0.0221477 -0.0577831)
(0.0252965 -0.0508496 -0.0270055)
(-0.0212483 -0.0658863 0.00041125)
(-0.0714332 -0.0664973 0.0212905)
(-0.118041 -0.0573779 0.0340458)
(-0.156882 -0.0441095 0.0383695)
(-0.165627 -0.0310855 0.0347941)
(-0.204084 -0.0222092 0.00203321)
(-0.165037 -0.0148291 -0.0239399)
(-0.130751 -0.00932749 -0.0494772)
(-0.0807862 -0.00389268 -0.072695)
(-0.0237537 0.00229088 -0.090808)
(0.0332859 0.00902865 -0.100671)
(0.0833117 0.0139097 -0.0994535)
(0.117513 0.0113304 -0.0852633)
(0.126983 -0.00355627 -0.0592949)
(0.107362 -0.0267004 -0.0274755)
(0.0623837 -0.0464324 0.00278264)
(0.00257582 -0.0546886 0.0266103)
(-0.0600816 -0.0519428 0.0414777)
(-0.116531 -0.0431466 0.0462029)
(-0.162202 -0.0331179 0.0411526)
(-0.173025 -0.0240032 0.029303)
(-0.19785 -0.0246417 -0.0123095)
(-0.157827 -0.0268842 -0.0389589)
(-0.120934 -0.0292084 -0.0619289)
(-0.0677256 -0.0302108 -0.0787903)
(-0.00660207 -0.0289932 -0.087685)
(0.0554784 -0.0250216 -0.0873067)
(0.111654 -0.0189605 -0.0770926)
(0.152854 -0.0141792 -0.0570211)
(0.167586 -0.0157604 -0.029103)
(0.147496 -0.0236209 0.00106193)
(0.0959297 -0.0306863 0.0273568)
(0.0268534 -0.0314472 0.0461244)
(-0.0444174 -0.0268178 0.0551513)
(-0.107229 -0.0208646 0.053219)
(-0.156465 -0.0167138 0.0411958)
(-0.168959 -0.0138995 0.0237553)
(-0.177352 -0.0240069 -0.0173131)
(-0.139014 -0.0360118 -0.0408411)
(-0.100702 -0.0461737 -0.0578997)
(-0.0467929 -0.053513 -0.066729)
(0.0148057 -0.0570706 -0.066874)
(0.0772787 -0.0558401 -0.0587583)
(0.134073 -0.0492315 -0.0435009)
(0.176976 -0.0380921 -0.0224288)
(0.194566 -0.0258452 0.00210998)
(0.176014 -0.01576 0.0259758)
(0.12255 -0.00756835 0.045407)
(0.0493165 -0.000183593 0.0581181)
(-0.0260747 0.00528548 0.0618874)
(-0.0914974 0.00671371 0.055232)
(-0.141088 0.00339085 0.039221)
(-0.154844 -0.00169308 0.0192466)
(-0.146872 -0.0193496 -0.0129925)
(-0.111871 -0.0402782 -0.0300837)
(-0.0733555 -0.0575117 -0.0389916)
(-0.020892 -0.0704149 -0.0395075)
(0.0383832 -0.0780244 -0.0327762)
(0.0979104 -0.079145 -0.0206182)
(0.151354 -0.072521 -0.00504054)
(0.191382 -0.056979 0.0122284)
(0.208165 -0.033237 0.0292788)
(0.191234 -0.00585987 0.0439582)
(0.139813 0.0184307 0.0551118)
(0.0675544 0.0345726 0.061718)
(-0.00731311 0.0405932 0.0613751)
(-0.0715731 0.0368311 0.0522726)
(-0.118626 0.0254842 0.0355593)
(-0.132918 0.0117706 0.0164091)
(-0.111077 -0.0114809 -0.00161655)
(-0.0801126 -0.0396629 -0.00967327)
(-0.0426105 -0.0626261 -0.00952036)
(0.00678046 -0.0798782 -0.00282274)
(0.0618571 -0.0905566 0.00775852)
(0.11637 -0.0934998 0.0194926)
(0.164019 -0.0871305 0.0303508)
(0.197931 -0.0688575 0.0393724)
(0.210238 -0.0368898 0.0461845)
(0.193173 0.00450565 0.0509085)
(0.145764 0.0434206 0.054278)
(0.0788528 0.0683152 0.0558505)
(0.00906658 0.0752075 0.0531119)
(-0.0503181 0.0665413 0.0441412)
(-0.0922463 0.0475435 0.0301264)
(-0.10582 0.0253273 0.0153839)
(-0.0745025 -0.00245326 0.0134304)
(-0.0476435 -0.0354588 0.016047)
(-0.0123374 -0.0622496 0.0249808)
(0.0328743 -0.0822597 0.0368117)
(0.0826502 -0.0948619 0.0476645)
(0.130921 -0.0990363 0.0544708)
(0.17117 -0.0929526 0.0560176)
(0.196705 -0.0729853 0.053246)
(0.20159 -0.0357193 0.0483321)
(0.181936 0.0150678 0.0436559)
(0.138668 0.0647536 0.0408538)
(0.0801668 0.0969192 0.039299)
(0.0197009 0.104977 0.0364173)
(-0.0310705 0.0924222 0.0304327)
(-0.0654342 0.0669713 0.0225282)
(-0.0765146 0.0372928 0.0158371)
(-0.041483 0.00531108 0.0289435)
(-0.0184854 -0.0294289 0.042635)
(0.0136114 -0.0575071 0.0591531)
(0.0540398 -0.0783628 0.0735278)
(0.0979643 -0.091576 0.0811576)
(0.139168 -0.0962606 0.0791758)
(0.170653 -0.0902262 0.0679859)
(0.18598 -0.0690779 0.0513331)
(0.181375 -0.0289176 0.034403)
(0.157137 0.0262423 0.0213944)
(0.117246 0.0808966 0.014136)
(0.0688487 0.116813 0.0115004)
(0.0212223 0.125494 0.0109314)
(-0.0174042 0.110321 0.0109446)
(-0.0419542 0.0804561 0.01244)
(-0.0485269 0.0455027 0.0171424)
(-0.0162287 0.00983371 0.0429031)
(0.0033501 -0.0230432 0.0666381)
(0.0316496 -0.0494206 0.0886238)
(0.0671405 -0.0689146 0.102856)
(0.105057 -0.0812414 0.104233)
(0.138508 -0.0854915 0.0906847)
(0.159926 -0.078966 0.0649936)
(0.163575 -0.0568891 0.0342002)
(0.148397 -0.0160874 0.0062093)
(0.118797 0.0383459 -0.0137424)
(0.0819282 0.0912326 -0.02403)
(0.044503 0.125487 -0.0259798)
(0.011886 0.132689 -0.0218743)
(-0.0121442 0.115855 -0.0130717)
(-0.0254325 0.084313 0.000495514)
(-0.0260498 0.0477065 0.0188152)
(-0.00255099 0.010097 0.054744)
(0.0141252 -0.0170894 0.0857869)
(0.0387438 -0.0386743 0.110418)
(0.0697081 -0.0544941 0.121704)
(0.101729 -0.0643237 0.114449)
(0.126924 -0.0669567 0.0879885)
(0.13738 -0.0591789 0.0480555)
(0.128813 -0.0365492 0.00487733)
(0.103556 0.00224784 -0.0317942)
(0.0698052 0.0506469 -0.0564367)
(0.0368669 0.0949017 -0.0678078)
(0.0107452 0.121304 -0.0671104)
(-0.00668401 0.123807 -0.0562625)
(-0.0161401 0.105781 -0.036968)
(-0.0187115 0.0757724 -0.0105747)
(-0.0134911 0.0422771 0.0209712)
(-0.00324765 0.00631102 0.0647222)
(0.0112614 -0.0116943 0.0987832)
(0.0330446 -0.0257492 0.122417)
(0.0603753 -0.0358675 0.127996)
(0.0869875 -0.041667 0.110678)
(0.104058 -0.0414421 0.0717808)
(0.103932 -0.0318349 0.0201375)
(0.08463 -0.00981103 -0.0315329)
(0.0521419 0.0233323 -0.0727249)
(0.0174798 0.0600393 -0.0983234)
(-0.00954061 0.0894128 -0.107547)
(-0.0247028 0.102858 -0.101652)
(-0.0294263 0.0982969 -0.0827318)
(-0.0278377 0.0800015 -0.0533849)
(-0.0231045 0.0550004 -0.0164766)
(-0.0142684 0.0293083 0.0244025)
(-0.01925 0.000196404 0.0726183)
(-0.00573331 -0.00638848 0.104415)
(0.014503 -0.0112621 0.123039)
(0.0394857 -0.014398 0.120571)
(0.0618311 -0.0150523 0.093114)
(0.0723013 -0.0111508 0.0442955)
(0.0643433 7.07088e-06 -0.0144091)
(0.0387291 0.0189746 -0.0688968)
(0.00435036 0.0419148 -0.108821)
(-0.0268009 0.061794 -0.130008)
(-0.0464047 0.0722382 -0.132754)
(-0.0530187 0.0707957 -0.11931)
(-0.0505712 0.059561 -0.0927167)
(-0.044527 0.0432159 -0.0564717)
(-0.0381188 0.0263235 -0.0142575)
(-0.0291485 0.0115051 0.0293747)
(-0.0486941 -0.00486167 0.0765159)
(-0.0346408 0.000207358 0.101049)
(-0.0147382 0.00446531 0.11133)
(0.00948159 0.0084987 0.0996138)
(0.0297955 0.0138164 0.0635102)
(0.0373926 0.0224675 0.00872787)
(0.0274418 0.0350562 -0.0516335)
(0.00277158 0.0482875 -0.102909)
(-0.0269493 0.0562572 -0.135268)
(-0.0512474 0.0549191 -0.146217)
(-0.0646933 0.044841 -0.138423)
(-0.0681828 0.0300907 -0.116407)
(-0.0662334 0.0154007 -0.0844387)
(-0.063295 0.00408283 -0.0461643)
(-0.0610682 -0.0027361 -0.00488177)
(-0.0549998 -0.00607951 0.0345144)
(-0.091405 -0.0354219 0.0702039)
(-0.0671244 -0.0173047 0.06722)
(-0.0415825 0.00213698 0.0545772)
(-0.0139232 0.0234135 0.0298556)
(0.00709289 0.0453614 -0.00433096)
(0.0140929 0.0653579 -0.0410573)
(0.00546577 0.079595 -0.0719439)
(-0.0139264 0.0837857 -0.0910156)
(-0.0361172 0.0750645 -0.0962483)
(-0.0548812 0.0540831 -0.0886229)
(-0.0682113 0.0257186 -0.07084)
(-0.0776659 -0.00273473 -0.0464078)
(-0.0856308 -0.0250914 -0.0188807)
(-0.0929997 -0.0384684 0.00860405)
(-0.0987409 -0.0432712 0.0332571)
(-0.0950751 -0.0416767 0.0511877)
(-0.123118 -0.0441376 0.0586978)
(-0.0950538 -0.0206517 0.0439513)
(-0.0671954 0.00347769 0.0231246)
(-0.034748 0.0291519 -0.00499472)
(-0.00648307 0.0546256 -0.0371521)
(0.0101622 0.076009 -0.0671184)
(0.0123205 0.0876465 -0.0881334)
(0.00269301 0.0841376 -0.0957113)
(-0.0127686 0.063633 -0.0889458)
(-0.029376 0.0303049 -0.0702775)
(-0.0461372 -0.00655557 -0.0444123)
(-0.0642582 -0.0371233 -0.0164756)
(-0.0839274 -0.0560915 0.00954478)
(-0.103118 -0.0633364 0.0310292)
(-0.118903 -0.0616333 0.046323)
(-0.119362 -0.054111 0.0533695)
(-0.150549 -0.0532803 0.039782)
(-0.11761 -0.0289562 0.0147188)
(-0.0864157 -0.00450353 -0.0123494)
(-0.0477358 0.0213566 -0.0414072)
(-0.00997643 0.0468332 -0.0690098)
(0.0196297 0.0677493 -0.0899929)
(0.0364599 0.0778733 -0.0993217)
(0.039415 0.0710164 -0.0940242)
(0.030829 0.0455064 -0.0745497)
(0.0134598 0.00751617 -0.0452096)
(-0.0116152 -0.0309856 -0.0128614)
(-0.0432968 -0.0594154 0.0162774)
(-0.07805 -0.0740098 0.0383374)
(-0.110599 -0.0768031 0.0515949)
(-0.136554 -0.0717698 0.055785)
(-0.140228 -0.0615901 0.0514922)
(-0.167912 -0.0619871 0.0165934)
(-0.131041 -0.0412455 -0.0158458)
(-0.0965302 -0.0203828 -0.0464782)
(-0.0518145 0.00217271 -0.0740756)
(-0.00478283 0.0250389 -0.0955159)
(0.0378033 0.0448697 -0.106939)
(0.0699667 0.0560723 -0.104946)
(0.0865123 0.0517327 -0.0876891)
(0.084893 0.0285916 -0.0566837)
(0.0652346 -0.0072157 -0.018214)
(0.0293689 -0.0423664 0.01873)
(-0.0177322 -0.0662993 0.0471536)
(-0.0679114 -0.0769231 0.0638022)
(-0.112937 -0.0777292 0.067995)
(-0.147481 -0.0728506 0.0608569)
(-0.153481 -0.0634355 0.0460448)
(-0.172952 -0.0690613 -0.00645047)
(-0.134191 -0.0550193 -0.0426852)
(-0.0970655 -0.0404528 -0.073848)
(-0.0478771 -0.0237122 -0.0977933)
(0.0060499 -0.00559026 -0.112078)
(0.0585018 0.0119365 -0.114295)
(0.103185 0.0251294 -0.102584)
(0.132358 0.0276865 -0.0758976)
(0.138403 0.0140612 -0.0362694)
(0.117119 -0.0124438 0.0084024)
(0.0708366 -0.0395981 0.0472886)
(0.00936519 -0.0576429 0.0732023)
(-0.0542721 -0.065626 0.0837001)
(-0.109337 -0.0672928 0.0790284)
(-0.149961 -0.0658606 0.0616294)
(-0.157648 -0.0603247 0.037977)
(-0.166392 -0.0723872 -0.0250971)
(-0.127772 -0.0668715 -0.0613756)
(-0.0889585 -0.0600349 -0.0899409)
(-0.0372744 -0.0503143 -0.108277)
(0.0204385 -0.0379462 -0.114867)
(0.0783325 -0.0236702 -0.108737)
(0.130413 -0.00914152 -0.0894763)
(0.168555 0.00146721 -0.056836)
(0.181912 0.00176921 -0.012997)
(0.161028 -0.00948116 0.033425)
(0.107238 -0.0244786 0.0708633)
(0.0348295 -0.0357171 0.0925175)
(-0.0386362 -0.0425292 0.0966773)
(-0.100403 -0.0475001 0.0842458)
(-0.144277 -0.0519851 0.0587137)
(-0.153231 -0.0527362 0.0285599)
(-0.150618 -0.0703413 -0.0360147)
(-0.113518 -0.0741351 -0.0688412)
(-0.0737544 -0.075416 -0.0919885)
(-0.0213088 -0.0728197 -0.103318)
(0.0374207 -0.0661075 -0.102397)
(0.0967343 -0.0551804 -0.0895263)
(0.150897 -0.0402353 -0.0654573)
(0.192496 -0.0229454 -0.0307544)
(0.210217 -0.00822972 0.0122508)
(0.191005 -0.00104806 0.0553262)
(0.133882 -0.000799209 0.0877719)
(0.0555745 -0.00437136 0.103746)
(-0.0230433 -0.0109733 0.101971)
(-0.0877071 -0.0207919 0.0836643)
(-0.13201 -0.0325933 0.0529892)
(-0.141721 -0.0411473 0.0193525)
(-0.128436 -0.0628593 -0.0376524)
(-0.0934285 -0.0757881 -0.0640026)
(-0.0533287 -0.0847478 -0.0796819)
(-0.00152585 -0.0885704 -0.0836155)
(0.056029 -0.0866768 -0.0764978)
(0.113681 -0.0785336 -0.0596134)
(0.165722 -0.0636141 -0.034376)
(0.205375 -0.0416662 -0.00183675)
(0.222553 -0.0149225 0.0356121)
(0.204131 0.0102539 0.0710525)
(0.147463 0.0268808 0.0959239)
(0.0688613 0.0316966 0.105673)
(-0.00974921 0.025143 0.0991265)
(-0.0733347 0.0099988 0.0774985)
(-0.115357 -0.00948497 0.0453282)
(-0.125013 -0.0264817 0.0118586)
(-0.102569 -0.0513889 -0.030374)
(-0.0697589 -0.0723534 -0.0479942)
(-0.03 -0.0877903 -0.0553048)
(0.019954 -0.0966845 -0.0526879)
(0.0746022 -0.0983537 -0.0418723)
(0.128286 -0.09215 -0.0247438)
(0.175122 -0.0772646 -0.00278889)
(0.208542 -0.0522034 0.0231146)
(0.220179 -0.0167311 0.0511399)
(0.200023 0.0230452 0.0763617)
(0.146109 0.0544967 0.0928681)
(0.0723624 0.0676673 0.0971107)
(-0.00104696 0.0615678 0.0877745)
(-0.0595345 0.0415653 0.0659941)
(-0.0966606 0.0148802 0.036408)
(-0.105006 -0.0103685 0.00719252)
(-0.0757675 -0.0384186 -0.0162108)
(-0.0451582 -0.0652985 -0.0238404)
(-0.00659561 -0.0852172 -0.0231073)
(0.0404144 -0.0973173 -0.0158883)
(0.0907492 -0.101059 -0.00470475)
(0.138641 -0.0958825 0.00839809)
(0.177829 -0.0808081 0.0224779)
(0.201758 -0.0535168 0.0376524)
(0.204035 -0.0123149 0.053571)
(0.179515 0.037101 0.0677753)
(0.129182 0.0791736 0.0766392)
(0.0642623 0.0991158 0.0771477)
(0.000861569 0.093815 0.0677176)
(-0.048569 0.070026 0.0494097)
(-0.078261 0.0373113 0.0266314)
(-0.0836818 0.00485929 0.00578051)
(-0.0510376 -0.0266755 0.00189093)
(-0.0226948 -0.0563601 0.00436697)
(0.0136833 -0.0780141 0.0117516)
(0.0568061 -0.0910642 0.0208926)
(0.101717 -0.095231 0.0288506)
(0.142279 -0.0901038 0.0339046)
(0.171683 -0.0744337 0.0363273)
(0.183643 -0.0453777 0.038046)
(0.174343 -0.00106015 0.0408342)
(0.144013 0.0525038 0.0445603)
(0.0974776 0.0990725 0.0472004)
(0.0439385 0.122228 0.046108)
(-0.00557511 0.117237 0.0395659)
(-0.0424357 0.090895 0.0284618)
(-0.0624916 0.054012 0.0163929)
(-0.0633885 0.0164789 0.0074217)
(-0.0316652 -0.018391 0.0210695)
(-0.00568217 -0.0470256 0.0324627)
(0.0276564 -0.0671807 0.0441848)
(0.0662264 -0.0786731 0.0522635)
(0.104923 -0.0814962 0.0537037)
(0.136875 -0.0752799 0.0477035)
(0.154748 -0.0584302 0.03644)
(0.153248 -0.0280755 0.0241942)
(0.132019 0.0166143 0.0148054)
(0.0963313 0.0686629 0.00972772)
(0.0542325 0.11273 0.00793724)
(0.0134134 0.133892 0.00728196)
(-0.0200354 0.127425 0.00631841)
(-0.0422092 0.0995626 0.00551153)
(-0.0514763 0.0611008 0.00682149)
(-0.046969 0.0219192 0.0116711)
(-0.0209056 -0.0148283 0.0392246)
(0.00270702 -0.0382878 0.0568187)
(0.0326205 -0.0536405 0.0698512)
(0.0664729 -0.061049 0.0738941)
(0.0986039 -0.060691 0.0663687)
(0.121172 -0.0521001 0.0480249)
(0.126698 -0.0335274 0.023488)
(0.111968 -0.00287985 -0.000668815)
(0.0807366 0.0386862 -0.0192589)
(0.0422202 0.0833146 -0.0302132)
(0.00605749 0.117969 -0.0339952)
(-0.0217894 0.131477 -0.0320264)
(-0.0394656 0.121035 -0.0254205)
(-0.0475018 0.0925728 -0.0145908)
(-0.0468826 0.055809 0.000343226)
(-0.0375251 0.019471 0.0182088)
(-0.0213701 -0.0161154 0.0549072)
(0.000191885 -0.0307136 0.0744996)
(0.0269854 -0.0384045 0.0853087)
(0.0566174 -0.0395281 0.0827751)
(0.0825189 -0.0343112 0.0652266)
(0.0959899 -0.0222621 0.035483)
(0.0902059 -0.00206801 0.000686956)
(0.064931 0.0266733 -0.0309695)
(0.0278414 0.0606588 -0.0539864)
(-0.00955565 0.0921328 -0.0664628)
(-0.0380161 0.111736 -0.0686891)
(-0.0540054 0.113364 -0.0617454)
(-0.0590531 0.0973485 -0.0469162)
(-0.0567376 0.0696457 -0.025743)
(-0.0496725 0.0380953 -0.000164647)
(-0.0376777 0.00907011 0.0266798)
(-0.0340522 -0.0211498 0.0664474)
(-0.0136709 -0.0245017 0.0830151)
(0.0109166 -0.0227439 0.0881718)
(0.0374919 -0.0162009 0.0774789)
(0.0585033 -0.00513593 0.0505929)
(0.0649498 0.0105741 0.0125167)
(0.0514971 0.031007 -0.027619)
(0.0209715 0.0544463 -0.0609481)
(-0.0163774 0.0762607 -0.0824927)
(-0.0488452 0.0903049 -0.0910987)
(-0.0691787 0.0919786 -0.0877103)
(-0.0765561 0.0806272 -0.0740336)
(-0.0746942 0.0597285 -0.0521243)
(-0.0682616 0.0349359 -0.0243975)
(-0.0599173 0.0115416 0.0063263)
(-0.0483104 -0.00715747 0.0359273)
(-0.0568762 -0.0267861 0.0710815)
(-0.0365169 -0.0188606 0.08025)
(-0.013232 -0.00772626 0.0774545)
(0.0117868 0.00697385 0.0585226)
(0.0304509 0.0250984 0.0244003)
(0.0342605 0.0455696 -0.0181611)
(0.0196451 0.0657278 -0.0587406)
(-0.00881655 0.0807515 -0.0882124)
(-0.0407879 0.085643 -0.102336)
(-0.0664243 0.078332 -0.101564)
(-0.081038 0.0609017 -0.0888698)
(-0.085593 0.0382019 -0.0677563)
(-0.0841226 0.0154507 -0.0412665)
(-0.0803914 -0.00345197 -0.0119775)
(-0.0758824 -0.0166631 0.0176167)
(-0.0670789 -0.0241584 0.0435076)
(-0.0710445 -0.0563914 0.0614821)
(-0.0449323 -0.0342297 0.0449254)
(-0.0205786 -0.00675199 0.0232442)
(0.000964228 0.0244706 -0.00248276)
(0.0127249 0.0557885 -0.0287678)
(0.0104578 0.0825746 -0.0511204)
(-0.00464272 0.100307 -0.0658185)
(-0.026823 0.105217 -0.0706782)
(-0.0490495 0.09525 -0.0651219)
(-0.0663347 0.0713168 -0.0499701)
(-0.0772987 0.0380328 -0.0275975)
(-0.0836381 0.00267999 -0.00183146)
(-0.0877432 -0.0277586 0.023051)
(-0.0904268 -0.049008 0.0434116)
(-0.0905678 -0.0599284 0.0567612)
(-0.0826407 -0.0608676 0.0612633)
(-0.092619 -0.0675952 0.0514031)
(-0.0648848 -0.0401258 0.0251289)
(-0.0380473 -0.00767779 -0.00270441)
(-0.0107111 0.0285235 -0.0308046)
(0.00977704 0.0641349 -0.0555827)
(0.0180128 0.0929414 -0.0728877)
(0.0132229 0.108459 -0.0795229)
(-0.000718652 0.105906 -0.073928)
(-0.0178972 0.0842954 -0.0564422)
(-0.0340903 0.0478629 -0.0296841)
(-0.0486607 0.00547215 0.00130481)
(-0.06322 -0.0327749 0.0304994)
(-0.0783969 -0.0604413 0.0531058)
(-0.0923139 -0.0759289 0.0664973)
(-0.101905 -0.0805139 0.0699273)
(-0.0988021 -0.0754033 0.0639836)
(-0.11147 -0.0803467 0.0326819)
(-0.0813142 -0.0514739 -0.00226443)
(-0.0512906 -0.0182597 -0.0347792)
(-0.017335 0.0184499 -0.0632633)
(0.0135911 0.0543414 -0.0844073)
(0.0355819 0.083022 -0.0946275)
(0.0453389 0.0973689 -0.0913733)
(0.0429736 0.0917864 -0.0737943)
(0.0315338 0.065398 -0.0434067)
(0.0139907 0.0241767 -0.00504386)
(-0.00881515 -0.0204589 0.0333682)
(-0.0366079 -0.0573724 0.063947)
(-0.0665658 -0.0813361 0.0819821)
(-0.093477 -0.0928363 0.0862664)
(-0.112628 -0.094339 0.0780314)
(-0.113317 -0.086565 0.0608345)
(-0.123742 -0.0914588 0.00794595)
(-0.0918939 -0.0653905 -0.033324)
(-0.058975 -0.0354953 -0.0684882)
(-0.0189966 -0.00208217 -0.0955135)
(0.0217478 0.0312885 -0.111618)
(0.0574526 0.0592932 -0.114086)
(0.0828607 0.0753044 -0.101037)
(0.0937829 0.0726292 -0.0719695)
(0.0888898 0.0485301 -0.0292316)
(0.0690836 0.00882473 0.0199339)
(0.0357717 -0.0334927 0.0643772)
(-0.00732292 -0.0668639 0.09457)
(-0.0526855 -0.0874352 0.106513)
(-0.0919363 -0.0971947 0.100715)
(-0.119274 -0.0988256 0.080426)
(-0.122753 -0.0917577 0.0523598)
(-0.128368 -0.0990624 -0.0187837)
(-0.0960058 -0.0788519 -0.0632363)
(-0.0609554 -0.0551987 -0.0985745)
(-0.0165944 -0.027984 -0.122286)
(0.0313682 0.000261984 -0.132349)
(0.0775343 0.0259755 -0.127129)
(0.116009 0.044393 -0.105546)
(0.139808 0.0490076 -0.0671459)
(0.142808 0.0343342 -0.014372)
(0.121908 0.00316733 0.0433827)
(0.078534 -0.0322248 0.0916749)
(0.0209337 -0.060536 0.119721)
(-0.0381348 -0.0789049 0.12469)
(-0.087492 -0.0895766 0.108849)
(-0.120814 -0.0943405 0.0773505)
(-0.126223 -0.090916 0.0397811)
(-0.126016 -0.101221 -0.0428883)
(-0.0939803 -0.0888578 -0.0870201)
(-0.0575363 -0.0731893 -0.119707)
(-0.010619 -0.0537615 -0.138265)
(0.0413985 -0.0320445 -0.141571)
(0.0934111 -0.00995282 -0.129119)
(0.139735 0.00994155 -0.100801)
(0.172908 0.0229233 -0.0563166)
(0.183739 0.0221805 0.00232057)
(0.16396 0.0057553 0.0646144)
(0.113344 -0.0182159 0.113514)
(0.0444576 -0.0402806 0.137595)
(-0.0248115 -0.0577317 0.135285)
(-0.081024 -0.0715331 0.110395)
(-0.11775 -0.0816149 0.0696808)
(-0.124329 -0.0839923 0.0249455)
(-0.117927 -0.0970431 -0.0602018)
(-0.0864329 -0.0936778 -0.100457)
(-0.0490525 -0.0867405 -0.127745)
(-0.0011234 -0.0754539 -0.139731)
(0.0521341 -0.0603105 -0.136222)
(0.105711 -0.0420298 -0.117729)
(0.154258 -0.0216289 -0.0849837)
(0.191098 -0.00162509 -0.0380666)
(0.206693 0.0121606 0.0213389)
(0.189084 0.0139751 0.0827564)
(0.135133 0.00492551 0.128355)
(0.059937 -0.00975644 0.146845)
(-0.0147542 -0.0270568 0.13764)
(-0.0739244 -0.045322 0.105622)
(-0.111299 -0.0619192 0.0587679)
(-0.118164 -0.0714277 0.0101686)
(-0.105202 -0.0872631 -0.0677652)
(-0.0740433 -0.0932215 -0.101136)
(-0.0360779 -0.0948363 -0.121055)
(0.0115186 -0.0910086 -0.126077)
(0.0636549 -0.0814784 -0.116871)
(0.115369 -0.0662586 -0.0946513)
(0.161547 -0.0455975 -0.0605884)
(0.196336 -0.0203865 -0.0150872)
(0.211427 0.00576793 0.0401385)
(0.194521 0.0256003 0.0954203)
(0.140659 0.0328136 0.134244)
(0.0648801 0.0263676 0.146283)
(-0.00975307 0.00918745 0.131428)
(-0.0676295 -0.0138779 0.0951006)
(-0.102767 -0.0373304 0.0461453)
(-0.108719 -0.0546066 -0.00220064)
(-0.0888678 -0.0739414 -0.0645933)
(-0.0578717 -0.0885421 -0.0891488)
(-0.0198564 -0.0975327 -0.101071)
(0.0260865 -0.0995971 -0.100086)
(0.0750687 -0.0940856 -0.0875418)
(0.122215 -0.080734 -0.0649222)
(0.162539 -0.0595177 -0.0333536)
(0.19069 -0.0303691 0.00673834)
(0.199902 0.00510294 0.0535647)
(0.180582 0.0396781 0.0988473)
(0.128837 0.0615549 0.128876)
(0.0578773 0.0632383 0.134787)
(-0.0110857 0.0465844 0.116509)
(-0.0633 0.0191739 0.0795969)
(-0.0932697 -0.010829 0.0332427)
(-0.0967635 -0.0358967 -0.0103263)
(-0.0703395 -0.0597625 -0.0518772)
(-0.039662 -0.0810856 -0.0669948)
(-0.00245771 -0.0952467 -0.0717156)
(0.0405087 -0.100948 -0.0668903)
(0.0845899 -0.0975269 -0.0541717)
(0.124969 -0.0847493 -0.0349061)
(0.156667 -0.0624882 -0.00976181)
(0.17467 -0.0301299 0.0211782)
(0.173958 0.0117446 0.0564538)
(0.149413 0.056117 0.0896613)
(0.100701 0.0883171 0.110478)
(0.0388538 0.0963905 0.111709)
(-0.0193271 0.080469 0.0930986)
(-0.0617016 0.0495606 0.0600193)
(-0.0837312 0.0138244 0.0211966)
(-0.0831199 -0.0183058 -0.0132819)
(-0.0517274 -0.0472522 -0.0324296)
(-0.0218432 -0.0721432 -0.0387253)
(0.0134688 -0.0884025 -0.0381738)
(0.052263 -0.0950529 -0.0323507)
(0.0900284 -0.0916749 -0.0227999)
(0.121828 -0.0781906 -0.010349)
(0.142609 -0.0543764 0.00511935)
(0.147941 -0.0194009 0.0242054)
(0.135195 0.0260552 0.0462268)
(0.104395 0.07461 0.0669272)
(0.0594907 0.111001 0.0792621)
(0.00965019 0.121887 0.0778963)
(-0.0338649 0.106043 0.062552)
(-0.0630472 0.0725189 0.037882)
(-0.0750179 0.0324937 0.0110325)
(-0.0690311 -0.00488314 -0.0109936)
(-0.0357658 -0.0382492 -0.00960607)
(-0.00724768 -0.0626559 -0.00882159)
(0.025174 -0.0774573 -0.00564691)
(0.0589213 -0.0822017 -0.00180944)
(0.0893935 -0.0768246 0.00165585)
(0.111273 -0.0613942 0.00479505)
(0.119524 -0.0356262 0.00876219)
(0.111033 0.00101347 0.0150579)
(0.0864748 0.0467862 0.0240219)
(0.0507403 0.0936152 0.0333798)
(0.0110277 0.127355 0.0389583)
(-0.025288 0.136132 0.0374499)
(-0.052306 0.118656 0.0288056)
(-0.0667544 0.083343 0.0162573)
(-0.0679891 0.0413439 0.00422708)
(-0.0563692 0.00191139 -0.0038449)
(-0.0253907 -0.0337272 0.0135756)
(0.00133182 -0.0533198 0.0185923)
(0.0303073 -0.0631192 0.0213901)
(0.0587179 -0.0632192 0.020572)
(0.0815476 -0.0539133 0.0159689)
(0.092972 -0.035436 0.00879606)
(0.0883997 -0.00772455 0.00140011)
(0.0670185 0.0287848 -0.00375012)
(0.0334045 0.0707559 -0.00547294)
(-0.00393657 0.109775 -0.00445357)
(-0.0365643 0.134262 -0.00258424)
(-0.0592948 0.135845 -0.00138121)
(-0.0706896 0.114696 -0.000875315)
(-0.0716166 0.078659 0.00014879)
(-0.0635854 0.0378861 0.00292563)
(-0.0475246 0.000713426 0.00755597)
(-0.0230855 -0.0339309 0.0345468)
(0.00178247 -0.0448842 0.0400064)
(0.0274589 -0.0466705 0.0394474)
(0.0510504 -0.0398423 0.0320363)
(0.0668532 -0.0250606 0.0187222)
(0.0686668 -0.00295389 0.00209473)
(0.05304 0.0257599 -0.014278)
(0.022194 0.0591656 -0.0272327)
(-0.0158269 0.0925076 -0.0350396)
(-0.0507496 0.118154 -0.0374374)
(-0.0748753 0.128297 -0.0349534)
(-0.0856763 0.119128 -0.0282816)
(-0.0850363 0.0932382 -0.0180962)
(-0.0765167 0.0580954 -0.00526724)
(-0.062882 0.0220771 0.0088315)
(-0.0448818 -0.00842401 0.0219903)
(-0.0299638 -0.0384386 0.0506016)
(-0.00649568 -0.0382463 0.0524682)
(0.016686 -0.0301122 0.0461229)
(0.0368228 -0.0150003 0.0312604)
(0.0474935 0.00586494 0.0100145)
(0.0425016 0.0310324 -0.0135939)
(0.0200543 0.0585595 -0.0349204)
(-0.0148402 0.0850648 -0.0503366)
(-0.0520694 0.105381 -0.0580401)
(-0.0814863 0.113979 -0.0577356)
(-0.0974537 0.107548 -0.050061)
(-0.100024 0.0869753 -0.0362971)
(-0.0930648 0.057233 -0.0182685)
(-0.0810511 0.0251647 0.00176302)
(-0.0666871 -0.00315991 0.0211974)
(-0.0497196 -0.0238735 0.0369242)
(-0.044272 -0.0439703 0.0583551)
(-0.0216257 -0.0329639 0.0535481)
(-0.000153055 -0.0151698 0.040282)
(0.0182328 0.00890257 0.0183234)
(0.0268795 0.0374819 -0.00931168)
(0.0201407 0.0672137 -0.0371833)
(-0.00234626 0.0931884 -0.0593459)
(-0.0343375 0.109604 -0.0715906)
(-0.0659968 0.11199 -0.0725333)
(-0.0890227 0.0993785 -0.0632892)
(-0.0999869 0.0748808 -0.0465222)
(-0.100354 0.0442574 -0.0254438)
(-0.0941283 0.0136533 -0.00303704)
(-0.0849079 -0.0121204 0.0182422)
(-0.0743303 -0.0303901 0.0362709)
(-0.060591 -0.0401605 0.0485301)
(-0.0317334 -0.069108 0.0520563)
(-0.00864404 -0.0430731 0.026708)
(0.00872088 -0.0083318 0.000133668)
(0.0180275 0.0305091 -0.0235297)
(0.0154871 0.0675264 -0.0409436)
(0.00104169 0.0972689 -0.0505644)
(-0.0212547 0.115626 -0.0523351)
(-0.0453393 0.119769 -0.0465664)
(-0.065599 0.108364 -0.0334193)
(-0.0785589 0.0823873 -0.0133688)
(-0.0836179 0.0458733 0.0116524)
(-0.0827204 0.00562002 0.037659)
(-0.078585 -0.030999 0.0596156)
(-0.072616 -0.0584909 0.0732589)
(-0.0643333 -0.0741295 0.0761787)
(-0.0506781 -0.0767191 0.0677781)
(-0.045701 -0.0803528 0.044004)
(-0.0225232 -0.0488793 0.0104685)
(-0.001694 -0.00864729 -0.0209483)
(0.0152633 0.0359162 -0.0465936)
(0.0232607 0.0778609 -0.0631733)
(0.0199485 0.109791 -0.068995)
(0.00719032 0.12575 -0.0638824)
(-0.0101763 0.122311 -0.0483351)
(-0.0268352 0.0993932 -0.0232778)
(-0.0395059 0.0609462 0.00887645)
(-0.0481164 0.0148092 0.0431609)
(-0.0548495 -0.0293506 0.0727821)
(-0.0612717 -0.0641888 0.0918989)
(-0.0664287 -0.08649 0.0976052)
(-0.0677291 -0.0959283 0.0898711)
(-0.060163 -0.0923645 0.0709276)
(-0.0588422 -0.0936065 0.0256425)
(-0.0352299 -0.0602744 -0.015527)
(-0.011028 -0.0188068 -0.0505888)
(0.0135832 0.026674 -0.0764143)
(0.0334787 0.0692193 -0.0902076)
(0.0447713 0.101131 -0.0903262)
(0.0461784 0.115793 -0.0765442)
(0.0391961 0.109218 -0.0496575)
(0.0271584 0.0815872 -0.011651)
(0.0127739 0.0382324 0.032838)
(-0.00359994 -0.0108498 0.0755821)
(-0.0228484 -0.0547715 0.107071)
(-0.0436309 -0.086846 0.121205)
(-0.0616934 -0.105658 0.116868)
(-0.0725228 -0.112057 0.0966307)
(-0.0697349 -0.10573 0.0659645)
(-0.069329 -0.104069 -0.000774947)
(-0.0457577 -0.0730712 -0.0478002)
(-0.0188516 -0.0347975 -0.0848959)
(0.0123485 0.00741385 -0.10934)
(0.0432148 0.0476596 -0.119069)
(0.0691959 0.0792625 -0.112802)
(0.0862947 0.0957376 -0.0902776)
(0.0917859 0.091839 -0.0522222)
(0.0855055 0.066063 -0.00132626)
(0.0689197 0.0234953 0.0553397)
(0.0428815 -0.0243902 0.10565)
(0.00908684 -0.0658798 0.137393)
(-0.0268278 -0.0951477 0.144832)
(-0.0572522 -0.112192 0.129205)
(-0.0763678 -0.11824 0.0958352)
(-0.0772228 -0.112262 0.0535691)
(-0.0766623 -0.109915 -0.0312489)
(-0.0535701 -0.0843289 -0.0813403)
(-0.0247917 -0.0525594 -0.118337)
(0.0111688 -0.0170425 -0.139785)
(0.0501063 0.0178434 -0.144469)
(0.087436 0.0473872 -0.131759)
(0.117884 0.0665833 -0.101546)
(0.135691 0.0698156 -0.0541491)
(0.136611 0.0527734 0.00783087)
(0.119197 0.0177843 0.0751034)
(0.0841399 -0.0243045 0.131248)
(0.0365544 -0.0615592 0.161457)
(-0.0128803 -0.0887849 0.161042)
(-0.0534678 -0.106252 0.133874)
(-0.0788148 -0.114517 0.0880493)
(-0.082248 -0.111492 0.0355657)
(-0.0809095 -0.109697 -0.0607879)
(-0.0581887 -0.0917232 -0.110391)
(-0.028101 -0.0686292 -0.144595)
(0.0107679 -0.0418826 -0.161282)
(0.0543286 -0.0141692 -0.160073)
(0.0980526 0.0117665 -0.141139)
(0.136514 0.032877 -0.104832)
(0.163139 0.044599 -0.0511642)
(0.171129 0.0408504 0.0179765)
(0.155025 0.0196013 0.0920927)
(0.113675 -0.011964 0.150917)
(0.0554725 -0.0433551 0.177556)
(-0.00389316 -0.0693757 0.168726)
(-0.0512662 -0.089077 0.130886)
(-0.0802858 -0.101427 0.0746302)
(-0.0851823 -0.103248 0.0146256)
(-0.0818739 -0.103285 -0.084285)
(-0.0588276 -0.0944359 -0.129565)
(-0.0276523 -0.0811454 -0.158238)
(0.0125453 -0.0637725 -0.168681)
(0.0575345 -0.0434028 -0.161308)
(0.102793 -0.0212953 -0.137018)
(0.143222 0.000942996 -0.096664)
(0.172877 0.0202291 -0.0402644)
(0.184753 0.0306852 0.0308997)
(0.170612 0.0266698 0.106157)
(0.126531 0.0093245 0.16325)
(0.062687 -0.0146703 0.184274)
(-0.0015483 -0.0398645 0.167264)
(-0.0515236 -0.0628695 0.120842)
(-0.0812876 -0.0803807 0.0575697)
(-0.086284 -0.0883431 -0.00602937)
(-0.0788593 -0.092121 -0.0975474)