/*--------------------------------*- C++ -*----------------------------------*\
| =========                 |                                                 |
| \\      /  F ield         | OpenFOAM: The Open Source CFD Toolbox           |
|  \\    /   O peration     | Version:  3.0.0                                 |
|   \\  /    A nd           | Web:      www.OpenFOAM.org                      |
|    \\/     M anipulation  |                                                 |
\*---------------------------------------------------------------------------*/
FoamFile
{
    version     2.0;
    format      ascii;
    class       volScalarField;
    location    "8";
    object      k;
}
// * * * * * * * * * * * * * * * * * * * * * * * * * * * * * * * * * * * * * //

dimensions      [0 2 -2 0 0 0 0];

internalField   nonuniform List<scalar> 
400
(
1.32044e-06
2.81821e-06
1.05288e-05
0.000101256
0.00032994
0.000517739
0.000610884
0.000655936
0.00066987
0.000670174
0.000629891
0.000593504
0.000532669
0.000480149
0.000415742
0.000356429
0.000295289
0.000233359
0.000163605
9.81872e-05
4.568e-06
1.7093e-05
6.15626e-05
0.000189312
0.000293556
0.000337039
0.000348942
0.000352122
0.000352996
0.000361313
0.000374426
0.00040136
0.000430969
0.00046221
0.000495505
0.000519664
0.000529827
0.000529995
0.000485645
0.00044461
1.42826e-05
6.93003e-05
0.000151491
0.000232202
0.000293554
0.000323307
0.000350659
0.000378976
0.000423773
0.000457755
0.000491994
0.000512957
0.000535396
0.000562424
0.000597787
0.000641738
0.000686215
0.000707798
0.00075051
0.000879362
4.02554e-05
0.000118933
0.00018636
0.000250725
0.000305208
0.000346239
0.000401581
0.000446971
0.000475933
0.000496943
0.000513129
0.000525047
0.000543095
0.000569706
0.00061244
0.000670861
0.000750654
0.000822542
0.000878912
0.00115871
7.25403e-05
0.000147932
0.00021205
0.000275166
0.000330599
0.000375461
0.000411165
0.000427583
0.000430542
0.000415241
0.000407673
0.000406544
0.000431652
0.000470088
0.000540071
0.000637288
0.000763683
0.000890016
0.000996639
0.00137396
0.000111055
0.000168145
0.000225694
0.00028844
0.000341831
0.000371684
0.000383988
0.000357216
0.000313451
0.000286502
0.000275713
0.000274059
0.000300242
0.000343971
0.000421537
0.000543138
0.000728076
0.000921245
0.00108668
0.00153506
0.000151405
0.000169386
0.000231964
0.000297236
0.000337783
0.000350373
0.000321078
0.000260377
0.000215723
0.000193763
0.000185575
0.000186336
0.000214877
0.000258585
0.000330584
0.000447339
0.00065657
0.000930955
0.00117656
0.00167282
0.000198301
0.000167286
0.000230929
0.000296167
0.000324554
0.000315456
0.000261057
0.00019439
0.000157753
0.00014125
0.000136304
0.000143438
0.000169494
0.000209159
0.000272408
0.000374278
0.000582737
0.000919611
0.00125921
0.00178694
0.000239386
0.000162814
0.000227121
0.000290037
0.000307664
0.000285558
0.000218751
0.000156182
0.000127115
0.000115652
0.000113368
0.000123678
0.00014774
0.00018417
0.000236793
0.000321222
0.000510283
0.000885206
0.00134072
0.00189469
0.00029013
0.000153027
0.000218474
0.000281318
0.000296959
0.00026565
0.000196596
0.00014181
0.000116002
0.000106303
0.000105308
0.000116368
0.000138474
0.000172942
0.000218539
0.000290353
0.000453704
0.000854398
0.00141919
0.00199529
0.00032667
0.000149101
0.000205375
0.000267623
0.000285669
0.000256723
0.000196661
0.000143945
0.000117644
0.000107221
0.000107108
0.000116062
0.000136047
0.000169563
0.000210125
0.000272859
0.000407562
0.00081559
0.00149163
0.0021015
0.000358172
0.000151674
0.000185937
0.000253229
0.000276456
0.000255959
0.000202577
0.000152758
0.000125597
0.000114768
0.000116758
0.000125725
0.000144102
0.000174333
0.000207981
0.00026493
0.000384748
0.000791171
0.00156259
0.00221527
0.000357032
0.000157185
0.000168654
0.000229987
0.00026084
0.000252724
0.000218123
0.000172654
0.000144571
0.000133474
0.000135686
0.000143789
0.00015917
0.000186157
0.000214037
0.000262563
0.000373429
0.000775476
0.00163169
0.00235002
0.000337134
0.000168591
0.000160592
0.000198668
0.000245758
0.00024516
0.000230966
0.000200264
0.000175531
0.000163174
0.000164091
0.000169667
0.000181257
0.000203836
0.000223839
0.000266204
0.000370075
0.000771761
0.00172575
0.00251333
0.000284269
0.000166688
0.000152821
0.00016938
0.000212915
0.000227745
0.000225733
0.000215398
0.00020138
0.000192395
0.000192701
0.000196478
0.000204533
0.000218158
0.000234345
0.000275134
0.000380627
0.000799143
0.00185301
0.00273107
0.000171137
0.000149514
0.000143299
0.000154785
0.000187982
0.00021111
0.000214645
0.000212387
0.00020646
0.0002053
0.000206413
0.000211139
0.000215058
0.000223543
0.000240797
0.000288794
0.000412195
0.00086788
0.00202453
0.00301953
4.85658e-05
0.000103013
0.000120191
0.000128953
0.000147821
0.000171207
0.000182726
0.000188869
0.000189579
0.00019146
0.000194156
0.000200246
0.000207605
0.000222732
0.000252445
0.000328097
0.000496625
0.0010228
0.0023106
0.00343672
2.83775e-05
6.87599e-05
9.94645e-05
0.000121414
0.000142018
0.00016351
0.000175789
0.00018523
0.000189462
0.000195825
0.00020251
0.000216952
0.000235017
0.000275835
0.000347157
0.000517048
0.000780202
0.00143573
0.00289089
0.00408418
0.000148186
0.000311917
0.000375219
0.000404945
0.000429633
0.000465996
0.000494825
0.000546987
0.000588022
0.00066754
0.000731756
0.000855099
0.000963886
0.00116095
0.00132811
0.00172779
0.00213957
0.00297964
0.00454822
0.00528424
0.00306916
0.00595023
0.00683878
0.00683212
0.00674593
0.00663285
0.0065577
0.0065405
0.00654444
0.00656484
0.006593
0.00665249
0.00671021
0.00679274
0.00689802
0.00698858
0.00707798
0.00720976
0.00770934
0.00672788
)
;

boundaryField
{
    movingWall
    {
        type            kqRWallFunction;
        value           nonuniform List<scalar> 
20
(
0.00306916
0.00595023
0.00683878
0.00683212
0.00674593
0.00663285
0.0065577
0.0065405
0.00654444
0.00656484
0.006593
0.00665249
0.00671021
0.00679274
0.00689802
0.00698858
0.00707798
0.00720976
0.00770934
0.00672788
)
;
    }
    fixedWalls
    {
        type            kqRWallFunction;
        value           nonuniform List<scalar> 
60
(
1.32044e-06
4.568e-06
1.42826e-05
4.02554e-05
7.25403e-05
0.000111055
0.000151405
0.000198301
0.000239386
0.00029013
0.00032667
0.000358172
0.000357032
0.000337134
0.000284269
0.000171137
4.85658e-05
2.83775e-05
0.000148186
0.00306916
9.81872e-05
0.00044461
0.000879362
0.00115871
0.00137396
0.00153506
0.00167282
0.00178694
0.00189469
0.00199529
0.0021015
0.00221527
0.00235002
0.00251333
0.00273107
0.00301953
0.00343672
0.00408418
0.00528424
0.00672788
1.32044e-06
2.81821e-06
1.05288e-05
0.000101256
0.00032994
0.000517739
0.000610884
0.000655936
0.00066987
0.000670174
0.000629891
0.000593504
0.000532669
0.000480149
0.000415742
0.000356429
0.000295289
0.000233359
0.000163605
9.81872e-05
)
;
    }
    frontAndBack
    {
        type            empty;
    }
}


// ************************************************************************* //
