/*--------------------------------*- C++ -*----------------------------------*\
| =========                 |                                                 |
| \\      /  F ield         | OpenFOAM: The Open Source CFD Toolbox           |
|  \\    /   O peration     | Version:  3.0.0                                 |
|   \\  /    A nd           | Web:      www.OpenFOAM.org                      |
|    \\/     M anipulation  |                                                 |
\*---------------------------------------------------------------------------*/
FoamFile
{
    version     2.0;
    format      ascii;
    class       volScalarField;
    location    "8";
    object      nut;
}
// * * * * * * * * * * * * * * * * * * * * * * * * * * * * * * * * * * * * * //

dimensions      [0 2 -1 0 0 0 0];

internalField   nonuniform List<scalar> 
400
(
1.03146e-08
2.20113e-08
8.21724e-08
7.83424e-07
2.49907e-06
3.85617e-06
4.51309e-06
4.82714e-06
4.92379e-06
4.9259e-06
4.64588e-06
4.39131e-06
3.96218e-06
3.58809e-06
3.12467e-06
2.69323e-06
2.2437e-06
1.78328e-06
1.25839e-06
7.59899e-07
3.56717e-08
3.44797e-07
8.31354e-07
2.27088e-06
3.51723e-06
4.65535e-06
5.60688e-06
6.77967e-06
7.98788e-06
9.3191e-06
1.03764e-05
1.1408e-05
1.19055e-05
1.19006e-05
1.17783e-05
1.0915e-05
9.52936e-06
7.71004e-06
5.22697e-06
3.33302e-06
1.11429e-07
1.40515e-06
2.64761e-06
4.03769e-06
6.26784e-06
8.91985e-06
1.17892e-05
1.49723e-05
1.82122e-05
2.04564e-05
2.22105e-05
2.26296e-05
2.22391e-05
2.1496e-05
2.00681e-05
1.81317e-05
1.53374e-05
1.16964e-05
8.21866e-06
6.35064e-06
3.13277e-07
2.52575e-06
4.00782e-06
6.27294e-06
1.06975e-05
1.5189e-05
2.13356e-05
2.66781e-05
3.07729e-05
3.35519e-05
3.52685e-05
3.61342e-05
3.52894e-05
3.39598e-05
3.13174e-05
2.7678e-05
2.29797e-05
1.69884e-05
1.0638e-05
8.18114e-06
5.62783e-07
3.47557e-06
5.62604e-06
9.63394e-06
1.64572e-05
2.3061e-05
3.0706e-05
3.59588e-05
4.05674e-05
4.16108e-05
4.20608e-05
4.21378e-05
4.17282e-05
4.04852e-05
3.86121e-05
3.51719e-05
2.98209e-05
2.21943e-05
1.33573e-05
9.5399e-06
8.5844e-07
4.37387e-06
7.2848e-06
1.32791e-05
2.21798e-05
2.98333e-05
3.83891e-05
4.1542e-05
4.25819e-05
4.23856e-05
4.24844e-05
4.25222e-05
4.27379e-05
4.24941e-05
4.18144e-05
3.98777e-05
3.57882e-05
2.73216e-05
1.61561e-05
1.05296e-05
1.16588e-06
4.84268e-06
8.79375e-06
1.68178e-05
2.69113e-05
3.49452e-05
4.13365e-05
4.05708e-05
4.0198e-05
3.96053e-05
3.93359e-05
3.94763e-05
4.0519e-05
4.13448e-05
4.15048e-05
4.06886e-05
3.85922e-05
3.18058e-05
1.91057e-05
1.13583e-05
1.52032e-06
5.13527e-06
1.00191e-05
1.9616e-05
2.99493e-05
3.71177e-05
4.08837e-05
3.81225e-05
3.7077e-05
3.62528e-05
3.60408e-05
3.71183e-05
3.88765e-05
4.04311e-05
4.13963e-05
4.09845e-05
4.00731e-05
3.52034e-05
2.22461e-05
1.20332e-05
1.82832e-06
5.26589e-06
1.08299e-05
2.10514e-05
3.11464e-05
3.77127e-05
3.94347e-05
3.5909e-05
3.45217e-05
3.38706e-05
3.38896e-05
3.55271e-05
3.77093e-05
3.95398e-05
4.02078e-05
3.97567e-05
3.96576e-05
3.70668e-05
2.51002e-05
1.2661e-05
2.20554e-06
5.11035e-06
1.11945e-05
2.18307e-05
3.17812e-05
3.7369e-05
3.73869e-05
3.43822e-05
3.31787e-05
3.28198e-05
3.30813e-05
3.48008e-05
3.70737e-05
3.90319e-05
3.94005e-05
3.87322e-05
3.8859e-05
3.83772e-05
2.82819e-05
1.32392e-05
2.47504e-06
4.74699e-06
1.08453e-05
2.086e-05
3.04719e-05
3.59309e-05
3.68677e-05
3.42667e-05
3.30667e-05
3.27316e-05
3.33517e-05
3.47454e-05
3.68311e-05
3.88016e-05
3.87401e-05
3.76631e-05
3.68441e-05
3.82947e-05
3.07556e-05
1.38416e-05
2.70597e-06
4.25896e-06
9.65728e-06
1.94369e-05
2.88406e-05
3.48095e-05
3.62089e-05
3.43027e-05
3.32024e-05
3.30898e-05
3.39973e-05
3.52911e-05
3.70001e-05
3.84142e-05
3.80825e-05
3.69112e-05
3.55868e-05
3.79723e-05
3.32479e-05
1.4478e-05
2.69764e-06
3.67601e-06
8.2512e-06
1.69356e-05
2.5768e-05
3.21328e-05
3.53136e-05
3.43783e-05
3.35643e-05
3.38771e-05
3.48109e-05
3.58763e-05
3.6973e-05
3.78116e-05
3.67125e-05
3.53434e-05
3.4641e-05
3.74845e-05
3.5047e-05
1.52203e-05
2.5519e-06
3.14629e-06
6.84678e-06
1.34773e-05
2.25608e-05
2.858e-05
3.33614e-05
3.46922e-05
3.4793e-05
3.51283e-05
3.57984e-05
3.62032e-05
3.65066e-05
3.66484e-05
3.50529e-05
3.33846e-05
3.26856e-05
3.63026e-05
3.56582e-05
1.61039e-05
2.16216e-06
2.6199e-06
5.36936e-06
9.8703e-06
1.71175e-05
2.31515e-05
2.77578e-05
3.08638e-05
3.23768e-05
3.33044e-05
3.41638e-05
3.43509e-05
3.43596e-05
3.36838e-05
3.22792e-05
3.10242e-05
3.10337e-05
3.53734e-05
3.65179e-05
1.7256e-05
1.31541e-06
2.02975e-06
3.90023e-06
7.40697e-06
1.28035e-05
1.83775e-05
2.25687e-05
2.57304e-05
2.75968e-05
2.90909e-05
2.98877e-05
3.02666e-05
2.99453e-05
2.91851e-05
2.84097e-05
2.81729e-05
2.94427e-05
3.43963e-05
3.66574e-05
1.87393e-05
3.77651e-07
1.42839e-06
2.70867e-06
4.48672e-06
7.36891e-06
1.12062e-05
1.47126e-05
1.77318e-05
1.99468e-05
2.151e-05
2.26042e-05
2.31668e-05
2.34291e-05
2.36669e-05
2.40984e-05
2.56033e-05
2.85645e-05
3.36958e-05
3.67797e-05
2.08047e-05
2.21093e-07
1.10275e-06
2.20987e-06
3.64348e-06
5.53134e-06
7.88369e-06
1.01027e-05
1.21703e-05
1.38614e-05
1.52908e-05
1.64714e-05
1.75308e-05
1.8477e-05
2.01512e-05
2.23765e-05
2.63071e-05
3.00037e-05
3.37109e-05
3.69147e-05
2.38429e-05
1.14144e-06
5.94452e-06
7.7909e-06
9.41146e-06
1.12024e-05
1.33801e-05
1.53186e-05
1.77044e-05
1.92875e-05
2.1677e-05
2.3158e-05
2.55449e-05
2.7162e-05
2.95076e-05
3.11457e-05
3.39356e-05
3.50274e-05
3.49678e-05
3.79452e-05
2.90231e-05
1.89899e-05
3.16869e-05
3.50445e-05
3.502e-05
3.4703e-05
3.42844e-05
3.40044e-05
3.39402e-05
3.39549e-05
3.40311e-05
3.41361e-05
3.43573e-05
3.4571e-05
3.48753e-05
3.5261e-05
3.55905e-05
3.5914e-05
3.63873e-05
3.81463e-05
3.46366e-05
)
;

boundaryField
{
    movingWall
    {
        type            nutkWallFunction;
        Cmu             0.09;
        kappa           0.41;
        E               9.8;
        value           nonuniform List<scalar> 
20
(
0
0
0
0
0
0
0
0
0
0
0
0
0
0
0
0
0
6.60924e-08
3.35893e-07
0
)
;
    }
    fixedWalls
    {
        type            nutkWallFunction;
        Cmu             0.09;
        kappa           0.41;
        E               9.8;
        value           uniform 0;
    }
    frontAndBack
    {
        type            empty;
    }
}


// ************************************************************************* //
