/*--------------------------------*- C++ -*----------------------------------*\
| =========                 |                                                 |
| \\      /  F ield         | OpenFOAM: The Open Source CFD Toolbox           |
|  \\    /   O peration     | Version:  3.0.0                                 |
|   \\  /    A nd           | Web:      www.OpenFOAM.org                      |
|    \\/     M anipulation  |                                                 |
\*---------------------------------------------------------------------------*/
FoamFile
{
    version     2.0;
    format      ascii;
    class       volScalarField;
    location    "8";
    object      omega;
}
// * * * * * * * * * * * * * * * * * * * * * * * * * * * * * * * * * * * * * //

dimensions      [0 0 -1 0 0 0 0];

internalField   nonuniform List<scalar> 
400
(
128.016
128.035
128.13
129.248
132.025
134.262
135.358
135.885
136.048
136.051
135.58
135.154
134.438
133.817
133.052
132.343
131.608
130.859
130.011
129.211
128.057
49.5742
74.0511
83.3649
83.4622
72.3981
62.2346
51.9379
44.1915
38.7713
36.0843
35.1822
36.1991
38.8392
42.0694
47.6099
55.5994
68.7409
92.9113
133.395
128.177
49.3189
57.218
57.5087
46.835
36.2458
29.7442
25.3118
23.2686
22.3771
22.1514
22.6675
24.0745
26.1641
29.788
35.3931
44.7413
60.5142
91.3178
138.468
128.498
47.0879
46.4991
39.9692
28.5308
22.7954
18.8221
16.7543
15.466
14.8111
14.5492
14.5305
15.3898
16.7759
19.5559
24.2381
32.666
48.418
82.6203
141.632
128.896
42.5632
37.6908
28.5621
20.0884
16.2812
13.3904
11.8909
10.613
9.97917
9.69246
9.64796
10.3444
11.6114
13.9871
18.1192
25.6089
40.101
74.6136
144.022
129.369
38.443
30.9815
21.7213
15.4118
12.4587
10.0025
8.59891
7.36114
6.75941
6.48975
6.44508
7.02519
8.09455
10.0811
13.6201
20.344
33.7185
67.2612
145.786
129.863
34.9777
26.3783
17.6739
12.5517
10.0264
7.76742
6.41784
5.3665
4.89235
4.71769
4.72021
5.30311
6.25434
7.96497
10.9942
17.013
29.27
61.5819
147.277
130.434
32.5759
23.049
15.0982
10.8368
8.49879
6.38536
5.09908
4.25474
3.89626
3.78194
3.86435
4.3598
5.17323
6.5805
9.13219
14.5418
26.1228
56.6036
148.501
130.933
30.9186
20.9716
13.7776
9.87799
7.57194
5.54717
4.34939
3.68219
3.41454
3.34521
3.48122
3.91786
4.65783
5.88923
8.07968
12.8672
23.8814
53.4145
149.648
131.546
29.9446
19.5161
12.8864
9.34387
7.10882
5.25843
4.12453
3.49627
3.23898
3.1833
3.34382
3.73511
4.43077
5.54661
7.49643
11.6757
22.2632
50.18
150.711
131.986
31.4096
18.9367
12.8295
9.37483
7.14491
5.33424
4.20073
3.55777
3.27577
3.21148
3.34035
3.69379
4.36999
5.42396
7.24472
11.0618
21.2977
48.4993
151.825
132.364
35.6131
19.2536
13.0283
9.58567
7.35314
5.59468
4.45325
3.78275
3.46838
3.43434
3.56251
3.89464
4.53826
5.46132
7.17749
10.8115
20.8355
46.9981
153.009
132.35
42.7595
20.4399
13.5801
10.1226
7.86499
6.17673
5.02219
4.30729
3.93996
3.89781
4.00793
4.30503
4.92326
5.83009
7.42893
10.78
20.6879
46.5571
154.401
132.111
53.5842
23.4552
14.741
10.8931
8.57804
6.92315
5.7726
5.04503
4.64509
4.58374
4.68653
4.96506
5.56193
6.38574
7.97384
11.3223
21.2591
48.3971
156.07
131.474
63.6236
28.4617
17.1606
12.4384
9.83715
8.13224
6.979
6.21989
5.77686
5.64051
5.71973
5.95272
6.47664
7.25994
8.86838
12.265
22.5917
50.7425
158.268
130.102
73.6612
36.7412
20.8973
14.6821
11.4875
9.51074
8.25432
7.4813
7.0572
6.90629
6.97597
7.18169
7.6595
8.47585
10.2508
13.9999
25.2318
55.2284
161.134
128.6
72.1187
44.3726
28.7411
20.0601
15.2779
12.4197
10.6514
9.5042
8.90098
8.58939
8.64364
8.861
9.41112
10.4756
12.8146
17.3861
30.3541
62.8228
165.19
128.351
62.3529
45.0091
33.3237
25.6751
20.7403
17.4001
15.2198
13.6683
12.8067
12.2946
12.3755
12.7195
13.6883
15.5143
19.6543
26.0035
42.5896
78.3125
171.295
129.823
52.4713
48.1612
43.0268
38.3518
34.8276
32.3023
30.8955
30.4872
30.7948
31.5984
33.4743
35.4866
39.3442
42.6419
50.914
61.0829
85.211
119.863
182.07
161.62
187.782
195.146
195.092
194.391
193.465
192.848
192.707
192.739
192.907
193.139
193.627
194.1
194.772
195.628
196.361
197.081
198.139
202.099
194.242
)
;

boundaryField
{
    movingWall
    {
        Cmu             0.09;
        kappa           0.41;
        E               9.8;
        beta1           0.075;
        type            omegaWallFunction;
        value           nonuniform List<scalar> 
20
(
161.62
187.782
195.146
195.092
194.391
193.465
192.848
192.707
192.739
192.907
193.139
193.627
194.1
194.772
195.628
196.361
197.081
198.139
202.099
194.242
)
;
    }
    fixedWalls
    {
        Cmu             0.09;
        kappa           0.41;
        E               9.8;
        beta1           0.075;
        type            omegaWallFunction;
        value           nonuniform List<scalar> 
60
(
128.016
128.057
128.177
128.498
128.896
129.369
129.863
130.434
130.933
131.546
131.986
132.364
132.35
132.111
131.474
130.102
128.6
128.351
129.823
161.62
129.211
133.395
138.468
141.632
144.022
145.786
147.277
148.501
149.648
150.711
151.825
153.009
154.401
156.07
158.268
161.134
165.19
171.295
182.07
194.242
128.016
128.035
128.13
129.248
132.025
134.262
135.358
135.885
136.048
136.051
135.58
135.154
134.438
133.817
133.052
132.343
131.608
130.859
130.011
129.211
)
;
    }
    frontAndBack
    {
        type            empty;
    }
}


// ************************************************************************* //
