/*--------------------------------*- C++ -*----------------------------------*\
| =========                 |                                                 |
| \\      /  F ield         | OpenFOAM: The Open Source CFD Toolbox           |
|  \\    /   O peration     | Version:  3.0.0                                 |
|   \\  /    A nd           | Web:      www.OpenFOAM.org                      |
|    \\/     M anipulation  |                                                 |
\*---------------------------------------------------------------------------*/
FoamFile
{
    version     2.0;
    format      ascii;
    class       volScalarField;
    location    "8";
    object      p;
}
// * * * * * * * * * * * * * * * * * * * * * * * * * * * * * * * * * * * * * //

dimensions      [0 2 -2 0 0 0 0];

internalField   nonuniform List<scalar> 
400
(
6.22986e-08
-9.71709e-05
-0.00021524
-0.000216145
-0.000657797
-0.00202231
-0.00397454
-0.0059324
-0.00755273
-0.0086671
-0.00918267
-0.00898961
-0.00803368
-0.00628662
-0.00373321
-0.000481778
0.00316968
0.00649731
0.00859037
0.00908144
1.42451e-05
-6.86532e-05
-0.000165681
-0.00060934
-0.00165308
-0.00329905
-0.00517679
-0.00697428
-0.00848334
-0.00952451
-0.00999613
-0.00983961
-0.0090203
-0.00746367
-0.00515513
-0.00213822
0.00133976
0.00473773
0.00721289
0.00843211
0.000286032
-1.61988e-05
-0.000613389
-0.00170718
-0.00332769
-0.00520883
-0.00707639
-0.00878599
-0.0101669
-0.0110602
-0.0114346
-0.011263
-0.0105204
-0.00918822
-0.00724986
-0.00471811
-0.0016911
0.00156473
0.00446207
0.00621506
0.000319276
-0.000294203
-0.00151615
-0.00329007
-0.00533568
-0.00735613
-0.00917517
-0.0106678
-0.0117615
-0.0124531
-0.0127285
-0.0125656
-0.0119444
-0.0108517
-0.00928074
-0.00723692
-0.00474189
-0.0018821
0.000945156
0.00279558
-0.000323498
-0.0011988
-0.00291159
-0.00511097
-0.00732385
-0.00929578
-0.0109366
-0.0122075
-0.0131128
-0.0136698
-0.0138786
-0.0137284
-0.0132078
-0.0123125
-0.0110463
-0.0094177
-0.00742828
-0.00507874
-0.0026049
-0.000890725
-0.00167205
-0.00268151
-0.00463397
-0.00691485
-0.00907473
-0.0108928
-0.0123445
-0.0134422
-0.0142196
-0.0146897
-0.0148593
-0.014726
-0.0142877
-0.0135471
-0.012515
-0.0112062
-0.00963146
-0.00776835
-0.00586007
-0.00428458
-0.00340893
-0.00445156
-0.00638642
-0.00854067
-0.010533
-0.0121655
-0.0134534
-0.0144206
-0.0151036
-0.0155142
-0.0156621
-0.0155493
-0.0151786
-0.0145576
-0.013701
-0.0126277
-0.0113733
-0.009903
-0.0084798
-0.00713371
-0.00513058
-0.00609508
-0.00788878
-0.00987554
-0.0116779
-0.0131403
-0.0142971
-0.0151665
-0.0157803
-0.0161503
-0.0162871
-0.0161946
-0.0158776
-0.0153456
-0.0146171
-0.0137092
-0.0126899
-0.0115087
-0.0104567
-0.0093231
-0.00648324
-0.00736984
-0.00901055
-0.0108495
-0.0124923
-0.0138238
-0.0148854
-0.0156871
-0.016255
-0.0165998
-0.0167318
-0.0166556
-0.0163768
-0.0159046
-0.0152616
-0.0144562
-0.0136022
-0.0125869
-0.0118138
-0.0108499
-0.00734169
-0.00814174
-0.00966883
-0.0114122
-0.0129508
-0.0142057
-0.0152154
-0.0159823
-0.0165276
-0.0168608
-0.0169918
-0.0169255
-0.0166679
-0.0162263
-0.0156292
-0.0148591
-0.0141337
-0.0131436
-0.0126304
-0.0117031
-0.00763583
-0.00838501
-0.00984225
-0.0115473
-0.0130464
-0.0142838
-0.0152844
-0.0160493
-0.0165946
-0.0169291
-0.0170619
-0.0169974
-0.0167427
-0.0163004
-0.0157117
-0.0149115
-0.0142815
-0.0131804
-0.0129401
-0.0118904
-0.00735988
-0.00810968
-0.00953206
-0.0112467
-0.0127704
-0.0140455
-0.0150812
-0.0158788
-0.0164492
-0.0167993
-0.0169368
-0.0168653
-0.0165931
-0.0161228
-0.0154868
-0.0146608
-0.0139661
-0.0127813
-0.0127552
-0.0114161
-0.00659807
-0.00739723
-0.00881687
-0.010533
-0.012133
-0.0134864
-0.014596
-0.0154607
-0.0160828
-0.0164642
-0.0166109
-0.0165247
-0.0162158
-0.0156841
-0.0149677
-0.0140656
-0.0132174
-0.012006
-0.0119954
-0.0103589
-0.00560274
-0.00641154
-0.00778246
-0.0094264
-0.0111077
-0.0125751
-0.013804
-0.0147775
-0.0154839
-0.0159174
-0.0160822
-0.0159768
-0.0156135
-0.0149903
-0.0141543
-0.0131116
-0.0120718
-0.0108138
-0.0106919
-0.00882933
-0.0046426
-0.00536568
-0.00656207
-0.00802958
-0.00969671
-0.0112916
-0.012687
-0.0138165
-0.0146467
-0.0151596
-0.0153573
-0.0152344
-0.0148041
-0.0140627
-0.0130648
-0.011822
-0.0105565
-0.00917262
-0.00888447
-0.00683573
-0.00408899
-0.00445862
-0.00521412
-0.00636688
-0.00791909
-0.00962765
-0.0112295
-0.0125668
-0.0135691
-0.0141988
-0.014454
-0.0143249
-0.0138289
-0.012955
-0.011762
-0.0102692
-0.00871839
-0.0070809
-0.00653332
-0.00408163
-0.00404077
-0.0038543
-0.00385809
-0.00452689
-0.0058839
-0.00765812
-0.00947011
-0.0110522
-0.0122773
-0.0130757
-0.0134357
-0.0133388
-0.0127937
-0.0117897
-0.010386
-0.00859937
-0.00665907
-0.00455262
-0.00335913
0.000602152
-0.00359393
-0.00316455
-0.00243888
-0.00261347
-0.00378564
-0.00560838
-0.00759068
-0.00937808
-0.0108197
-0.011809
-0.0123049
-0.0122756
-0.0117357
-0.0106702
-0.00909743
-0.00700824
-0.00453628
-0.00156196
0.00129848
0.00944611
-0.00428027
-0.00279361
-0.00130159
-0.0011199
-0.0022084
-0.00405779
-0.00615504
-0.00811187
-0.00972126
-0.0108639
-0.0114774
-0.011541
-0.0110334
-0.00993299
-0.00820788
-0.00576531
-0.00252302
0.00206131
0.00827267
0.0230695
-0.00215194
0.000837917
0.000923677
0.000194848
-0.00116566
-0.00307063
-0.00523187
-0.00731396
-0.00903445
-0.0102644
-0.0109304
-0.0110165
-0.0104876
-0.00933614
-0.00747017
-0.00473186
-0.000271858
0.00679447
0.0177933
0.0356856
)
;

boundaryField
{
    movingWall
    {
        type            zeroGradient;
    }
    fixedWalls
    {
        type            zeroGradient;
    }
    frontAndBack
    {
        type            empty;
    }
}


// ************************************************************************* //
