/*--------------------------------*- C++ -*----------------------------------*\
| =========                 |                                                 |
| \\      /  F ield         | OpenFOAM: The Open Source CFD Toolbox           |
|  \\    /   O peration     | Version:  3.0.0                                 |
|   \\  /    A nd           | Web:      www.OpenFOAM.org                      |
|    \\/     M anipulation  |                                                 |
\*---------------------------------------------------------------------------*/
FoamFile
{
    version     2.0;
    format      ascii;
    class       surfaceScalarField;
    location    "8";
    object      phi;
}
// * * * * * * * * * * * * * * * * * * * * * * * * * * * * * * * * * * * * * //

dimensions      [0 3 -1 0 0 0 0];

internalField   nonuniform List<scalar> 
760
(
2.74423e-07
-2.74429e-07
1.93935e-07
8.04884e-08
-3.42155e-07
5.36089e-07
-1.5866e-06
1.24445e-06
-3.26551e-06
1.67891e-06
-4.80847e-06
1.54295e-06
-6.09904e-06
1.29057e-06
-7.11075e-06
1.01171e-06
-7.83333e-06
7.22582e-07
-8.32974e-06
4.96408e-07
-8.58649e-06
2.56743e-07
-8.64649e-06
6.0007e-08
-8.4652e-06
-1.81292e-07
-8.07576e-06
-3.89445e-07
-7.3759e-06
-6.99854e-07
-6.34999e-06
-1.02591e-06
-4.8991e-06
-1.45089e-06
-3.08508e-06
-1.81403e-06
-1.13173e-06
-1.95334e-06
-1.13173e-06
-1.53987e-07
-1.20443e-07
-9.54643e-07
8.81145e-07
-2.47751e-06
2.05896e-06
-4.20793e-06
2.97487e-06
-5.48405e-06
2.95503e-06
-6.54503e-06
2.60393e-06
-7.4031e-06
2.14865e-06
-8.05683e-06
1.66545e-06
-8.55258e-06
1.21833e-06
-8.8497e-06
7.93524e-07
-8.97173e-06
3.78781e-07
-8.87973e-06
-3.19946e-08
-8.6657e-06
-3.95324e-07
-8.24757e-06
-8.07575e-07
-7.63435e-06
-1.31308e-06
-6.73959e-06
-1.92067e-06
-5.51986e-06
-2.67062e-06
-3.86542e-06
-3.46847e-06
-1.87893e-06
-3.93983e-06
-3.01066e-06
-8.91368e-07
7.70926e-07
-2.31095e-06
2.30072e-06
-3.84921e-06
3.59722e-06
-4.98969e-06
4.11535e-06
-5.84692e-06
3.81226e-06
-6.53623e-06
3.29324e-06
-7.02767e-06
2.64008e-06
-7.33954e-06
1.97731e-06
-7.50634e-06
1.38513e-06
-7.54244e-06
8.29621e-07
-7.50432e-06
3.4067e-07
-7.40243e-06
-1.33889e-07
-7.19171e-06
-6.06041e-07
-6.86057e-06
-1.13872e-06
-6.40538e-06
-1.76827e-06
-5.77252e-06
-2.55353e-06
-4.90929e-06
-3.53385e-06
-3.70394e-06
-4.67381e-06
-2.07732e-06
-5.56646e-06
-5.08798e-06
-1.26985e-06
2.04077e-06
-2.77004e-06
3.80092e-06
-3.99455e-06
4.82172e-06
-4.79053e-06
4.91133e-06
-5.32944e-06
4.35117e-06
-5.65926e-06
3.62306e-06
-5.82828e-06
2.80911e-06
-5.92414e-06
2.07317e-06
-5.96717e-06
1.42816e-06
-5.97787e-06
8.4032e-07
-5.93173e-06
2.9453e-07
-5.82323e-06
-2.42389e-07
-5.63454e-06
-7.94733e-07
-5.36382e-06
-1.40944e-06
-5.0031e-06
-2.12899e-06
-4.54236e-06
-3.01427e-06
-3.94657e-06
-4.12963e-06
-3.09927e-06
-5.52111e-06
-1.79968e-06
-6.86605e-06
-6.88766e-06
-1.34323e-06
3.384e-06
-2.62256e-06
5.08026e-06
-3.51239e-06
5.71155e-06
-4.06412e-06
5.46306e-06
-4.36908e-06
4.65613e-06
-4.52663e-06
3.78061e-06
-4.61898e-06
2.90146e-06
-4.6832e-06
2.13739e-06
-4.70657e-06
1.45153e-06
-4.6941e-06
8.27851e-07
-4.63518e-06
2.35609e-07
-4.52409e-06
-3.53478e-07
-4.35105e-06
-9.67775e-07
-4.11571e-06
-1.64477e-06
-3.81693e-06
-2.42777e-06
-3.45541e-06
-3.37579e-06
-3.01926e-06
-4.56579e-06
-2.42525e-06
-6.11512e-06
-1.47653e-06
-7.81477e-06
-8.36419e-06
-1.15267e-06
4.53666e-06
-2.14481e-06
6.07241e-06
-2.80784e-06
6.37457e-06
-3.19154e-06
5.84677e-06
-3.39451e-06
4.85909e-06
-3.50612e-06
3.89222e-06
-3.57954e-06
2.97488e-06
-3.62739e-06
2.18523e-06
-3.64459e-06
1.46874e-06
-3.62787e-06
8.11126e-07
-3.57189e-06
1.79636e-07
-3.47197e-06
-4.534e-07
-3.322e-06
-1.11775e-06
-3.12094e-06
-1.84583e-06
-2.87246e-06
-2.67625e-06
-2.58383e-06
-3.66442e-06
-2.27056e-06
-4.87906e-06
-1.8752e-06
-6.51048e-06
-1.15012e-06
-8.53984e-06
-9.51431e-06
-8.91962e-07
5.42863e-06
-1.59257e-06
6.77302e-06
-2.07344e-06
6.85544e-06
-2.34831e-06
6.12164e-06
-2.50561e-06
5.0164e-06
-2.60076e-06
3.98737e-06
-2.66883e-06
3.04295e-06
-2.71157e-06
2.22797e-06
-2.72925e-06
1.48642e-06
-2.71898e-06
8.00857e-07
-2.67706e-06
1.37709e-07
-2.59924e-06
-5.31219e-07
-2.48075e-06
-1.23623e-06
-2.31955e-06
-2.00703e-06
-2.11986e-06
-2.87595e-06
-1.88765e-06
-3.89663e-06
-1.64129e-06
-5.12542e-06
-1.35352e-06
-6.79825e-06
-9.24028e-07
-8.96934e-06
-1.04383e-05
-5.58592e-07
5.98722e-06
-1.04407e-06
7.25849e-06
-1.39084e-06
7.20221e-06
-1.58524e-06
6.31604e-06
-1.70887e-06
5.14003e-06
-1.79184e-06
4.07034e-06
-1.85573e-06
3.10684e-06
-1.89723e-06
2.26947e-06
-1.91867e-06
1.50786e-06
-1.91855e-06
8.00736e-07
-1.89471e-06
1.13878e-07
-1.84381e-06
-5.82128e-07
-1.76189e-06
-1.31814e-06
-1.6461e-06
-2.12283e-06
-1.50028e-06
-3.02176e-06
-1.33163e-06
-4.06528e-06
-1.15975e-06
-5.29731e-06
-9.65894e-07
-6.99211e-06
-6.82216e-07
-9.25301e-06
-1.11206e-05
-2.93762e-07
6.28098e-06
-5.64609e-07
7.52934e-06
-7.61378e-07
7.39898e-06
-8.89152e-07
6.44381e-06
-9.83936e-07
5.23481e-06
-1.05462e-06
4.14103e-06
-1.11252e-06
3.16474e-06
-1.15259e-06
2.30954e-06
-1.17781e-06
1.53308e-06
-1.18782e-06
8.10744e-07
-1.18206e-06
1.08118e-07
-1.15841e-06
-6.05775e-07
-1.1146e-06
-1.36196e-06
-1.04724e-06
-2.19019e-06
-9.57867e-07
-3.11113e-06
-8.50001e-07
-4.17314e-06
-7.54448e-07
-5.39286e-06
-6.56777e-07
-7.08978e-06
-5.35905e-07
-9.37388e-06
-1.16565e-05
-7.29442e-11
6.28105e-06
-1.06638e-07
7.63591e-06
-1.85063e-07
7.4774e-06
-2.5152e-07
6.51027e-06
-3.11572e-07
5.29486e-06
-3.6532e-07
4.19477e-06
-4.12362e-07
3.21178e-06
-4.48277e-07
2.34545e-06
-4.7531e-07
1.56012e-06
-4.94016e-07
8.2945e-07
-5.05088e-07
1.19191e-07
-5.07653e-07
-6.0321e-07
-5.01711e-07
-1.3679e-06
-4.83199e-07
-2.2087e-06
-4.59386e-07
-3.13494e-06
-4.19944e-07
-4.21258e-06
-4.16122e-07
-5.39668e-06
-4.07785e-07
-7.09811e-06
-3.81863e-07
-9.39981e-06
-1.20383e-05
2.50198e-07
6.03086e-06
3.46469e-07
7.53963e-06
4.06089e-07
7.41778e-06
3.81517e-07
6.53484e-06
3.48445e-07
5.32794e-06
3.12062e-07
4.23116e-06
2.76593e-07
3.24725e-06
2.45918e-07
2.37613e-06
2.18169e-07
1.58787e-06
1.91905e-07
8.55714e-07
1.65035e-07
1.46061e-07
1.3691e-07
-5.75085e-07
1.06689e-07
-1.33768e-06
7.10672e-08
-2.17308e-06
4.66823e-08
-3.11056e-06
-3.43749e-08
-4.13153e-06
-6.3066e-08
-5.36799e-06
-1.91888e-07
-6.96929e-06
-2.90242e-07
-9.30145e-06
-1.23286e-05
5.14949e-07
5.51591e-06
8.11575e-07
7.24301e-06
9.87696e-07
7.24166e-06
1.00606e-06
6.51648e-06
9.99516e-07
5.33448e-06
9.87047e-07
4.24363e-06
9.70961e-07
3.26334e-06
9.52753e-07
2.39433e-06
9.29141e-07
1.61148e-06
8.98163e-07
8.86692e-07
8.56039e-07
1.88186e-07
8.01559e-07
-5.20605e-07
7.30831e-07
-1.26695e-06
6.46282e-07
-2.08853e-06
5.31016e-07
-2.99529e-06
4.09524e-07
-4.01003e-06
2.35157e-07
-5.19362e-06
-2.27016e-08
-6.71143e-06
-1.53437e-07
-9.17072e-06
-1.2482e-05
7.68054e-07
4.74785e-06
1.22842e-06
6.78264e-06
1.547e-06
6.92309e-06
1.66671e-06
6.39677e-06
1.70004e-06
5.30114e-06
1.71775e-06
4.22591e-06
1.72327e-06
3.25782e-06
1.71716e-06
2.40045e-06
1.69655e-06
1.63208e-06
1.6595e-06
9.23744e-07
1.6009e-06
2.46782e-07
1.51809e-06
-4.37789e-07
1.40495e-06
-1.15382e-06
1.25937e-06
-1.94294e-06
1.07171e-06
-2.80763e-06
8.63621e-07
-3.80195e-06
5.59963e-07
-4.88996e-06
2.4414e-07
-6.39561e-06
2.99396e-09
-8.92957e-06
-1.2479e-05
1.02244e-06
3.72541e-06
1.67308e-06
6.132e-06
2.08122e-06
6.51495e-06
2.31069e-06
6.16731e-06
2.40668e-06
5.20515e-06
2.47238e-06
4.16021e-06
2.51566e-06
3.21453e-06
2.53655e-06
2.37956e-06
2.53115e-06
1.63749e-06
2.49683e-06
9.58057e-07
2.42612e-06
3.17494e-07
2.31495e-06
-3.26617e-07
2.15622e-06
-9.95091e-07
1.94711e-06
-1.73383e-06
1.67654e-06
-2.53706e-06
1.35429e-06
-3.47969e-06
9.25855e-07
-4.46153e-06
5.08096e-07
-5.97785e-06
1.43232e-07
-8.56471e-06
-1.23358e-05
1.19134e-06
2.53407e-06
1.97565e-06
5.34769e-06
2.54495e-06
5.94566e-06
2.9692e-06
5.74305e-06
3.20466e-06
4.96969e-06
3.34705e-06
4.01783e-06
3.43621e-06
3.12537e-06
3.4853e-06
2.33047e-06
3.49303e-06
1.62975e-06
3.45795e-06
9.93145e-07
3.37099e-06
4.0445e-07
3.22564e-06
-1.81267e-07
3.01578e-06
-7.85235e-07
2.73578e-06
-1.45383e-06
2.36621e-06
-2.16749e-06
1.91332e-06
-3.0268e-06
1.34429e-06
-3.89251e-06
7.86841e-07
-5.4204e-06
2.90376e-07
-8.06824e-06
-1.20454e-05
1.22456e-06
1.30951e-06
2.12005e-06
4.4522e-06
2.82554e-06
5.24016e-06
3.44762e-06
5.12097e-06
3.89096e-06
4.52635e-06
4.18564e-06
3.72315e-06
4.37697e-06
2.93404e-06
4.49282e-06
2.21462e-06
4.54002e-06
1.58255e-06
4.52268e-06
1.01049e-06
4.43246e-06
4.9467e-07
4.26835e-06
-1.71549e-08
4.00982e-06
-5.26709e-07
3.65557e-06
-1.09958e-06
3.17227e-06
-1.68419e-06
2.56803e-06
-2.42256e-06
1.83262e-06
-3.1571e-06
1.10596e-06
-4.69373e-06
4.74566e-07
-7.43685e-06
-1.15708e-05
6.94668e-07
6.14846e-07
1.87557e-06
3.27129e-06
2.92314e-06
4.19259e-06
3.82763e-06
4.21648e-06
4.5451e-06
3.80888e-06
5.06141e-06
3.20684e-06
5.4171e-06
2.57835e-06
5.64236e-06
1.98936e-06
5.75571e-06
1.46919e-06
5.77456e-06
9.91638e-07
5.68884e-06
5.80392e-07
5.49645e-06
1.75233e-07
5.17704e-06
-2.07297e-07
4.73787e-06
-6.60417e-07
4.12606e-06
-1.07237e-06
3.36782e-06
-1.66432e-06
2.46458e-06
-2.25386e-06
1.54753e-06
-3.77669e-06
6.90578e-07
-6.57989e-06
-1.08803e-05
6.35343e-08
5.51312e-07
1.10601e-06
2.22881e-06
2.34455e-06
2.95406e-06
3.58923e-06
2.9718e-06
4.65304e-06
2.74507e-06
5.48751e-06
2.37237e-06
6.09873e-06
1.96713e-06
6.5254e-06
1.56269e-06
6.77714e-06
1.21746e-06
6.88641e-06
8.82363e-07
6.84358e-06
6.23227e-07
6.68695e-06
3.31855e-07
6.37847e-06
1.01184e-07
5.91807e-06
-2.0001e-07
5.27152e-06
-4.25824e-07
4.47507e-06
-8.67876e-07
3.5138e-06
-1.29259e-06
2.46343e-06
-2.72631e-06
1.18031e-06
-5.29678e-06
-9.69994e-06
-1.10183e-06
1.65315e-06
-1.57057e-07
1.28404e-06
1.46758e-06
1.32942e-06
3.05482e-06
1.38456e-06
4.41231e-06
1.38757e-06
5.52487e-06
1.25982e-06
6.397e-06
1.095e-06
7.05742e-06
9.02269e-07
7.52306e-06
7.51818e-07
7.81423e-06
5.91191e-07
7.96457e-06
4.72886e-07
7.96849e-06
3.27932e-07
7.83837e-06
2.31305e-07
7.55336e-06
8.50054e-08
7.1439e-06
-1.63723e-08
6.56381e-06
-2.87784e-07
5.83672e-06
-5.65494e-07
4.74452e-06
-1.63412e-06
2.67207e-06
-3.22433e-06
-7.02787e-06
1.65315e-06
2.93718e-06
4.2666e-06
5.65116e-06
7.03874e-06
8.29856e-06
9.39356e-06
1.02958e-05
1.10476e-05
1.16388e-05
1.21117e-05
1.24397e-05
1.2671e-05
1.2756e-05
1.27396e-05
1.24518e-05
1.18863e-05
1.02522e-05
7.02787e-06
)
;

boundaryField
{
    movingWall
    {
        type            calculated;
        value           uniform 0;
    }
    fixedWalls
    {
        type            calculated;
        value           uniform 0;
    }
    frontAndBack
    {
        type            empty;
        value           nonuniform 0();
    }
}


// ************************************************************************* //
