/*--------------------------------*- C++ -*----------------------------------*\
| =========                 |                                                 |
| \\      /  F ield         | OpenFOAM: The Open Source CFD Toolbox           |
|  \\    /   O peration     | Version:  3.0.0                                 |
|   \\  /    A nd           | Web:      www.OpenFOAM.org                      |
|    \\/     M anipulation  |                                                 |
\*---------------------------------------------------------------------------*/
FoamFile
{
    version     2.0;
    format      ascii;
    class       volVectorField;
    location    "8";
    object      U;
}
// * * * * * * * * * * * * * * * * * * * * * * * * * * * * * * * * * * * * * //

dimensions      [0 1 -1 0 0 0 0];

internalField   nonuniform List<vector> 
400
(
(0.00291247 -0.00380312 0)
(0.00749488 -0.00153976 0)
(-0.000411008 0.00143376 0)
(-0.0114212 0.00771151 0)
(-0.0484931 0.017177 0)
(-0.0860905 0.0161052 0)
(-0.112627 0.013342 0)
(-0.136411 0.0110684 0)
(-0.151355 0.00854739 0)
(-0.164188 0.00624909 0)
(-0.170492 0.00386332 0)
(-0.173586 0.00213091 0)
(-0.17303 -0.00140983 0)
(-0.165997 -0.00344963 0)
(-0.154819 -0.00750731 0)
(-0.135714 -0.0102837 0)
(-0.110518 -0.014576 0)
(-0.0772015 -0.0164639 0)
(-0.0421018 -0.0168198 0)
(-0.00790584 -0.00337987 0)
(0.000501587 -0.00825292 0)
(-0.00708472 0.00483739 0)
(-0.0288102 0.0222742 0)
(-0.0673167 0.0445667 0)
(-0.100808 0.0470869 0)
(-0.123789 0.0415185 0)
(-0.142984 0.0349897 0)
(-0.156285 0.0273899 0)
(-0.16845 0.0189681 0)
(-0.175304 0.012418 0)
(-0.179846 0.00559929 0)
(-0.179809 -0.000257881 0)
(-0.176918 -0.0070951 0)
(-0.169973 -0.0142035 0)
(-0.159083 -0.0234653 0)
(-0.142665 -0.0342741 0)
(-0.120652 -0.0472963 0)
(-0.0921023 -0.0592248 0)
(-0.0583192 -0.0615389 0)
(-0.0176129 -0.0376101 0)
(-0.006937 0.00450024 0)
(-0.0287791 0.0327157 0)
(-0.0610486 0.0592026 0)
(-0.092007 0.0714314 0)
(-0.11166 0.0672411 0)
(-0.126324 0.058818 0)
(-0.137524 0.0470201 0)
(-0.145717 0.0354257 0)
(-0.149688 0.0259278 0)
(-0.151009 0.0161328 0)
(-0.151103 0.00732006 0)
(-0.149474 -0.00167633 0)
(-0.146928 -0.0107049 0)
(-0.141032 -0.0208763 0)
(-0.133173 -0.0328815 0)
(-0.121459 -0.0479154 0)
(-0.105903 -0.0665047 0)
(-0.0845324 -0.0873878 0)
(-0.057086 -0.102011 0)
(-0.0215323 -0.0868048 0)
(-0.0104017 0.0287781 0)
(-0.0402981 0.0625234 0)
(-0.0716882 0.0856369 0)
(-0.0918615 0.0895956 0)
(-0.103831 0.08108 0)
(-0.112032 0.068735 0)
(-0.116101 0.0544951 0)
(-0.118024 0.0408203 0)
(-0.118971 0.0281527 0)
(-0.119905 0.016691 0)
(-0.119478 0.00632864 0)
(-0.11804 -0.00383299 0)
(-0.115042 -0.0142366 0)
(-0.110423 -0.0258996 0)
(-0.104065 -0.0396789 0)
(-0.0957782 -0.0568552 0)
(-0.0847416 -0.0786454 0)
(-0.0691326 -0.104955 0)
(-0.0482856 -0.128085 0)
(-0.0186346 -0.125106 0)
(-0.0114806 0.0536425 0)
(-0.0429634 0.0883653 0)
(-0.0654168 0.104486 0)
(-0.0797656 0.103124 0)
(-0.0860919 0.0899717 0)
(-0.0900715 0.0744066 0)
(-0.0915447 0.0576353 0)
(-0.0931169 0.0425737 0)
(-0.0939602 0.0289637 0)
(-0.0942887 0.0166971 0)
(-0.0935828 0.00523371 0)
(-0.0919473 -0.00607045 0)
(-0.08905 -0.0177995 0)
(-0.0849341 -0.0307541 0)
(-0.079589 -0.0458601 0)
(-0.0730977 -0.0643912 0)
(-0.0651697 -0.0880563 0)
(-0.0532724 -0.119073 0)
(-0.0386127 -0.15048 0)
(-0.0160291 -0.156555 0)
(-0.00975503 0.0778312 0)
(-0.0372912 0.111018 0)
(-0.0527766 0.120028 0)
(-0.0635468 0.112694 0)
(-0.0667124 0.095301 0)
(-0.0694179 0.0771169 0)
(-0.0706058 0.0590963 0)
(-0.0721522 0.0434633 0)
(-0.0727687 0.0293309 0)
(-0.0729189 0.0164254 0)
(-0.0722037 0.00410633 0)
(-0.0706854 -0.00816494 0)
(-0.0681464 -0.0209766 0)
(-0.0645936 -0.0350112 0)
(-0.0600686 -0.0510769 0)
(-0.0547187 -0.0703116 0)
(-0.0489403 -0.0942364 0)
(-0.0397671 -0.126237 0)
(-0.032496 -0.165735 0)
(-0.00881834 -0.181215 0)
(-0.00817052 0.0987536 0)
(-0.0288699 0.126994 0)
(-0.0388108 0.131148 0)
(-0.0473137 0.119196 0)
(-0.0486992 0.098699 0)
(-0.0512567 0.0789348 0)
(-0.0524397 0.060296 0)
(-0.0538848 0.0442126 0)
(-0.054418 0.0295891 0)
(-0.0546158 0.0160943 0)
(-0.0540996 0.00307322 0)
(-0.0529286 -0.0100148 0)
(-0.0509352 -0.0237664 0)
(-0.048105 -0.038797 0)
(-0.0444576 -0.0558185 0)
(-0.0399587 -0.0759357 0)
(-0.0359506 -0.100449 0)
(-0.027727 -0.133748 0)
(-0.0260764 -0.175928 0)
(-0.00655703 -0.201119 0)
(-0.00450711 0.11364 0)
(-0.0188961 0.140243 0)
(-0.026187 0.140684 0)
(-0.032186 0.124392 0)
(-0.0327335 0.101686 0)
(-0.0351563 0.0806557 0)
(-0.0362685 0.0615449 0)
(-0.0375877 0.044999 0)
(-0.0381403 0.029935 0)
(-0.0384529 0.0159607 0)
(-0.0382164 0.00240426 0)
(-0.037486 -0.0113084 0)
(-0.0361301 -0.0257729 0)
(-0.0341172 -0.0415571 0)
(-0.0315238 -0.059229 0)
(-0.0278439 -0.0798517 0)
(-0.025936 -0.104292 0)
(-0.0185922 -0.138117 0)
(-0.0215129 -0.182481 0)
(-0.00207446 -0.216432 0)
(-0.00201813 0.123353 0)
(-0.0105302 0.147405 0)
(-0.0143861 0.145598 0)
(-0.0182262 0.127345 0)
(-0.0183478 0.10354 0)
(-0.0205286 0.0820342 0)
(-0.0215132 0.062703 0)
(-0.022686 0.0457862 0)
(-0.0232696 0.0303841 0)
(-0.0236896 0.0160512 0)
(-0.0237369 0.0021079 0)
(-0.0234503 -0.0120555 0)
(-0.0227493 -0.0270475 0)
(-0.0215736 -0.0434483 0)
(-0.0202095 -0.0616996 0)
(-0.0172183 -0.0828657 0)
(-0.0176473 -0.107301 0)
(-0.0105764 -0.141449 0)
(-0.0176636 -0.186528 0)
(-0.000545466 -0.228566 0)
(0.00200734 0.126694 0)
(-0.0020399 0.152973 0)
(-0.00324019 0.149831 0)
(-0.00533573 0.130099 0)
(-0.00522099 0.105761 0)
(-0.00690807 0.0835928 0)
(-0.00766005 0.0638609 0)
(-0.00861761 0.046566 0)
(-0.00919027 0.0309046 0)
(-0.00968682 0.0163372 0)
(-0.00999012 0.00216839 0)
(-0.0101195 -0.0122519 0)
(-0.0100798 -0.027526 0)
(-0.00971182 -0.0442756 0)
(-0.00978848 -0.0628359 0)
(-0.00749297 -0.0841347 0)
(-0.0106207 -0.108443 0)
(-0.00384011 -0.142104 0)
(-0.0148904 -0.187921 0)
(0.00260865 -0.237489 0)
(0.00497049 0.124562 0)
(0.00480758 0.152813 0)
(0.00738638 0.149406 0)
(0.0071268 0.130201 0)
(0.00767004 0.105912 0)
(0.00652812 0.0840297 0)
(0.00598538 0.064465 0)
(0.00524505 0.0471381 0)
(0.00469544 0.0314169 0)
(0.00413999 0.0167751 0)
(0.00360388 0.00254646 0)
(0.00308412 -0.011943 0)
(0.00243959 -0.0272807 0)
(0.00205448 -0.0441212 0)
(0.000534777 -0.0628244 0)
(0.00189385 -0.0838082 0)
(-0.00390797 -0.108341 0)
(0.00263569 -0.140814 0)
(-0.0127083 -0.18786 0)
(0.00422247 -0.243938 0)
(0.00720972 0.117776 0)
(0.0126938 0.150587 0)
(0.017649 0.148637 0)
(0.0193125 0.131596 0)
(0.0202862 0.107375 0)
(0.0198484 0.0851512 0)
(0.0196857 0.0652975 0)
(0.0193072 0.0477708 0)
(0.0189127 0.0319848 0)
(0.0183722 0.017364 0)
(0.0176287 0.00324045 0)
(0.0167391 -0.011109 0)
(0.0153798 -0.0262615 0)
(0.0141841 -0.0429038 0)
(0.011419 -0.0614266 0)
(0.0113076 -0.081942 0)
(0.00310192 -0.106003 0)
(0.00891701 -0.137205 0)
(-0.011018 -0.185253 0)
(0.00764887 -0.247682 0)
(0.0101319 0.106568 0)
(0.0191006 0.142232 0)
(0.0276003 0.142324 0)
(0.0314683 0.12943 0)
(0.0338441 0.105561 0)
(0.0342369 0.0841483 0)
(0.0345025 0.0649051 0)
(0.034489 0.047771 0)
(0.0342508 0.0323249 0)
(0.0337131 0.0180245 0)
(0.0327181 0.00426602 0)
(0.0314704 -0.00969403 0)
(0.0292794 -0.0243719 0)
(0.0273395 -0.0405534 0)
(0.0230282 -0.0583767 0)
(0.0214466 -0.0786343 0)
(0.0109615 -0.101273 0)
(0.0152268 -0.13174 0)
(-0.00900246 -0.181158 0)
(0.0107095 -0.249484 0)
(0.012655 0.0874206 0)
(0.0262156 0.133159 0)
(0.0380938 0.136691 0)
(0.0429734 0.12786 0)
(0.0471159 0.106518 0)
(0.0487823 0.0845661 0)
(0.0499035 0.0651448 0)
(0.0506019 0.0480775 0)
(0.0508105 0.0328805 0)
(0.0505175 0.0189343 0)
(0.0493639 0.00567812 0)
(0.0478628 -0.00767552 0)
(0.0447361 -0.0215728 0)
(0.0420551 -0.0369115 0)
(0.0359174 -0.0536982 0)
(0.0328533 -0.0731456 0)
(0.0196138 -0.0939752 0)
(0.0218015 -0.124504 0)
(-0.00652612 -0.175486 0)
(0.0153866 -0.249456 0)
(0.0148825 0.0660436 0)
(0.030587 0.1159 0)
(0.0460252 0.125143 0)
(0.0545347 0.119212 0)
(0.0612346 0.10208 0)
(0.065238 0.081707 0)
(0.0677146 0.0631931 0)
(0.069283 0.0469306 0)
(0.0699126 0.0325769 0)
(0.0698742 0.0194868 0)
(0.0684006 0.00719372 0)
(0.0666416 -0.0051446 0)
(0.0623671 -0.0178002 0)
(0.0589386 -0.0318509 0)
(0.0506561 -0.0470607 0)
(0.0460042 -0.0651718 0)
(0.0294414 -0.0838914 0)
(0.0291651 -0.11467 0)
(-0.00383875 -0.167647 0)
(0.0199893 -0.248675 0)
(0.0150647 0.0369657 0)
(0.0344362 0.10103 0)
(0.0507579 0.115081 0)
(0.0624497 0.11227 0)
(0.0723734 0.0985542 0)
(0.0800026 0.080227 0)
(0.0852634 0.0624327 0)
(0.0887655 0.046644 0)
(0.0904072 0.0329613 0)
(0.0912076 0.0206896 0)
(0.0895967 0.00947223 0)
(0.0879874 -0.00163988 0)
(0.0826237 -0.0127488 0)
(0.0785798 -0.0251569 0)
(0.0679324 -0.0382224 0)
(0.0613551 -0.0543146 0)
(0.0408464 -0.070606 0)
(0.037861 -0.102032 0)
(-0.000967671 -0.158102 0)
(0.0260973 -0.245288 0)
(0.00154376 0.0109241 0)
(0.0283105 0.0722628 0)
(0.0504055 0.0932015 0)
(0.0671896 0.0945954 0)
(0.0823424 0.085469 0)
(0.0948228 0.0715891 0)
(0.103965 0.0571369 0)
(0.110649 0.043275 0)
(0.113863 0.031007 0)
(0.116188 0.0200122 0)
(0.114524 0.01037 0)
(0.11324 0.000960828 0)
(0.106486 -0.00792331 0)
(0.101539 -0.0178322 0)
(0.0882549 -0.0276162 0)
(0.079348 -0.0406568 0)
(0.0550426 -0.0539756 0)
(0.0492969 -0.0861115 0)
(0.00308121 -0.145067 0)
(0.0337477 -0.235315 0)
(-0.00988472 0.0177637 0)
(0.0128063 0.0627867 0)
(0.0361799 0.0786887 0)
(0.0590825 0.0792749 0)
(0.0807138 0.0723522 0)
(0.10034 0.0616349 0)
(0.114868 0.0504198 0)
(0.12657 0.0403007 0)
(0.132525 0.0310908 0)
(0.137748 0.0222605 0)
(0.137139 0.0147766 0)
(0.136979 0.0071546 0)
(0.130241 0.000783611 0)
(0.125284 -0.00680151 0)
(0.111258 -0.0132257 0)
(0.101335 -0.0237755 0)
(0.0761528 -0.0345267 0)
(0.0687977 -0.0666147 0)
(0.0154684 -0.124338 0)
(0.0487124 -0.206929 0)
(-0.0215874 -0.00199436 0)
(-0.0175086 0.0149607 0)
(0.0131505 0.0319797 0)
(0.0451514 0.0370697 0)
(0.073343 0.0374297 0)
(0.0989696 0.0339651 0)
(0.118325 0.0290534 0)
(0.135033 0.0229352 0)
(0.14559 0.0182246 0)
(0.154391 0.0132866 0)
(0.157893 0.00980312 0)
(0.160395 0.00538397 0)
(0.158077 0.00267967 0)
(0.155076 -0.00206996 0)
(0.145975 -0.00501535 0)
(0.138866 -0.0120107 0)
(0.119349 -0.0192786 0)
(0.111974 -0.0453958 0)
(0.0573902 -0.088997 0)
(0.0822428 -0.15342 0)
(0.0390916 0.0795549 0)
(0.0393046 0.048551 0)
(0.069733 0.0295656 0)
(0.0992091 0.0229085 0)
(0.125917 0.0208791 0)
(0.152754 0.0188691 0)
(0.175694 0.0170568 0)
(0.196862 0.0150711 0)
(0.213261 0.0134554 0)
(0.227653 0.011762 0)
(0.237639 0.0104324 0)
(0.246356 0.00897758 0)
(0.251022 0.00777622 0)
(0.254851 0.00627649 0)
(0.254521 0.00476517 0)
(0.251442 0.00221457 0)
(0.242059 0.0012703 0)
(0.226331 -0.00827239 0)
(0.172162 -0.017229 0)
(0.157582 -0.0940071 0)
)
;

boundaryField
{
    movingWall
    {
        type            fixedValue;
        value           uniform (1 0 0);
    }
    fixedWalls
    {
        type            fixedValue;
        value           uniform (0 0 0);
    }
    frontAndBack
    {
        type            empty;
    }
}


// ************************************************************************* //
