/*--------------------------------*- C++ -*----------------------------------*\
| =========                 |                                                 |
| \\      /  F ield         | OpenFOAM: The Open Source CFD Toolbox           |
|  \\    /   O peration     | Version:  3.0.0                                 |
|   \\  /    A nd           | Web:      www.OpenFOAM.org                      |
|    \\/     M anipulation  |                                                 |
\*---------------------------------------------------------------------------*/
FoamFile
{
    version     2.0;
    format      ascii;
    class       volScalarField;
    location    "9";
    object      p;
}
// * * * * * * * * * * * * * * * * * * * * * * * * * * * * * * * * * * * * * //

dimensions      [0 2 -2 0 0 0 0];

internalField   nonuniform List<scalar> 
4096
(
0.010293
-0.00124912
-0.0104311
-0.0188426
-0.0255548
-0.030416
-0.033371
-0.0338162
-0.0303857
-0.0231125
-0.0133102
-0.00308003
0.00565241
0.0114564
0.0137052
0.0158074
0.0335067
0.0222119
0.0147388
0.00594447
-0.00378785
-0.0130923
-0.0210121
-0.0252399
-0.0238486
-0.016463
-0.00459523
0.00892682
0.0211175
0.0295059
0.033286
0.0385762
0.0604342
0.0468872
0.0402135
0.0313013
0.0206836
0.00897976
-0.00172844
-0.00904739
-0.0105827
-0.00514589
0.00654742
0.0218822
0.0372351
0.0488207
0.0550565
0.0653999
0.0767726
0.0620362
0.0576511
0.050637
0.041219
0.0302854
0.0191517
0.0100171
0.00531885
0.00703245
0.0157164
0.0298869
0.0459776
0.0590693
0.0667523
0.0814201
0.0783556
0.06425
0.0630593
0.0597097
0.053875
0.0459824
0.0366433
0.0273037
0.0201134
0.0174011
0.0211118
0.0314472
0.0456441
0.0582039
0.065924
0.0821818
0.0656895
0.0541545
0.0559943
0.0570762
0.0562119
0.0530124
0.0472751
0.0395863
0.0312972
0.0246849
0.0227643
0.0274917
0.0375919
0.0476483
0.0539266
0.0681531
0.0430691
0.0351072
0.0392177
0.0444926
0.0489385
0.0511408
0.0501154
0.0454715
0.0375965
0.0283647
0.0213708
0.0200374
0.0246083
0.0307762
0.0344486
0.0435569
0.0166589
0.0118759
0.0171415
0.0257359
0.0347591
0.0420287
0.0458417
0.04485
0.0384957
0.0280915
0.0174072
0.0108155
0.00985843
0.011675
0.0122934
0.0151257
-0.00809303
-0.0114376
-0.00575624
0.0048459
0.0169911
0.0281029
0.0359451
0.0384114
0.0340726
0.0237436
0.011146
0.00100249
-0.00423686
-0.00624225
-0.00835275
-0.010073
-0.0279178
-0.0320584
-0.0262397
-0.0150333
-0.00151615
0.0118014
0.0223851
0.0275554
0.0252961
0.0160547
0.0033624
-0.00834397
-0.0160451
-0.0207787
-0.0250989
-0.0271734
-0.0416109
-0.0489853
-0.0430812
-0.0323437
-0.0188655
-0.00482296
0.00712795
0.0140636
0.013688
0.00627114
-0.00508487
-0.0163055
-0.0247764
-0.0311837
-0.037523
-0.0364001
-0.0504231
-0.061612
-0.0561077
-0.0464433
-0.033858
-0.0202059
-0.00810325
-0.000293338
0.001067
-0.00392806
-0.0128224
-0.0223877
-0.0305071
-0.0378245
-0.0459445
-0.041747
-0.0549015
-0.0679524
-0.0640002
-0.0560981
-0.0451376
-0.032942
-0.0218907
-0.0141002
-0.0112792
-0.0135494
-0.0193204
-0.0264447
-0.0334345
-0.0408569
-0.0497885
-0.0452722
-0.0536616
-0.0661964
-0.0646919
-0.0593163
-0.0510227
-0.0416494
-0.0329996
-0.0262171
-0.0223735
-0.0218443
-0.024041
-0.0279843
-0.0329371
-0.0393333
-0.0476887
-0.0450788
-0.0444583
-0.0551135
-0.056282
-0.0540611
-0.049579
-0.0444929
-0.0397127
-0.0351146
-0.0309271
-0.0277025
-0.0258846
-0.0257398
-0.0273955
-0.0312903
-0.0374487
-0.037532
-0.0197773
-0.0305365
-0.0358602
-0.0383093
-0.0387433
-0.0386746
-0.0386642
-0.0373894
-0.0338953
-0.0284065
-0.0220498
-0.0162637
-0.0122695
-0.011057
-0.0129642
-0.0137245
0.0229117
0.0106489
0.00208296
-0.00600094
-0.0126709
-0.0178228
-0.0215111
-0.0228622
-0.0205354
-0.0141008
-0.00460144
0.00590645
0.0153637
0.0220581
0.0252136
0.0292087
0.0504726
0.0367713
0.0282555
0.0183215
0.00806951
-0.00138751
-0.00911489
-0.0134258
-0.0126141
-0.00600697
0.00537987
0.019098
0.0322807
0.0422296
0.047776
0.0561145
0.0758569
0.0605709
0.0522773
0.0414157
0.0292458
0.0172474
0.00680691
-0.000149313
-0.00158134
0.00362642
0.0150427
0.0304392
0.0464389
0.0593438
0.0674294
0.0803207
0.0881358
0.0732919
0.066864
0.0573299
0.045761
0.0336163
0.0222429
0.0134617
0.00930911
0.0114207
0.0203823
0.0347829
0.0512913
0.0654771
0.0750759
0.0910439
0.0838358
0.0717436
0.0685521
0.0624454
0.0539793
0.0441871
0.0339828
0.0247615
0.0182712
0.0164223
0.0208628
0.0315867
0.0459159
0.0591846
0.068686
0.0851165
0.0642988
0.0563433
0.0569698
0.0556409
0.0521544
0.0467782
0.0397824
0.0318545
0.0241231
0.0184641
0.0174488
0.0226206
0.0324432
0.042589
0.0501979
0.0641021
0.0346028
0.0308448
0.0348556
0.0386487
0.0409943
0.0412138
0.038827
0.0336106
0.0258982
0.0173531
0.0112008
0.0103104
0.0144118
0.0199947
0.0242473
0.03315
0.00218184
0.00127276
0.00752153
0.0156666
0.0234387
0.0293188
0.031867
0.0299396
0.0231188
0.0128788
0.00287811
-0.00313785
-0.00439075
-0.00352591
-0.00315615
-0.000285775
-0.0258092
-0.026014
-0.0188128
-0.00783756
0.00395585
0.0142764
0.0209299
0.0219212
0.0162952
0.00548207
-0.00662361
-0.0158559
-0.0208436
-0.0235833
-0.0264443
-0.0284032
-0.0452334
-0.0466028
-0.03943
-0.0274771
-0.013705
-0.000772851
0.00846343
0.0114181
0.00694555
-0.00343502
-0.015879
-0.0261175
-0.0327614
-0.0375357
-0.0423361
-0.0456302
-0.0558204
-0.059935
-0.0531826
-0.0417566
-0.0277819
-0.0139716
-0.00369474
0.000287899
-0.00297164
-0.011882
-0.0229561
-0.0326847
-0.039601
-0.0450405
-0.0508454
-0.0520819
-0.0601743
-0.0668667
-0.0613385
-0.0513278
-0.03821
-0.0247722
-0.0146325
-0.0102945
-0.0122307
-0.0188818
-0.0274821
-0.0354626
-0.0417052
-0.0473653
-0.0538676
-0.052745
-0.0599861
-0.0679079
-0.0642864
-0.0562356
-0.0447857
-0.032825
-0.023814
-0.0195973
-0.0201138
-0.0239992
-0.0294366
-0.0349586
-0.0400248
-0.0455114
-0.0522202
-0.050951
-0.0539396
-0.0616362
-0.0604569
-0.0550257
-0.046355
-0.037208
-0.0303936
-0.0268653
-0.0260847
-0.0270271
-0.0288937
-0.03134
-0.0344467
-0.038861
-0.0448352
-0.0452558
-0.0393344
-0.0466312
-0.0480681
-0.0459992
-0.041377
-0.0364121
-0.0328926
-0.0307835
-0.029119
-0.02723
-0.0252433
-0.0238568
-0.023842
-0.0258859
-0.0299104
-0.0315983
-0.0116346
-0.0205277
-0.025393
-0.0278745
-0.028522
-0.0286831
-0.0291305
-0.0289936
-0.0268935
-0.022343
-0.016163
-0.00994831
-0.00523952
-0.003194
-0.0040168
-0.00474222
0.038288
0.0257043
0.0174197
0.00863797
0.000773829
-0.0053681
-0.00948971
-0.0108152
-0.00834885
-0.00184244
0.00762182
0.018051
0.0274853
0.0342753
0.0378006
0.0436803
0.0645938
0.0501858
0.040841
0.0296563
0.0182837
0.00823785
0.000518187
-0.00355785
-0.00256632
0.00409648
0.0155206
0.029419
0.0430141
0.0535759
0.0598904
0.0693469
0.0842362
0.0695886
0.0601928
0.0480719
0.0349468
0.0226392
0.0123884
0.00581016
0.00455757
0.00972281
0.0209729
0.0363362
0.0526381
0.0662285
0.0752195
0.0876717
0.089924
0.0773095
0.0696035
0.0588135
0.0464037
0.0339431
0.0227302
0.0142945
0.0103599
0.0123915
0.0209574
0.0350957
0.0517766
0.066749
0.0775139
0.0916908
0.0798191
0.0710197
0.0664988
0.0590861
0.049719
0.0394571
0.0292185
0.0201916
0.0138626
0.0118763
0.0158268
0.0261204
0.0405557
0.0547517
0.0657354
0.0799003
0.0560739
0.0517093
0.0511141
0.0484761
0.0439568
0.0378428
0.0304131
0.0222677
0.0144023
0.00849113
0.00700594
0.0118061
0.0218509
0.0331512
0.0425587
0.0548061
0.0239361
0.0233314
0.02648
0.0290925
0.0303672
0.0295564
0.0261868
0.0200565
0.0115836
0.00247152
-0.0040459
-0.00494428
-0.000191053
0.00687279
0.0132501
0.021731
-0.00962427
-0.00810326
-0.00210897
0.00528941
0.0121499
0.01687
0.0178825
0.014205
0.00578318
-0.00553136
-0.015838
-0.0213392
-0.0213418
-0.0186703
-0.01609
-0.0123431
-0.0378134
-0.0359269
-0.028228
-0.0172817
-0.00593618
0.00322341
0.00788385
0.00637284
-0.00161903
-0.0140049
-0.0264459
-0.0347881
-0.0381004
-0.0388247
-0.0397264
-0.0403728
-0.0559505
-0.0548213
-0.046537
-0.0339053
-0.0201426
-0.00837572
-0.00147963
-0.00149284
-0.00872582
-0.0209131
-0.0337
-0.0430436
-0.0480631
-0.0507297
-0.0539008
-0.0567336
-0.0632025
-0.0635105
-0.0555733
-0.0431831
-0.0291635
-0.0167314
-0.00902342
-0.00809249
-0.0140749
-0.0247425
-0.0362144
-0.0450491
-0.0503914
-0.0540468
-0.0583023
-0.06053
-0.062472
-0.0641577
-0.0575225
-0.0467989
-0.034059
-0.0223682
-0.0148084
-0.0131588
-0.0173407
-0.0254063
-0.0343602
-0.0416857
-0.0467358
-0.0508952
-0.0555344
-0.0562953
-0.0563785
-0.0589663
-0.0545018
-0.0463158
-0.0358741
-0.0259192
-0.0191693
-0.0169431
-0.0189844
-0.0238346
-0.0295652
-0.0347368
-0.0390261
-0.0432842
-0.0480627
-0.0482985
-0.0446645
-0.0479236
-0.0461895
-0.0412729
-0.0341347
-0.0269566
-0.0218042
-0.019433
-0.0194443
-0.0209195
-0.0230162
-0.0253366
-0.027976
-0.0313925
-0.0353952
-0.0365785
-0.0251389
-0.030015
-0.031302
-0.0303163
-0.0274839
-0.0241623
-0.0215654
-0.0198184
-0.0183421
-0.0166502
-0.0148196
-0.0134135
-0.0130838
-0.0143115
-0.0167734
-0.017829
0.00368745
-0.00439726
-0.0090722
-0.0126044
-0.0147771
-0.0159793
-0.0165631
-0.0160499
-0.0136321
-0.00909568
-0.00321941
0.00262025
0.00713051
0.00933832
0.00927406
0.0101969
0.0496997
0.0364804
0.0275193
0.0180472
0.009738
0.00348921
-0.000477746
-0.00161862
0.000999399
0.00773809
0.0175494
0.0283764
0.0381868
0.0452687
0.0489131
0.0547356
0.0713088
0.0571624
0.0465179
0.0342849
0.0224502
0.0125668
0.00538993
0.00189145
0.00327845
0.010163
0.0216784
0.0356262
0.0493784
0.0602756
0.0671021
0.0754361
0.0835263
0.0706717
0.0599609
0.0468788
0.0334723
0.0214755
0.0119752
0.00617334
0.00546301
0.0107705
0.0217462
0.0366118
0.0525812
0.0664056
0.0759881
0.0862407
0.0823521
0.0727138
0.0638502
0.052165
0.0394717
0.0273273
0.0168053
0.00911687
0.00568743
0.00775174
0.0158027
0.0290806
0.0451165
0.0602004
0.0717693
0.0833352
0.0672788
0.0619462
0.0565474
0.0483637
0.0386221
0.0284249
0.0185104
0.00983544
0.00369929
0.0015635
0.00491062
0.0143541
0.0281901
0.0426124
0.0546484
0.0666272
0.0410664
0.0400201
0.0389286
0.0356835
0.0306911
0.0242047
0.01643
0.00789441
-0.00042561
-0.00685425
-0.00890161
-0.00459853
0.00538614
0.0173084
0.0278973
0.0393651
0.00873831
0.0110363
0.0142019
0.016462
0.0171731
0.0155631
0.0110594
0.0035907
-0.00619914
-0.0163489
-0.0233791
-0.024162
-0.018713
-0.0104141
-0.00237138
0.00611236
-0.0233043
-0.019232
-0.0125461
-0.00507356
0.00133088
0.00484894
0.00400443
-0.00190144
-0.0124471
-0.025297
-0.036137
-0.0410479
-0.0397283
-0.0353324
-0.0309314
-0.0262109
-0.048819
-0.0443355
-0.0352193
-0.0236663
-0.0126049
-0.00482886
-0.00251542
-0.006837
-0.0174324
-0.0316215
-0.0446351
-0.0522298
-0.0539567
-0.0528793
-0.0522015
-0.0514512
-0.0630272
-0.0589342
-0.0487684
-0.035112
-0.0214634
-0.0111594
-0.00679614
-0.00975128
-0.0196046
-0.0335362
-0.0468685
-0.0555801
-0.0591799
-0.0605299
-0.0623861
-0.0642167
-0.065094
-0.061822
-0.0521231
-0.0386924
-0.0248253
-0.0138992
-0.00861052
-0.0103177
-0.0185362
-0.030623
-0.0425253
-0.0509035
-0.0552762
-0.0579373
-0.061022
-0.0633458
-0.0584888
-0.0563066
-0.0484072
-0.0370475
-0.0247321
-0.014547
-0.00904442
-0.00942758
-0.0152177
-0.0242454
-0.0334284
-0.0403973
-0.0447916
-0.0481296
-0.0515883
-0.0533358
-0.0466467
-0.0461075
-0.0409863
-0.0327415
-0.0230486
-0.0144725
-0.00924188
-0.00833665
-0.0113304
-0.0166555
-0.0223809
-0.0271756
-0.0309132
-0.0344281
-0.0379906
-0.0395665
-0.0301799
-0.0320948
-0.0302603
-0.0258306
-0.0196559
-0.0135787
-0.00934998
-0.00764526
-0.00805701
-0.00961478
-0.0114625
-0.0132863
-0.0153217
-0.0180524
-0.0212343
-0.0227008
-0.0079806
-0.0133347
-0.0150413
-0.0149614
-0.0131435
-0.0105507
-0.0083052
-0.00669094
-0.0052253
-0.00336559
-0.0011291
0.000878663
0.00189476
0.00133139
-0.000614739
-0.000944533
0.019585
0.0102257
0.00491335
0.000465968
-0.00240334
-0.00377616
-0.00414084
-0.00336535
-0.000787204
0.00389666
0.0100133
0.0162178
0.0211975
0.0239119
0.0240566
0.0259665
0.0566688
0.0431912
0.0329078
0.0227299
0.0143661
0.00848353
0.00481815
0.00368336
0.00610616
0.0128579
0.0230892
0.0345861
0.0451125
0.0528577
0.0568854
0.0613575
0.0711452
0.058077
0.0460084
0.032904
0.0209479
0.0114857
0.00492537
0.00189796
0.00347418
0.0103831
0.0218522
0.0357231
0.0495161
0.0608764
0.068325
0.0747451
0.0756966
0.0649917
0.0531773
0.0393986
0.0259736
0.0145131
0.00579684
0.000634643
0.000214623
0.00542347
0.0159178
0.0300281
0.0453852
0.0592302
0.0695489
0.0777742
0.068421
0.0613725
0.0518079
0.0396367
0.0269538
0.0152655
0.00542738
-0.00167108
-0.00486385
-0.00301365
0.00435139
0.0165727
0.031702
0.0466413
0.0588998
0.0687387
0.0498671
0.0470514
0.0413137
0.0328021
0.0230126
0.0129693
0.00330884
-0.00515897
-0.0113822
-0.0139185
-0.0112345
-0.0026348
0.0105643
0.0250094
0.0378302
0.0485488
0.0230686
0.0242335
0.0231298
0.0196934
0.0144935
0.00772472
-0.000423871
-0.00948634
-0.0184594
-0.0255556
-0.0280995
-0.0240106
-0.0139954
-0.00156059
0.0101675
0.0205967
-0.00727023
-0.00306842
0.000469556
0.00272293
0.00306372
0.000688947
-0.00492383
-0.0137045
-0.0247453
-0.0358168
-0.0431681
-0.0435559
-0.0373166
-0.0280349
-0.0188965
-0.0103751
-0.0355603
-0.0296143
-0.0220052
-0.0142481
-0.00826419
-0.00593546
-0.00852713
-0.0163587
-0.0285583
-0.0424429
-0.053474
-0.0576991
-0.0551934
-0.0497108
-0.0442569
-0.0388756
-0.0563093
-0.0496544
-0.0389772
-0.0267853
-0.016119
-0.00976122
-0.009532
-0.0160336
-0.028354
-0.0434927
-0.0566139
-0.0635954
-0.0644069
-0.0627581
-0.0611597
-0.0592893
-0.0650805
-0.0585012
-0.0463927
-0.0318093
-0.0184516
-0.00955521
-0.00723276
-0.0122104
-0.0235392
-0.0381869
-0.0515798
-0.0599666
-0.0631855
-0.0643926
-0.0659732
-0.0668086
-0.0612185
-0.0555164
-0.0440176
-0.0296522
-0.015979
-0.00624199
-0.00262335
-0.005889
-0.0151448
-0.027645
-0.0395499
-0.0478242
-0.052283
-0.0552355
-0.0584018
-0.0604209
-0.0486486
-0.0447904
-0.035702
-0.0237219
-0.0115883
-0.00226712
0.00209736
0.000714631
-0.00567662
-0.0147919
-0.0238151
-0.0306667
-0.0352174
-0.0389256
-0.0426544
-0.0448222
-0.0318436
-0.0310258
-0.0255095
-0.0171137
-0.00764937
0.000402457
0.00500734
0.00538461
0.00216424
-0.00300942
-0.00831806
-0.0127175
-0.0163121
-0.0199664
-0.0238597
-0.0259166
-0.0123332
-0.0156232
-0.0141665
-0.0100863
-0.00421857
0.00161453
0.00560519
0.00709959
0.00667907
0.00547462
0.0043112
0.00328336
0.00184648
-0.000668777
-0.00417718
-0.00566814
0.0100385
0.00231478
-0.000426326
-0.00111733
0.000315241
0.00286269
0.00514702
0.00676327
0.00834012
0.0106395
0.0136981
0.0167296
0.018691
0.0186657
0.0165891
0.0165132
0.0340995
0.0228122
0.0162027
0.0109454
0.00793158
0.00689795
0.00680907
0.00750118
0.00988606
0.0146492
0.0212758
0.0283257
0.0342333
0.0376753
0.0380875
0.039977
0.059228
0.0461901
0.0346175
0.0239771
0.0159597
0.0106926
0.00726075
0.00560015
0.00702942
0.0129001
0.0229722
0.0349009
0.0462409
0.0550351
0.060061
0.0632664
0.0655844
0.0538625
0.0407819
0.0270873
0.0151136
0.00596925
-0.00028254
-0.00333495
-0.00214938
0.00419111
0.0151914
0.0287997
0.0426793
0.0546867
0.0631782
0.0685125
0.0631652
0.0541038
0.041842
0.0278383
0.0146234
0.00364848
-0.00461709
-0.00966703
-0.010466
-0.00600537
0.00359399
0.0168659
0.0317161
0.045769
0.0569526
0.0645231
0.0512618
0.0456357
0.0360025
0.0238543
0.0114758
0.000278447
-0.00911225
-0.0160855
-0.0196266
-0.0185449
-0.0121519
-0.000898312
0.0135623
0.0284929
0.0413561
0.0508152
0.0311239
0.0293072
0.0236219
0.015174
0.00557451
-0.00422104
-0.013695
-0.0222424
-0.0288567
-0.0320588
-0.0300967
-0.022073
-0.00919406
0.00537354
0.0186123
0.0290204
0.00577034
0.00756776
0.00651687
0.00306766
-0.00220657
-0.0091699
-0.0176248
-0.0270977
-0.0365677
-0.0441365
-0.046946
-0.0427728
-0.0324619
-0.0196175
-0.00753323
0.00246357
-0.0206803
-0.0159694
-0.0122848
-0.0101164
-0.0101882
-0.0132206
-0.0196491
-0.0291957
-0.0407678
-0.0520087
-0.0591267
-0.0589027
-0.0519316
-0.0421117
-0.0327751
-0.0246049
-0.043539
-0.0368746
-0.0287937
-0.0210712
-0.015721
-0.014468
-0.0182466
-0.0270141
-0.0396133
-0.0532891
-0.0636924
-0.0671392
-0.0640359
-0.0583423
-0.0529266
-0.0475823
-0.0581343
-0.0504344
-0.0388451
-0.0265178
-0.0165511
-0.0114161
-0.0124529
-0.019787
-0.0322183
-0.0467996
-0.0591188
-0.0655672
-0.0663664
-0.0650978
-0.0640296
-0.0617837
-0.060853
-0.0531636
-0.0397932
-0.024875
-0.012042
-0.00416572
-0.00283235
-0.00829182
-0.0193816
-0.0332535
-0.0458877
-0.0541444
-0.0580802
-0.0604912
-0.063001
-0.063285
-0.051496
-0.0452381
-0.0325464
-0.0176434
-0.00412993
0.00507011
0.0082161
0.00491382
-0.00381695
-0.0154781
-0.0267448
-0.0351787
-0.0407505
-0.0453497
-0.0499215
-0.0516759
-0.0342184
-0.031001
-0.0211985
-0.00868734
0.00363253
0.0129532
0.01737
0.0162691
0.0105534
0.00222815
-0.00622116
-0.0131843
-0.0187066
-0.0239794
-0.0293729
-0.0317448
-0.014086
-0.0153051
-0.00982536
-0.00117145
0.00864745
0.0170729
0.0220037
0.022759
0.0201015
0.0156617
0.0110136
0.00687381
0.00290565
-0.00175929
-0.00718718
-0.00964362
0.00636381
0.000164148
0.000753451
0.00463562
0.0107539
0.017027
0.0213684
0.0231143
0.0230516
0.0224747
0.0221557
0.0218849
0.020839
0.018108
0.0136056
0.0116897
0.0263881
0.0159329
0.0116862
0.0103049
0.01168
0.0144764
0.0169677
0.0186959
0.020487
0.0233186
0.0273068
0.0314105
0.0342965
0.0347774
0.0325091
0.0318312
0.0451098
0.0326572
0.0244605
0.0185565
0.015791
0.0152959
0.0154269
0.0157813
0.017523
0.021962
0.0287469
0.0365714
0.0435051
0.04794
0.0489567
0.0500125
0.0570341
0.0447367
0.0325125
0.0219706
0.0147888
0.0104931
0.00740757
0.00501475
0.00478961
0.008773
0.0174194
0.0289182
0.0407432
0.0506663
0.057134
0.0602645
0.055925
0.0449861
0.0316798
0.017854
0.00598612
-0.00298064
-0.00924792
-0.0127236
-0.0124136
-0.00723471
0.00278392
0.0158468
0.0297823
0.0425149
0.0521539
0.0580149
0.0480317
0.0394716
0.0274732
0.0137997
0.0011134
-0.00933326
-0.0173735
-0.0227414
-0.0244423
-0.0212517
-0.0129683
-0.000532718
0.0139607
0.0283524
0.0402714
0.0485659
0.0333882
0.0278619
0.0185931
0.0069528
-0.00477903
-0.0153555
-0.0244044
-0.0315265
-0.0357545
-0.0357539
-0.030508
-0.0200575
-0.00593708
0.00914401
0.0222839
0.0321262
0.0135807
0.0115181
0.00597725
-0.00213795
-0.0113283
-0.0207291
-0.0299688
-0.0385474
-0.0454927
-0.0492193
-0.0477828
-0.0400538
-0.0272251
-0.0125535
0.000556097
0.0106791
-0.00858676
-0.00725366
-0.00846274
-0.0119351
-0.0172531
-0.0242348
-0.0326944
-0.0421451
-0.0515189
-0.0588899
-0.0614173
-0.0569106
-0.0463566
-0.0335207
-0.0218521
-0.0126912
-0.0296887
-0.0255008
-0.0221155
-0.0202948
-0.0208547
-0.0243825
-0.0310652
-0.0404766
-0.0514604
-0.0617353
-0.0678174
-0.0668635
-0.0596985
-0.0502793
-0.0416442
-0.0344496
-0.0460026
-0.0397353
-0.0318604
-0.0246546
-0.0201193
-0.0196343
-0.0237461
-0.0321542
-0.043651
-0.0557187
-0.06462
-0.0673492
-0.0645259
-0.0597966
-0.0555208
-0.0508763
-0.0539234
-0.0465072
-0.0349223
-0.0229878
-0.0139017
-0.00949996
-0.0106877
-0.0173206
-0.0282161
-0.0408346
-0.051579
-0.0576817
-0.0594571
-0.0598745
-0.0603324
-0.0583195
-0.0509598
-0.0437486
-0.0301446
-0.0154167
-0.00307232
0.00449655
0.00611265
0.00173506
-0.00756443
-0.0194677
-0.0307657
-0.0391457
-0.0446885
-0.0493777
-0.0537778
-0.0540989
-0.0375872
-0.032487
-0.0194895
-0.00441085
0.00926272
0.0188459
0.0228112
0.0208404
0.0139023
0.00398894
-0.00630756
-0.0151714
-0.0226053
-0.0297566
-0.0366383
-0.0386865
-0.0178975
-0.0168084
-0.00698432
0.00600602
0.0191197
0.0294343
0.03501
0.0353037
0.0311031
0.0241555
0.0163995
0.00901439
0.00189075
-0.00571097
-0.0135698
-0.0167308
0.00302899
-0.0009654
0.0040051
0.0131044
0.0239285
0.0335796
0.0397049
0.0415713
0.0399775
0.0364975
0.0323961
0.0281468
0.0232773
0.0170383
0.00957806
0.00594873
0.0220758
0.0133333
0.0127415
0.0166415
0.0235391
0.0308143
0.0359889
0.0383393
0.0388078
0.0387989
0.0390637
0.0391544
0.0380739
0.0348253
0.0292682
0.0259846
0.0380253
0.0261312
0.0201599
0.0181079
0.0196091
0.0227867
0.025554
0.027448
0.0294786
0.0327546
0.037347
0.0421526
0.0456543
0.0465682
0.0443545
0.0423383
0.0503423
0.0376101
0.0281475
0.022086
0.0200729
0.0205336
0.0210712
0.0209721
0.0216365
0.0249467
0.0313167
0.0393882
0.0470204
0.0524311
0.0544444
0.0545265
0.0502612
0.0380541
0.0259159
0.0160859
0.0103145
0.00753539
0.00525887
0.00242706
0.000480664
0.00196993
0.00822271
0.0182509
0.0297521
0.0404013
0.0480633
0.0528444
0.0430283
0.0318089
0.0190774
0.00572294
-0.00576074
-0.0144987
-0.020837
-0.0247656
-0.0253116
-0.0212778
-0.0124821
-0.000208597
0.0135438
0.0266356
0.0368001
0.0442807
0.0318434
0.0224918
0.0111712
-0.00158797
-0.0133209
-0.0229774
-0.0307
-0.0363781
-0.0389788
-0.0370883
-0.0300413
-0.0186072
-0.00426971
0.0103328
0.0223213
0.0315867
0.0166044
0.0101359
0.00130024
-0.00945244
-0.020134
-0.0297661
-0.0382738
-0.0453907
-0.0501151
-0.0509349
-0.046505
-0.0366464
-0.0227672
-0.00779385
0.00491642
0.0146204
-0.00100712
-0.00405534
-0.00961892
-0.0172563
-0.0257749
-0.0344898
-0.0431831
-0.051433
-0.0581891
-0.0618315
-0.060383
-0.0527023
-0.0400377
-0.0258108
-0.013546
-0.0045852
-0.018545
-0.0183078
-0.0199609
-0.0235116
-0.0287431
-0.0354606
-0.0434507
-0.0521972
-0.0606366
-0.0669324
-0.0685291
-0.0635924
-0.0532531
-0.0412046
-0.0308517
-0.0232888
-0.0334392
-0.0304335
-0.0277301
-0.0264753
-0.027479
-0.0311235
-0.0373645
-0.0456874
-0.0550061
-0.0633277
-0.0677866
-0.0662345
-0.059641
-0.0515295
-0.0445676
-0.0388259
-0.043016
-0.0379303
-0.0307615
-0.0243814
-0.0205872
-0.0203522
-0.0238972
-0.03082
-0.0400776
-0.0496495
-0.0566711
-0.0590086
-0.0573413
-0.0545
-0.052084
-0.0484275
-0.0448825
-0.0386205
-0.0276263
-0.0165611
-0.0080745
-0.00370313
-0.00401408
-0.00880854
-0.0171659
-0.0271805
-0.0362242
-0.0423583
-0.0458666
-0.0485969
-0.0509989
-0.0496259
-0.0377752
-0.0318308
-0.0187105
-0.00443652
0.00781616
0.0159016
0.0188342
0.0165146
0.00974235
0.000192094
-0.00985087
-0.0187283
-0.0263347
-0.0336023
-0.040113
-0.0411144
-0.0227576
-0.0191581
-0.00655903
0.00864821
0.0229779
0.0337779
0.0394481
0.0395135
0.0349074
0.0268514
0.017315
0.00764564
-0.00190967
-0.0117106
-0.0209096
-0.0241065
-0.00349566
-0.00406724
0.00527849
0.0188527
0.0332348
0.0452503
0.0527199
0.0549325
0.0525081
0.0468386
0.0394674
0.0312663
0.0222351
0.0122508
0.00212126
-0.00282219
0.0155716
0.0101359
0.0143574
0.0240706
0.0363635
0.0477846
0.055616
0.0589574
0.0585246
0.0557548
0.0517548
0.0468688
0.0406837
0.0327722
0.0236206
0.0178562
0.0313444
0.0218532
0.0202251
0.0243646
0.0323664
0.0409936
0.0473372
0.0505315
0.0515416
0.0518228
0.0520737
0.0518701
0.0502012
0.046216
0.0399358
0.0346829
0.0424708
0.0305424
0.023427
0.021016
0.0227521
0.0263366
0.0294418
0.031616
0.0339287
0.0374725
0.0422575
0.0471643
0.0507021
0.0516831
0.0496489
0.046405
0.0493351
0.0362927
0.0261799
0.0203501
0.0195086
0.0213699
0.0227314
0.0225047
0.0221681
0.0240474
0.0292083
0.0367113
0.0445287
0.0505704
0.0534649
0.0535432
0.040091
0.0256841
0.0142376
0.00549862
0.00153193
0.000851947
5.5503e-05
-0.00246992
-0.00543505
-0.00606332
-0.00230148
0.00571121
0.0162275
0.026823
0.0346372
0.0423291
0.0280241
0.014916
0.00325679
-0.00903319
-0.0196692
-0.0278713
-0.0339918
-0.0379665
-0.0387918
-0.035283
-0.0271645
-0.0155341
-0.00219198
0.0104745
0.0196901
0.0284246
0.0159151
0.00473197
-0.00594433
-0.0174437
-0.0277427
-0.0361666
-0.0431801
-0.0487327
-0.0516441
-0.0503248
-0.0438744
-0.03282
-0.0188419
-0.0047176
0.00610786
0.0151102
0.0023017
-0.00566032
-0.0143323
-0.0240266
-0.0332766
-0.0415391
-0.0490784
-0.0557118
-0.0602527
-0.0611469
-0.0568405
-0.0471682
-0.0336514
-0.0193888
-0.00815977
-6.086e-05
-0.0113809
-0.0157377
-0.0215615
-0.0286546
-0.0362363
-0.0439017
-0.0515952
-0.0589388
-0.064884
-0.0676241
-0.0655223
-0.0577038
-0.0455548
-0.0324258
-0.0219768
-0.015203
-0.0232224
-0.0244989
-0.0266753
-0.0302625
-0.0351885
-0.0412726
-0.0482962
-0.0557157
-0.0625324
-0.0670972
-0.0673813
-0.0621515
-0.0526594
-0.0421947
-0.0338249
-0.0282583
-0.0318931
-0.0303613
-0.0284008
-0.0276549
-0.0288581
-0.0321706
-0.0373963
-0.0440098
-0.0510964
-0.0570978
-0.0599243
-0.0582014
-0.0528917
-0.0467401
-0.0417719
-0.0373755
-0.0355689
-0.0318599
-0.0255073
-0.0198697
-0.0164683
-0.0159345
-0.0183061
-0.0232218
-0.0299335
-0.0370211
-0.0425115
-0.0450107
-0.0450119
-0.0443185
-0.0437242
-0.0408464
-0.0330641
-0.0279055
-0.0177409
-0.00736433
0.000922092
0.00585841
0.00697304
0.0043448
-0.00148459
-0.0092529
-0.0171636
-0.0238385
-0.0292304
-0.0340786
-0.0380289
-0.03734
-0.0241109
-0.0189005
-0.0065785
0.00736642
0.0199238
0.0290597
0.0337078
0.0335844
0.0290442
0.0212592
0.0118395
0.00210248
-0.00744312
-0.0167189
-0.024673
-0.026713
-0.00997438
-0.00678769
0.005125
0.0204996
0.035783
0.0481225
0.0557384
0.0580704
0.0551074
0.0482481
0.0388532
0.0280043
0.0167056
0.00496473
-0.00564522
-0.0103051
0.00641205
0.00575803
0.0145227
0.0286244
0.0443764
0.0582073
0.0676061
0.0716527
0.0706509
0.0657202
0.0581676
0.04896
0.0380856
0.0263277
0.0149339
0.00802685
0.021703
0.0165077
0.0201682
0.0304383
0.0441271
0.0573056
0.0668508
0.0716587
0.0722152
0.0697578
0.0653513
0.0594254
0.0518065
0.042516
0.0324266
0.0248242
0.0331689
0.0240391
0.022005
0.0264706
0.0354882
0.0454487
0.0530928
0.0573204
0.0589106
0.0592288
0.059006
0.057963
0.0552822
0.050368
0.0435149
0.0372258
0.0394171
0.0276003
0.0203448
0.01794
0.0198818
0.0238476
0.0274342
0.0301751
0.0330074
0.0368424
0.0415854
0.046144
0.0491421
0.0495603
0.0471161
0.044001
0.0428252
0.0283285
0.0178244
0.0124632
0.0129834
0.0166188
0.0192895
0.0195422
0.0187716
0.0195105
0.0233301
0.0298577
0.0374139
0.0435638
0.0466716
0.0483054
0.02807
0.00904536
-0.00197459
-0.00988385
-0.0118995
-0.0101517
-0.00889626
-0.0102872
-0.013145
-0.0147245
-0.012476
-0.0060377
0.00340819
0.0132638
0.0198982
0.0304461
0.0119587
-0.00414153
-0.015249
-0.0256729
-0.0348146
-0.0420788
-0.0474963
-0.0508826
-0.0511252
-0.0471095
-0.0386804
-0.0270635
-0.0141993
-0.00275944
0.00390304
0.0120185
0.001705
-0.0117534
-0.0222267
-0.0324265
-0.0409586
-0.0477676
-0.0536405
-0.0584788
-0.0608793
-0.0590738
-0.0521994
-0.0409659
-0.0273205
-0.0143097
-0.00583134
0.000931494
-0.00808979
-0.0176534
-0.026551
-0.0352445
-0.0428867
-0.0495024
-0.0557131
-0.0613556
-0.0650856
-0.0650877
-0.0600744
-0.0501687
-0.0371577
-0.0242292
-0.0152981
-0.0101362
-0.0164719
-0.022191
-0.0283942
-0.0349177
-0.0414036
-0.0477843
-0.0541839
-0.0602148
-0.0647379
-0.0661246
-0.0629684
-0.0549586
-0.0436777
-0.0322329
-0.02405
-0.0198841
-0.0222539
-0.0249837
-0.027667
-0.0311286
-0.0355046
-0.0406806
-0.0464657
-0.0523368
-0.0573271
-0.0600861
-0.0591627
-0.0539576
-0.0457381
-0.0372021
-0.0309268
-0.0271789
-0.0255552
-0.0253711
-0.0238662
-0.0233071
-0.0243321
-0.0269679
-0.0309679
-0.0358588
-0.0409172
-0.0450257
-0.0467939
-0.0454238
-0.0416708
-0.0374411
-0.034171
-0.0304422
-0.0250343
-0.0223128
-0.0164718
-0.011175
-0.00770398
-0.0065128
-0.00760911
-0.0107626
-0.0155205
-0.0209705
-0.0257841
-0.0289518
-0.0305748
-0.0315454
-0.0321116
-0.0294568
-0.0204065
-0.0156331
-0.00606642
0.00398413
0.0124743
0.0182221
0.0206861
0.0197352
0.0155741
0.00899151
0.00130694
-0.0062478
-0.0131357
-0.0192705
-0.0238833
-0.0234588
-0.0118705
-0.00647305
0.00521929
0.019009
0.0320506
0.0422292
0.048289
0.0496859
0.0464742
0.0394131
0.0298362
0.019118
0.00823646
-0.00204087
-0.0102712
-0.0127911
-0.000546269
0.00318181
0.0145347
0.0300115
0.0460451
0.0596133
0.068667
0.0722977
0.0704578
0.0639826
0.0541659
0.0423496
0.0296597
0.0170669
0.00631318
0.000941478
0.0115702
0.0114347
0.0198617
0.0341545
0.0507438
0.0658783
0.0766772
0.0820053
0.0818771
0.0771425
0.0689792
0.0585312
0.0465582
0.0339434
0.0223106
0.0151269
0.0220974
0.0170231
0.0206249
0.0310657
0.0454031
0.0599801
0.0708012
0.0768522
0.0782141
0.0758465
0.0708026
0.0637565
0.0549731
0.0447383
0.0341844
0.0271062
0.0286752
0.0189217
0.0172519
0.0219537
0.0314828
0.042463
0.0513588
0.0567904
0.0591588
0.059581
0.0588077
0.0568026
0.0530303
0.0470468
0.0392525
0.0344327
0.0302093
0.0166645
0.0103101
0.0082681
0.0103649
0.014687
0.0189953
0.0227215
0.0264943
0.0309041
0.0357089
0.0398356
0.0420309
0.0413386
0.0372616
0.0361844
0.0326229
0.0140169
0.00337216
-0.00154098
0.00037017
0.00585465
0.0102149
0.0115345
0.0111188
0.0115253
0.0146083
0.0204072
0.0277327
0.0335407
0.0358681
0.0401666
0.0154877
-0.00927626
-0.0210972
-0.0284151
-0.0287873
-0.0246202
-0.0211805
-0.0209572
-0.0227572
-0.0237616
-0.0215256
-0.0154672
-0.00656096
0.00230722
0.00686325
0.0187175
-0.00268686
-0.0220179
-0.0326551
-0.0419841
-0.049718
-0.0553358
-0.0596035
-0.0618846
-0.0608282
-0.0553787
-0.0457039
-0.033427
-0.0208825
-0.0110997
-0.00786614
-0.00252645
-0.00881171
-0.0243005
-0.0352431
-0.0443232
-0.0511717
-0.0563052
-0.060871
-0.0646099
-0.0658098
-0.0625966
-0.0543906
-0.0423762
-0.0289766
-0.0174615
-0.0118492
-0.00879096
-0.0129878
-0.0239477
-0.0333165
-0.0412286
-0.0474394
-0.0525291
-0.0574189
-0.0618721
-0.0643055
-0.0628373
-0.0565305
-0.0460595
-0.0335731
-0.0222422
-0.0157766
-0.0138832
-0.0154338
-0.0224162
-0.0288375
-0.0347798
-0.0402178
-0.045379
-0.0505636
-0.0553363
-0.0584293
-0.058338
-0.0540811
-0.0459079
-0.0355616
-0.025842
-0.0197488
-0.0175443
-0.0161267
-0.0199195
-0.0225594
-0.025581
-0.0292095
-0.0334226
-0.0380954
-0.0427003
-0.0463108
-0.0477705
-0.0461284
-0.0412313
-0.0342527
-0.0273706
-0.0226592
-0.0193268
-0.0153587
-0.0161826
-0.0145474
-0.0136515
-0.0140972
-0.0158997
-0.0188673
-0.02259
-0.0264752
-0.0296804
-0.0312291
-0.0305599
-0.0281224
-0.0252394
-0.0229708
-0.0189967
-0.0129135
-0.0106045
-0.00471667
0.000811494
0.00479729
0.00677576
0.00665139
0.00449533
0.000572641
-0.00446325
-0.00953345
-0.0136265
-0.0164111
-0.0182391
-0.0191544
-0.0161405
-0.00850777
-0.00349097
0.00594353
0.0160925
0.0250526
0.0315601
0.0349199
0.034775
0.0311218
0.0245366
0.0162624
0.00772562
-5.85512e-05
-0.00655611
-0.0109235
-0.0102214
-0.0022309
0.00367244
0.0151187
0.0288553
0.0422859
0.0531483
0.0600205
0.0620833
0.0592046
0.0519077
0.0415839
0.0299181
0.0183583
0.00804107
0.000453254
-0.00152868
0.00518976
0.00908441
0.0202756
0.0355393
0.0518079
0.0659765
0.0757908
0.0800906
0.0785762
0.0718374
0.0612568
0.0485377
0.0352302
0.022644
0.0125428
0.00857834
0.0124552
0.0115811
0.0201002
0.034157
0.0507742
0.066354
0.0779359
0.0840659
0.0844066
0.0795291
0.0707129