/*--------------------------------*- C++ -*----------------------------------*\
| =========                 |                                                 |
| \\      /  F ield         | OpenFOAM: The Open Source CFD Toolbox           |
|  \\    /   O peration     | Version:  3.0.0                                 |
|   \\  /    A nd           | Web:      www.OpenFOAM.org                      |
|    \\/     M anipulation  |                                                 |
\*---------------------------------------------------------------------------*/
FoamFile
{
    version     2.0;
    format      ascii;
    class       surfaceScalarField;
    location    "9";
    object      phi;
}
// * * * * * * * * * * * * * * * * * * * * * * * * * * * * * * * * * * * * * //

dimensions      [0 3 -1 0 0 0 0];

internalField   nonuniform List<scalar> 
11520
(
-0.000135365
-0.000340217
0.000296622
-0.000203022
-0.000269868
0.000369367
-0.000259978
-0.000186302
0.000389028
-0.000297466
-9.54894e-05
0.000351166
-0.000314955
-1.44386e-05
0.000259504
-0.000316949
3.82195e-05
0.000127274
-0.000307117
5.21129e-05
-2.18128e-05
-0.000285939
2.89215e-05
-0.000159115
-0.0002505
-2.13104e-05
-0.000260888
-0.000200556
-8.60293e-05
-0.000315896
-0.000140747
-0.00015507
-0.000323086
-8.13502e-05
-0.000221323
-0.000286267
-3.65906e-05
-0.000279704
-0.000210553
-2.02828e-05
-0.000325658
-0.000102771
-3.82261e-05
-0.000354669
2.51326e-05
-0.000359427
0.000152502
-0.00032639
-0.000231678
0.000200565
-0.00040986
-0.000164896
0.000282899
-0.000466507
-9.91396e-05
0.000325452
-0.000490126
-3.45939e-05
0.000320556
-0.000481869
1.82469e-05
0.000268779
-0.000447067
4.51325e-05
0.000179589
-0.000393964
4.22458e-05
6.95371e-05
-0.00032871
1.21662e-05
-4.10162e-05
-0.000255899
-3.66129e-05
-0.000135079
-0.000181838
-9.18078e-05
-0.000203505
-0.000115452
-0.000145235
-0.000242613
-6.87688e-05
-0.00019162
-0.000249645
-5.44243e-05
-0.000227666
-0.000220404
-8.0385e-05
-0.000250741
-0.000152986
-0.000144645
-0.000259426
-5.46895e-05
-0.000252129
5.32528e-05
-0.000482675
-7.57482e-05
9.74251e-05
-0.000570134
-3.57901e-05
0.000191214
-0.000617737
-2.70809e-06
0.000260549
-0.000622933
2.58003e-05
0.000293602
-0.000587522
4.30593e-05
0.000287643
-0.000520563
4.29555e-05
0.000246331
-0.000432566
2.36513e-05
0.00017956
-0.000334047
-1.08484e-05
9.93381e-05
-0.00023577
-5.10558e-05
1.57302e-05
-0.000148322
-8.70922e-05
-6.46631e-05
-8.38093e-05
-0.000112573
-0.000137373
-5.51261e-05
-0.000125583
-0.000193902
-7.23661e-05
-0.000127569
-0.000219085
-0.000136896
-0.000121534
-0.000199227
-0.00023905
-0.000111147
-0.000133913
-9.93827e-05
-4.10291e-05
-0.000582988
0.000109853
-1.83857e-05
-0.000664111
0.000105868
8.67974e-05
-0.000697289
9.64877e-05
0.000182926
-0.000683255
8.26808e-05
0.000253566
-0.000626692
6.28263e-05
0.000291695
-0.000536904
3.52881e-05
0.000296597
-0.000426038
9.21736e-07
0.00027168
-0.000307539
-3.50915e-05
0.000222473
-0.000195391
-6.35732e-05
0.000154183
-0.000104049
-7.56619e-05
6.96484e-05
-4.79368e-05
-6.65912e-05
-2.86913e-05
-3.94967e-05
-3.79557e-05
-0.000129863
-8.51092e-05
2.0926e-06
-0.000209266
-0.000179587
4.16502e-05
-0.000240192
-0.000307209
7.04846e-05
-0.000211688
8.18477e-05
-0.000134372
-0.000613731
0.000302586
-0.000147478
-0.000679814
0.000245339
-3.37139e-05
-0.000694906
0.00018838
8.45027e-05
-0.000663668
0.000129426
0.000186733
-0.000592551
7.1619e-05
0.000262028
-0.000491218
1.7311e-05
0.000305257
-0.000371526
-3.06658e-05
0.000315562
-0.000247198
-6.65841e-05
0.000294976
-0.000133922
-8.16198e-05
0.000245974
-4.87669e-05
-6.73323e-05
0.000168128
-7.21155e-06
-2.04674e-05
5.94251e-05
-1.99413e-05
5.41167e-05
-7.16632e-05
-8.82224e-05
0.0001403
-0.000195777
-0.000201228
0.000215929
-0.000274726
-0.00033948
0.00026313
-0.000285425
0.000272208
-0.000227882
-0.000568531
0.000474926
-0.000279107
-0.000610797
0.000365396
-0.000161916
-0.00060509
0.000258946
-2.89157e-05
-0.000558607
0.000154931
9.64889e-05
-0.000480102
6.07795e-05
0.000198655
-0.000378809
-1.77972e-05
0.000268759
-0.000264472
-7.71777e-05
0.000303795
-0.000149033
-0.000111505
0.0003055
-4.8207e-05
-0.000111693
0.000276544
1.99921e-05
-6.96599e-05
0.000214695
4.05255e-05
1.60143e-05
0.000112279
6.94241e-06
0.000136304
-2.92024e-05
-7.76417e-05
0.000268563
-0.000181607
-0.00019715
0.000379485
-0.000300022
-0.000330878
0.000444141
-0.00034947
0.000450973
-0.000317874
-0.00044793
0.000596416
-0.000387301
-0.000458957
0.00044476
-0.000271777
-0.000429858
0.00029274
-0.000131085
-0.000371486
0.000148519
7.86036e-06
-0.00029376
2.49912e-05
0.000124326
-0.000204397
-7.12024e-05
0.000206697
-0.000109192
-0.000137442
0.000252136
-1.68247e-05
-0.000167741
0.000265432
5.86385e-05
-0.00015209
0.000252471
0.000100178
-8.25741e-05
0.000210947
9.51171e-05
3.9532e-05
0.000127713
4.13948e-05
0.000200729
-4.99364e-06
-5.14631e-05
0.000372385
-0.000166591
-0.000165899
0.000513613
-0.000310802
-0.000281278
0.000592204
-0.000393818
0.000596031
-0.000392269
-0.000259224
0.000637232
-0.000431514
-0.000234298
0.000461591
-0.000323273
-0.000183439
0.000275531
-0.00018305
-0.000119901
0.000104888
-4.29452e-05
-5.38863e-05
-3.33807e-05
7.18684e-05
1.10928e-05
-0.000135289
0.000147919
7.4299e-05
-0.000200884
0.000185734
0.000131391
-0.000223956
0.00019618
0.000171082
-0.00019251
0.000190661
0.000179455
-9.88539e-05
0.000167931
0.000148168
5.23834e-05
0.000110485
8.00807e-05
0.000243181
1.66233e-06
-1.1592e-05
0.000441231
-0.000148528
-0.000108994
0.000601785
-0.000299302
-0.000193326
0.000686465
-0.000402667
0.000681877
-0.00042733
-2.06807e-05
0.000580141
-0.000379529
3.89609e-05
0.000401167
-0.000284821
0.000103687
0.000202717
-0.000156316
0.000160821
2.87392e-05
-3.08217e-05
0.000202781
-0.000103152
6.3177e-05
0.000231808
-0.000195421
0.000112732
0.000253044
-0.000251758
0.000123765
0.000266156
-0.00026455
0.000115854
0.000263683
-0.000219347
0.000107024
0.00023685
-0.000108834
9.7293e-05
0.0001833
5.86415e-05
6.62464e-05
0.000110629
0.000261278
-8.93048e-06
3.38038e-05
0.000465148
-0.000127689
-3.12056e-05
0.000626404
-0.000259645
-7.05284e-05
0.000703893
-0.000359691
0.000679712
-0.000394216
0.000228553
0.000434906
-0.000242202
0.000312702
0.000269406
-0.000163436
0.000379764
8.55621e-05
-5.65902e-05
0.000419277
-6.42364e-05
4.05872e-05
0.000428742
-0.000167748
9.80091e-05
0.000415928
-0.000235868
0.000104423
0.000390665
-0.0002753
7.32357e-05
0.000356467
-0.000275965
3.41713e-05
0.000310876
-0.00022111
1.16797e-05
0.000251702
-0.000104906
7.84138e-06
0.000183689
6.12058e-05
-2.6085e-07
0.000118171
0.000252492
-3.66537e-05
7.093e-05
0.000436147
-0.000108962
5.41498e-05
0.000572836
-0.00019645
7.37266e-05
0.00062487
-0.000264102
0.000570816
-0.000282115
0.000428851
0.000239606
-7.05242e-05
0.000522772
9.53559e-05
-4.44771e-06
0.000582004
-5.01959e-05
7.99526e-05
0.000599572
-0.000153402
0.000143466
0.000577439
-0.000212241
0.000157198
0.000525891
-0.000246014
0.000112578
0.000457654
-0.000263431
3.16081e-05
0.000380218
-0.000252449
-4.49115e-05
0.000297245
-0.000195402
-8.59599e-05
0.00021461
-8.77977e-05
-8.99725e-05
0.000142954
5.7004e-05
-7.92559e-05
9.61819e-05
0.000214066
-7.88542e-05
8.78616e-05
0.000353213
-9.81673e-05
0.000125439
0.000442545
-0.000126863
0.000206374
0.000453242
-0.000141637
0.00036961
-0.00011861
0.000537072
3.68425e-05
8.79758e-05
0.000622516
-8.18645e-05
0.000149681
0.000665803
-0.000175216
0.000213157
0.000663291
-0.00022065
0.000244855
0.000618101
-0.000228382
0.000216272
0.000538934
-0.000223849
0.000122228
0.000439033
-0.000217715
-6.70759e-06
0.000330448
-0.000198099
-0.000119901
0.000224252
-0.000148319
-0.000181374
0.000133491
-6.47829e-05
-0.000188728
7.24159e-05
4.02129e-05
-0.000163303
5.37342e-05
0.000145153
-0.000129043
8.55805e-05
0.00022574
-9.81116e-05
0.000168325
0.000258888
-6.86788e-05
0.000292274
0.000226335
-2.79196e-05
0.000126348
4.53033e-05
0.000543034
-0.000142606
0.000209835
0.000604575
-0.000227486
0.000270774
0.000624554
-0.000265284
0.000317739
0.000604068
-0.000254489
0.00032122
0.000545594
-0.000214927
0.000256406
0.000453429
-0.000175329
0.000122148
0.000339108
-0.000148934
-4.45779e-05
0.000218802
-0.00012675
-0.000186809
0.000110051
-9.44686e-05
-0.000265825
3.02021e-05
-4.77666e-05
-0.000277825
-6.64968e-06
5.58193e-06
-0.000241853
7.43319e-06
5.12631e-05
-0.000180473
7.27604e-05
7.32736e-05
-0.000108449
0.000181463
5.7617e-05
-3.15031e-05
0.000317766
-4.79709e-06
5.51499e-05
-0.000101443
0.000168874
0.000460833
-0.000279887
0.000287198
0.000488398
-0.000321961
0.00034899
0.000480346
-0.000308483
0.000381728
0.000443369
-0.000251817
0.000361831
0.000379705
-0.000176734
0.000270366
0.000289438
-0.000112391
0.000110603
0.000181063
-7.42623e-05
-7.78603e-05
7.22354e-05
-5.75094e-05
-0.00023726
-1.69244e-05
-5.0239e-05
-0.000328587
-6.92126e-05
-4.56012e-05
-0.000346027
-7.43599e-05
-4.45035e-05
-0.000305243
-3.07462e-05
-5.27593e-05
-0.000226797
5.45608e-05
-7.76038e-05
-0.00012732
0.000167189
-0.000125234
-1.79864e-05
0.000287514
-0.000197006
9.8695e-05
-0.000274842
0.000234061
0.000312531
-0.000364106
0.000319531
0.000303078
-0.000359047
0.00038211
0.000267717
-0.000304426
0.000404089
0.000217831
-0.000217118
0.000368955
0.000156758
-0.0001226
0.0002646
8.26289e-05
-4.8434e-05
9.79276e-05
2.72708e-07
-1.02622e-05
-9.35939e-05
-7.57514e-05
-6.32227e-06
-0.000257036
-0.000128244
-2.5654e-05
-0.000355349
-0.000144376
-5.82414e-05
-0.000380207
-0.000119331
-9.86995e-05
-0.000342829
-5.7063e-05
-0.00014565
-0.000260707
3.0835e-05
-0.000199599
-0.000150354
0.000127124
-0.000260913
-2.55462e-05
0.000213247
-0.000326065
0.000105111
-0.000377737
0.000243122
0.000130558
0.000310236
8.89324e-05
0.00037191
3.13088e-05
0.000388974
-2.78743e-05
0.000351613
-8.11745e-05
0.000253099
-0.000128383
0.000100845
-0.000169332
-7.47575e-05
-0.000197858
-0.000229906
-0.000205119
-0.000331076
-0.000185343
-0.000367043
-0.000138898
-0.000343454
-7.28138e-05
-0.000272944
5.00175e-07
-0.000169327
6.57596e-05
-4.61717e-05
0.000109835
8.37828e-05
0.000211062
-0.000294585
-0.000254836
0.000288392
-0.000350715
-0.000207243
0.000344463
-0.000389915
-0.000161141
0.000350181
-0.000404095
-0.000115109
0.000299957
-0.00039262
-7.78118e-05
0.000199507
-0.000362143
-5.91743e-05
6.48272e-05
-0.000322181
-6.3669e-05
-7.98171e-05
-0.000280021
-8.82366e-05
-0.000208204
-0.000239004
-0.000123804
-0.000300842
-0.000200925
-0.000160195
-0.000348771
-0.000168368
-0.000190812
-0.000350662
-0.00014565
-0.000214282
-0.000308591
-0.000138266
-0.000232138
-0.00022675
-0.000150984
-0.000245441
-0.000113258
-0.000184852
-0.000253805
1.73713e-05
-0.000253603
0.000139931
-0.000429841
-0.000128919
0.000169024
-0.000497062
-9.23571e-05
0.000235235
-0.000532507
-6.5008e-05
0.000264764
-0.000531438
-4.43674e-05
0.000248746
-0.000495012
-3.50649e-05
0.000189605
-0.000431004
-4.18857e-05
9.82929e-05
-0.000351452
-6.54213e-05
-8.26269e-06
-0.000268445
-9.99972e-05
-0.000112263
-0.000192521
-0.000135455
-0.000199352
-0.000132621
-0.00016171
-0.00026189
-9.62141e-05
-0.000174024
-0.000295808
-8.88919e-05
-0.000174607
-0.000296642
-0.000113314
-0.000168657
-0.000259464
-0.00016761
-0.00015996
-0.00018417
-0.000245313
-0.000150418
-8.0373e-05
-0.000140036
2.98377e-05
-0.000520723
4.00513e-05
4.30699e-05
-0.000590414
4.76255e-05
0.000120922
-0.000616689
4.36079e-05
0.000178208
-0.000598146
2.92469e-05
0.000201444
-0.000537921
3.55606e-06
0.000188797
-0.000445662
-3.3379e-05
0.000145565
-0.000335156
-7.78106e-05
8.1444e-05
-0.000221851
-0.000121265
7.30125e-06
-0.000121232
-0.000151849
-6.84956e-05
-4.78315e-05
-0.000159155
-0.000140618
-1.32587e-05
-0.000140871
-0.000205099
-2.40841e-05
-0.000104833
-0.000252851
-7.95823e-05
-6.34577e-05
-0.000268786
-0.000171013
-2.6374e-05
-0.000241383
-0.00028456
1.0753e-06
-0.000171859
1.60421e-05
-7.55597e-05
-0.000557424
0.000231306
-8.8384e-05
-0.000621877
0.000199184
-3.07957e-07
-0.00063522
0.000156307
8.35689e-05
-0.000599137
0.000101195
0.000145535
-0.000519365
3.66779e-05
0.0001788
-0.000406916
-3.24611e-05
0.000183231
-0.000276611
-9.85653e-05
0.00016213
-0.000145572
-0.000150372
0.000120541
-3.22645e-05
-0.000173979
6.30054e-05
4.4876e-05
-0.000157951
-8.6965e-06
7.15028e-05
-0.000101855
-9.4334e-05
4.15425e-05
-2.03763e-05
-0.000184359
-4.08096e-05
6.46502e-05
-0.000255022
-0.00016055
0.00013464
-0.000281466
-0.000298091
0.00018032
-0.000253391
0.000196565
-0.000176818
-0.0005386
0.000419563
-0.000221682
-0.000590295
0.000344749
-0.000127585
-0.000587065
0.000259631
-2.20506e-05
-0.000533979
0.000161238
7.3604e-05
-0.000439264
5.65473e-05
0.000147443
-0.000315367
-4.4878e-05
0.000193777
-0.000177288
-0.000131951
0.000210869
-4.21257e-05
-0.000191006
0.000200448
7.0683e-05
-0.000206175
0.000165362
0.000140803
-0.000164756
0.000104814
0.000152903
-6.78352e-05
1.33059e-05
0.000102916
6.33813e-05
-0.000105434
-2.98142e-07
0.000195897
-0.000223809
-0.000137515
0.000301113
-0.000303982
-0.000285411
0.000364888
-0.000322098
0.000381191
-0.000273371
-0.000468131
0.00057781
-0.000344476
-0.000499279
0.000463345
-0.000249364
-0.000475664
0.000335703
-0.000128603
-0.000405709
0.000194579
-6.80697e-06
-0.000300815
5.1866e-05
9.84414e-05
-0.000174621
-7.83021e-05
0.000175989
-4.11466e-05
-0.000182484
0.000220853
8.42143e-05
-0.000245402
0.000234535
0.000183017
-0.000249816
0.000221383
0.000235229
-0.000182205
0.000179932
0.000226673
-4.49843e-05
9.79841e-05
0.000156814
0.000134864
-3.08255e-05
3.90619e-05
0.000313969
-0.000181927
-0.000104354
0.000453117
-0.00030861
-0.000249053
0.000533193
-0.000373075
0.000548845
-0.00035933
-0.00035371
0.000680909
-0.000432486
-0.000356476
0.000533902
-0.000339568
-0.000309115
0.000366689
-0.000209432
-0.000223703
0.000187769
-7.07416e-05
-0.000114865
1.45717e-05
5.2782e-05
3.2508e-06
-0.000135152
0.000145432
0.000119278
-0.000248166
0.000201791
0.000221038
-0.00030863
0.0002269
0.000293009
-0.000298904
0.000229587
0.000318091
-0.000205715
0.000209374
0.00028546
-3.30118e-05
0.000148372
0.000198468
0.000188349
2.85135e-05
7.38615e-05
0.000407198
-0.000135214
-6.48607e-05
0.00057496
-0.000293923
-0.000194064
0.000666963
-0.000398385
0.000679416
-0.000421107
-0.000202441
0.000709786
-0.000450069
-0.000170971
0.000540056
-0.000360897
-9.98976e-05
0.000340951
-0.000228386
-4.65628e-06
0.000135646
-8.60635e-05
9.76249e-05
-5.28634e-05
3.70224e-05
0.000195339
-0.000208044
0.000123095
0.000280809
-0.000317933
0.000170032
0.00034622
-0.000367975
0.000190114
0.000380566
-0.000341039
0.000198451
0.000372315
-0.000225473
0.00019594
0.000316249
-2.71987e-05
0.000160739
0.000219252
0.000221629
6.53783e-05
9.89399e-05
0.000466911
-8.79282e-05
-2.2903e-05
0.000653819
-0.000256318
-0.000125008
0.000750807
-0.000384406
0.00075412
-0.000434922
-2.05588e-05
0.000655545
-0.000367797
4.51888e-05
0.000474892
-0.000285405
0.00013265
0.000259095
-0.000161922
0.00022507
4.67513e-05
-3.43466e-05
0.000306876
-0.000136944
6.54514e-05
0.000370699
-0.000280086
0.000120951
0.000413985
-0.000374535
0.00013708
0.000433277
-0.000407289
0.000135875
0.000423
-0.000362538
0.0001388
0.000379199
-0.000231574
0.000147195
0.000304
-2.25969e-05
0.000136844
0.000207902
0.000232944
7.58512e-05
0.000107248
0.000483841
-4.39643e-05
1.86644e-05
0.000674561
-0.000191803
-4.21132e-05
0.000767172
-0.000315278
0.000753249
-0.000372391
0.000173853
0.000523063
-0.000195779
0.000264213
0.000345298
-0.000124201
0.000353673
0.000135363
-2.23186e-05
0.000427286
-5.9022e-05
7.27482e-05
0.000475123
-0.000216246
0.000129475
0.000495626
-0.000331616
0.00013545
0.000490464
-0.000401219
0.000105083
0.000459926
-0.000413639
7.10587e-05
0.000404235
-0.00035513
5.99624e-05
0.000328059
-0.000220004
7.24482e-05
0.000240888
-1.88513e-05
8.31641e-05
0.00015725
0.000219226
6.07033e-05
9.1641e-05
0.000449003
-8.51589e-06
5.42185e-05
0.000620488
-0.000104954
5.15666e-05
0.000695376
-0.000189654
0.000659132
-0.000224226
0.000335964
0.000335508
9.58162e-06
0.000434585
0.000172077
7.01524e-05
0.00051099
-6.20279e-06
0.000145114
0.000554871
-0.000158602
0.000199165
0.000564004
-0.000271906
0.000203725
0.000541378
-0.000348783
0.000152371
0.000490701
-0.000388898
6.99632e-05
0.000415443
-0.000382511
-7.79794e-07
0.000322466
-0.000318296
-2.98169e-05
0.00022406
-0.000193624
-1.79462e-05
0.000135991
-1.99841e-05
9.9455e-06
7.44259e-05
0.000176698
2.52386e-05
5.18696e-05
0.000359482
1.39099e-05
7.32992e-05
0.000488255
-1.60597e-05
0.000135425
0.000530842
-3.92294e-05
0.000474269
-2.68362e-05
0.00041724
0.0001279
0.000188053
0.000506077
-9.38014e-06
0.0002423
0.000558439
-0.000137806
0.000292398
0.000571363
-0.000233469
0.000306798
0.000548466
-0.000294196
0.000261458
0.000493841
-0.000328819
0.000156889
0.000411002
-0.000340272
2.75058e-05
0.00030634
-0.00032125
-7.65007e-05
0.000192946
-0.000262858
-0.000123417
8.91049e-05
-0.000163877
-0.000114635
1.34886e-05
-3.44294e-05
-7.32411e-05
-1.88819e-05
0.000104793
-2.4767e-05
1.2894e-07
0.000226039
1.6321e-05
6.97893e-05
0.000300131
4.97855e-05
0.000179821
0.000304746
8.81448e-05
0.00023674
0.000152944
0.000398728
-6.52906e-05
0.00031047
0.000461551
-0.000164006
0.000362576
0.000484559
-0.000235203
0.000392128
0.000471948
-0.000272388
0.000372751
0.0004301
-0.000282736
0.000286795
0.000361172
-0.000279446
0.000141702
0.000266853
-0.000268682
-2.18489e-05
0.00015552
-0.00024618
-0.000150546
4.42921e-05
-0.000204877
-0.000212578
-4.6e-05
-0.000142788
-0.000208621
-9.74051e-05
-6.61006e-05
-0.000158776
-9.90798e-05
1.15147e-05
-8.552e-05
-4.87762e-05
7.17228e-05
-4.43645e-06
4.63589e-05
9.57115e-05
7.77808e-05
0.000171488
7.10572e-05
0.000163709
3.84407e-06
0.000267087
0.000293268
-0.000215874
0.000372448
0.000320971
-0.000266633
0.000423914
0.000314781
-0.000284187
0.000436901
0.000284812
-0.000272515
0.000391927
0.000237884
-0.000244206
0.000278764
0.000173323
-0.000214767
0.000110485
9.02154e-05
-0.000192682
-7.07529e-05
-3.54292e-06
-0.000176215
-0.000213467
-9.09396e-05
-0.000159024
-0.000287043
-0.00015287
-0.000136705
-0.000290179
-0.0001752
-0.000110199
-0.000238815
-0.000152161
-8.59877e-05
-0.000152335
-8.6979e-05
-7.41004e-05
-4.66786e-05
8.53724e-06
-8.47608e-05
6.69696e-05
0.000117924
-0.000122801
0.000183166
-0.000177725
0.000305619
0.000130868
-0.000303978
0.000379297
0.000122837
-0.00030663
0.000430139
9.32896e-05
-0.000282775
0.000432224
5.55953e-05
-0.00023895
0.000373085
1.60041e-05
-0.000189246
0.000249232
-2.82307e-05
-0.00014937
7.67654e-05
-8.09423e-05
-0.000128182
-0.000105382
-0.000137927
-0.000124702
-0.000251565
-0.000186877
-0.000132076
-0.000333346
-0.000214009
-0.000143171
-0.000346609
-0.00021033
-0.000154399
-0.000302308
-0.000174429
-0.000166754
-0.000215841
-0.000112577
-0.000184358
-0.000101949
-3.76077e-05
-0.000211436
2.61599e-05
3.55875e-05
-0.000248129
0.000157245
-0.000284565
0.00028302
-4.74165e-05
0.000340704
-8.40729e-05
0.000390213
-0.00012795
0.000389263
-0.000165289
0.000330502
-0.000189664
0.000214562
-0.000204058
5.7013e-05
-0.000215279
-0.000110007
-0.00022555
-0.000249172
-0.000230664
-0.000335296
-0.000224315
-0.000361572
-0.00020286
-0.000333478
-0.000167612
-0.000261058
-0.000124813
-0.000155534
-8.43813e-05
-2.93937e-05
-5.59307e-05
0.000102637
0.000222511
-0.000383185
-0.000155385
0.000259221
-0.000419532
-0.000127914
0.000294457
-0.000436118
-0.000107673
0.000283574
-0.000427904
-9.14667e-05
0.00021974
-0.000395398
-8.29323e-05
0.000111327
-0.000345911
-8.71934e-05
-2.21205e-05
-0.000290431
-0.000106238
-0.000155235
-0.000239158
-0.000136312
-0.000264718
-0.000199233
-0.000168037
-0.000336253
-0.000175062
-0.000190246
-0.00036546
-0.000168568
-0.000196818
-0.000353557
-0.000178886
-0.000190419
-0.000303279
-0.00020315
-0.000178538
-0.000218814
-0.000238057
-0.000167147
-0.000108368
-0.000280832
-0.000158865
1.4329e-05
-0.000152235
0.000126178
-0.00045421
-2.33865e-05
0.000117382
-0.000500919
-9.92576e-06
0.000163956
-0.000514256
-7.71987e-06
0.000178148
-0.000491874
-1.55045e-05
0.000150401
-0.000435693
-3.46856e-05
8.5178e-05
-0.000353904
-6.6392e-05
-4.29724e-06
-0.000259526
-0.000108396
-0.000100483
-0.000167598
-0.000153215
-0.000187287
-9.25427e-05
-0.000188196
-0.000254248
-4.66863e-05
-0.000200499
-0.000297493
-3.76133e-05
-0.000185648
-0.000316051
-6.54644e-05
-0.00015211
-0.0003071
-0.000123309
-0.000113846
-0.000266312
-0.000200387
-8.04201e-05
-0.000193819
-0.000286207
-5.54088e-05
-9.80086e-05
-3.895e-05
4.1985e-06
-0.00047917
0.000142997
-2.61463e-05
-0.000530205
0.00013012
3.19112e-05
-0.000537223
0.00010399
7.35162e-05
-0.000499882
6.28639e-05
8.57356e-05
-0.000421945
8.11457e-06
6.80594e-05
-0.000313092
-5.73383e-05
2.76587e-05
-0.00018826
-0.000126134
-2.56502e-05
-6.54604e-05
-0.000186371
-8.23419e-05
3.57266e-05
-0.000221564
-0.000136315
9.66805e-05
-0.000216186
-0.000185885
0.000104501
-0.000167369
-0.000231199
5.81205e-05
-9.19598e-05
-0.000266621
-3.14039e-05
-1.45601e-05
-0.000278548
-0.000145743
4.82711e-05
-0.000255735
-0.000266801
9.10979e-05
-0.000197308
0.000112898
-0.000112206
-0.000461389
0.000323701
-0.000165974
-0.000510402
0.000278825
-9.99999e-05
-0.000507522
0.000217858
-3.31793e-05
-0.000454777
0.00013765
1.80038e-05
-0.000358166
4.24671e-05
4.78367e-05
-0.000229426
-5.96214e-05
5.67736e-05
-8.48273e-05
-0.000156717
4.81133e-05
5.59194e-05
-0.000232368
2.57903e-05
0.000170834
-0.000266136
-7.33784e-06
0.00023742
-0.000239298
-5.2171e-05
0.000239052
-0.000149826
-0.000113508
0.00017448
-2.35028e-05
-0.000188244
5.85461e-05
0.000101911
-0.00025556
-8.4112e-05
0.000199516
-0.000290053
-0.000229109
0.000261248
-0.000278544
0.000286042
-0.000220797
-0.000409393
0.000495289
-0.000295173
-0.000448986
0.000417439
-0.000226606
-0.000431907
0.000318476
-0.000139748
-0.000362851
0.00019646
-5.42616e-05
-0.000250745
5.9646e-05
1.81584e-05
-0.00010956
-7.87649e-05
7.17359e-05
4.33117e-05
-0.000202188
0.000103468
0.000188018
-0.000290448
0.000113821
0.000302428
-0.00032008
0.000104896
0.000363234
-0.000269968
7.46784e-05
0.000352852
-0.000138163
1.20258e-05
0.000270504
4.22274e-05
-8.88169e-05
0.00013491
0.000218796
-0.0002051
-2.51506e-05
0.000353372
-0.000297777
-0.00018128
0.000434045
-0.000338765
0.000460467
-0.000317779
-0.000333129
0.000634928
-0.000401994
-0.000355345
0.000525312
-0.000335021
-0.000319301
0.000387303
-0.000233474
-0.000232808
0.000223628
-0.000120468
-0.000108505
4.77569e-05
-1.39726e-05
3.71735e-05
-0.000121773
7.33186e-05
0.000186415
-0.000264786
0.000134209
0.00032061
-0.000358762
0.000168655
0.000419871
-0.000379117
0.00018116
0.000463312
-0.000304252
0.000170775
0.00043532
-0.00013263
0.000120443
0.000336982
9.79342e-05
1.18054e-05
0.000189227
0.000323174
-0.00013855
2.29796e-05
0.000492844
-0.000281835
-0.000131499
0.000589845
-0.000374397
0.000616143
-0.000395497
-0.000241436
0.00072323
-0.000466015
-0.000238317
0.000583666
-0.000401041
-0.000179254
0.000407679
-0.000288871
-7.57595e-05
0.000206429
-0.000157038
5.55208e-05
-4.97449e-07
-3.02441e-05
0.00019604
-0.000190003
7.31436e-05
0.000328866
-0.000340768
0.000144946
0.000438177
-0.000430017
0.000188845
0.000508361
-0.000434304
0.00021459
0.000524211
-0.000334046
0.000223319
0.000475426
-0.000129193
0.00019372
0.00036542
0.000141093
9.53615e-05
0.00021507
0.000406078
-6.77686e-05
5.47403e-05
0.000604594
-0.000245343
-8.6638e-05
0.000713217
-0.000380379
0.000734739
-0.000439679
-0.000137727
0.00074662
-0.000457564
-0.000103051
0.000580164
-0.000392071
-2.02685e-05
0.000371141
-0.000274631
9.53045e-05
0.000142315
-0.000137523
0.000223578
-8.0658e-05
-1.10908e-05
0.000346513
-0.000274054
8.4212e-05
0.000449343
-0.000417468
0.000143902
0.000520365
-0.00049064
0.000179715
0.000549855
-0.000473164
0.00020782
0.00053078
-0.000349539
0.000230507
0.000461011
-0.000122377
0.000223691
0.000347149
0.000170808
0.000149525
0.000207055
0.000460133
-1.88922e-06
6.60339e-05
0.000677498
-0.000188201
-5.00955e-05
0.0007907
-0.00034576
0.000800888
-0.000429336
-1.90282e-05
0.000698074
-0.000349503
4.8018e-05
0.000511765
-0.000284052
0.000147889
0.000281914
-0.000172565
0.000263055
4.31927e-05
-5.03901e-05
0.000373755
-0.000175762
4.98553e-05
0.000464579
-0.000354224
0.000110296
0.000524789
-0.000475957
0.000135359
0.00054729
-0.000524631
0.000147365
0.000529102
-0.000484016
0.00016784
0.000472433
-0.000343647
0.000197972
0.000384493
-0.000109335
0.000211742
0.000276395
0.00018472
0.000170038
0.000162086
0.000476024
5.44537e-05
5.81232e-05
0.000696842
-0.000107184
-1.74186e-05
0.000806249
-0.000255285
0.000799054
-0.000338694
0.000111379
0.000577969
-0.00014816
0.000202071
0.000385682
-8.88099e-05
0.000304072
0.000156283
1.31162e-06
0.000401226
-6.81782e-05
8.69654e-05
0.000478607
-0.000261198
0.000137531
0.000525829
-0.000408209
0.000142213
0.000536027
-0.000498528
0.000117455
0.000506469
-0.000520173
9.61592e-05
0.000441045
-0.000461287
0.000102657
0.000350784
-0.000316084
0.000135146
0.000251098
-9.31277e-05
0.000166644
0.000157819
0.000177262
0.00016144
8.26685e-05
0.000442958
9.97007e-05
3.37203e-05
0.000644735
-3.89953e-06
1.69851e-05
0.000738912
-0.000105581
0.00071281
-0.000159891
0.000222508
0.000400209
8.91747e-05
0.00032105
0.000219627
0.000137665
0.000408214
1.76059e-05
0.000196627
0.000473433
-0.000167558
0.000233326
0.000509569
-0.000316266
0.000222657
0.000511159
-0.000421184
0.000163756
0.000473837
-0.000476898
8.56554e-05
0.000398665
-0.000475417
2.96358e-05
0.000296029
-0.000408697
2.02282e-05
0.000184024
-0.00027445
5.24247e-05
8.3482e-05
-8.23159e-05
9.96762e-05
1.26237e-05
0.000141807
0.000131552
-1.7655e-05
0.000356799
0.000130347
-5.82478e-06
0.00051578
0.000101065
4.36988e-05
0.000581265
6.88937e-05
0.000539968
6.53645e-05
0.000268083
0.000194604
0.00028965
0.000357093
4.38949e-05
0.000329021
0.000418483
-0.000108682
0.000357296
0.000449217
-0.000237368
0.000345873
0.000449148
-0.000332055
0.000277315
0.000415431
-0.000392022
0.000161444
0.000344683
-0.000416399
3.77549e-05
0.000241092
-0.000400663
-4.76637e-05
0.000120143
-0.000339466
-7.16991e-05
4.3332e-06
-0.000231857
-4.14183e-05
-8.36944e-05
-8.63039e-05
1.87745e-05
-0.000126851
7.69785e-05
8.32185e-05
-0.000117083
0.000227576
0.000135775
-5.72276e-05
0.000331551
0.000174159
4.13221e-05
0.000362128
0.000208733
0.000312445
0.000257714
0.000224831
-6.62612e-07
0.000413399
0.000290176
-0.000106441
0.000447568
0.000322834
-0.000200128
0.000450917
0.000326554
-0.000268983
0.000400646
0.000304739
-0.000311393
0.000287948
0.000254662
-0.000331906
0.000131662
0.000172793
-0.000333457
-2.29211e-05
6.50325e-05
-0.000314335
-0.000129114
-5.09044e-05
-0.00027047
-0.000165637
-0.000151732
-0.000200088
-0.000139562
-0.000216786
-0.000108006
-7.20203e-05
-0.000232652
-7.76376e-06
1.50885e-05
-0.000195755
8.01067e-05
0.000106137
-0.000112932
0.000133135
0.000193373
1.431e-06
0.000134947
0.000276527
8.64943e-05
0.000361976
0.00010682
-0.000150442
0.000456322
0.000141338
-0.00020464
0.000487595
0.000148616
-0.000243551
0.000473045
0.000136819
-0.000262215
0.000396956
0.000109967
-0.000264372
0.000258594
6.42567e-05
-0.000257888
8.2178e-05
-4.86188e-06
-0.000248222
-8.68693e-05
-9.23812e-05
-0.000235379
-0.000204904
-0.000182414
-0.000215248
-0.000252233
-0.000255087
-0.000183666
-0.000233928
-0.000293928
-0.000140906
-0.000167073
-0.000290128
-9.39351e-05
-6.9964e-05
-0.000243968
-5.51214e-05
4.23896e-05
-0.000164708
-3.79699e-05
0.000158815
-6.734e-05
-5.09255e-05
0.000271671
-9.03836e-05
0.000374242
-4.92908e-05
-0.000231245
0.000431202
-4.52224e-05
-0.000239193
0.000460623
-5.59401e-05
-0.000237492
0.000436883
-7.17656e-05
-0.000223562
0.000350257
-8.93924e-05
-0.000203272
0.000205758
-0.000113697
-0.000185576
2.87576e-05
-0.000151027
-0.000176516
-0.000139759
-0.000200231
-0.000176232
-0.000261507
-0.000251242
-0.000179548
-0.000318036
-0.000290511
-0.000179643
-0.000311363
-0.000307031
-0.000172842
-0.000253852
-0.000295696
-0.000161349
-0.000159762
-0.000258331
-0.000152123
-4.23134e-05
-0.000203313
-0.000152816
8.5988e-05
-0.00014233
-0.000167453
0.00021279
-0.000192231
0.000320726
-0.000200203
0.000355872
-0.000220142
0.000385226
-0.000240043
0.000362539
-0.000251174
0.000281541
-0.00025083
0.000149552
-0.000244218
-1.05209e-05
-0.000239871
-0.000164694
-0.00024243
-0.000281293
-0.000250085
-0.000343666
-0.000257361
-0.000351175
-0.000259067
-0.000311396
-0.000252524
-0.000233525
-0.000238342
-0.000126972
-0.000220642
-2.74599e-06
-0.000205063
0.000124287
0.000231906
-0.00039516
-5.74581e-05
0.000212074
-0.000411124
-4.21965e-05
0.00022619
-0.000409073
-3.2454e-05
0.000198713
-0.000386503
-2.74606e-05
0.000122991
-0.000344246
-2.97034e-05
9.9067e-06
-0.000288704
-4.37531e-05
-0.000117617
-0.000229928
-7.21168e-05
-0.000233658
-0.000178492
-0.000111739
-0.000317467
-0.000143405
-0.000151706
-0.000359724
-0.000131329
-0.000176765
-0.000361741
-0.000144769
-0.000177142
-0.000329758
-0.00017953
-0.000156483
-0.000269755
-0.000226011
-0.000127203
-0.000186869
-0.000274246
-9.98609e-05
-8.81274e-05
-0.000318336
-7.93981e-05
1.62068e-05
-6.5114e-05
0.000109591
-0.000403415
6.54958e-05
5.52781e-05
-0.000433005
6.8984e-05
8.2365e-05
-0.000431939
6.34492e-05
8.11787e-05
-0.0003987
4.64686e-05
4.32326e-05
-0.000334917
1.70415e-05
-2.53498e-05
-0.000247186
-2.66866e-05
-0.000109095
-0.000147937
-8.1851e-05
-0.000189997
-5.28339e-05
-0.000140904
-0.000253225
2.11986e-05
-0.000188356
-0.000291631
5.84381e-05
-0.000205397
-0.0003061
4.93764e-05
-0.00018266
-0.00030147
-3.21205e-06
-0.00013096
-0.000280035
-8.47602e-05
-7.21702e-05
-0.000239797
-0.000176812
-2.16183e-05
-0.00018001
-0.000264679
1.51165e-05
-0.000104656
3.95894e-05
-2.26186e-05
-0.000373333
0.000214266
-9.60721e-05
-0.000411734
0.000198216
-5.89198e-05
-0.000408629
0.000167645
-3.37847e-05
-0.000363597
0.000118943
-3.17705e-05
-0.000279218
5.28702e-05
-5.21474e-05
-0.000164223
-2.72952e-05
-8.67282e-05
-3.2757e-05
-0.000114142
-0.000124825
9.60161e-05
-0.000194202
-0.000157817
0.000199969
-0.000246731
-0.000181892
0.000256461
-0.000248467
-0.000199308
0.000249158
-0.000189927
-0.000216629
0.000178782
-9.14099e-05
-0.000235794
6.4716e-05
1.07079e-05
-0.00024736
-6.58754e-05
9.23117e-05
-0.000239074