/*--------------------------------*- C++ -*----------------------------------*\
| =========                 |                                                 |
| \\      /  F ield         | OpenFOAM: The Open Source CFD Toolbox           |
|  \\    /   O peration     | Version:  3.0.0                                 |
|   \\  /    A nd           | Web:      www.OpenFOAM.org                      |
|    \\/     M anipulation  |                                                 |
\*---------------------------------------------------------------------------*/
FoamFile
{
    version     2.0;
    format      ascii;
    class       volVectorField;
    location    "9";
    object      U;
}
// * * * * * * * * * * * * * * * * * * * * * * * * * * * * * * * * * * * * * //

dimensions      [0 1 -1 0 0 0 0];

internalField   nonuniform List<vector> 
4096
(
(-0.0280482 -0.101911 0.074329)
(-0.0430793 -0.0837869 0.0933066)
(-0.0604953 -0.0594404 0.0991834)
(-0.072784 -0.0321379 0.0909544)
(-0.0795072 -0.00770524 0.0693434)
(-0.0817233 0.00830449 0.0370497)
(-0.0806829 0.0132668 -0.00062202)
(-0.0768186 0.00795614 -0.0361237)
(-0.0695786 -0.00477936 -0.0628168)
(-0.0584103 -0.0217373 -0.0772725)
(-0.0438455 -0.0403978 -0.0791885)
(-0.027822 -0.0590749 -0.0698814)
(-0.0135361 -0.0765848 -0.050965)
(-0.00507399 -0.0917522 -0.0241732)
(-0.0060047 -0.102921 0.0077317)
(-0.0121262 -0.106864 0.0404055)
(-0.0748311 -0.0744905 0.0534771)
(-0.0945144 -0.0558836 0.0749652)
(-0.114193 -0.0361196 0.0863972)
(-0.12473 -0.0158043 0.0860848)
(-0.126405 0.00152926 0.0741196)
(-0.120499 0.0120571 0.0524607)
(-0.108845 0.0135289 0.0251114)
(-0.0932719 0.0063745 -0.00274154)
(-0.0750867 -0.00681017 -0.0265886)
(-0.0556344 -0.0229426 -0.0439431)
(-0.0368882 -0.03947 -0.0539818)
(-0.0216113 -0.0546577 -0.0562929)
(-0.0130936 -0.0672527 -0.0498958)
(-0.0146147 -0.0761601 -0.0339902)
(-0.0278462 -0.0805698 -0.0100805)
(-0.0437518 -0.0793835 0.0168957)
(-0.115312 -0.0411838 0.0310158)
(-0.135198 -0.026319 0.055699)
(-0.154714 -0.0129124 0.0736634)
(-0.161672 -0.000601962 0.0824265)
(-0.157392 0.00849076 0.0814838)
(-0.143749 0.0120726 0.0717874)
(-0.123263 0.0091164 0.0555926)
(-0.0986639 0.000594525 0.0358232)
(-0.0726438 -0.0110734 0.0150264)
(-0.0479258 -0.0232396 -0.0052754)
(-0.0274825 -0.0339471 -0.024127)
(-0.0146944 -0.0422112 -0.0395948)
(-0.0127646 -0.0476436 -0.0476791)
(-0.0239745 -0.0500902 -0.0442144)
(-0.048136 -0.0497411 -0.0285994)
(-0.0701952 -0.046656 -0.00553658)
(-0.142922 0.00324846 0.0043149)
(-0.159994 0.00868548 0.0325418)
(-0.177238 0.0122948 0.0573032)
(-0.179791 0.0144906 0.0751178)
(-0.170222 0.0143651 0.0847113)
(-0.150862 0.0108312 0.0860823)
(-0.12443 0.00385034 0.0800899)
(-0.0941953 -0.00528591 0.0680222)
(-0.0636691 -0.0142951 0.0509873)
(-0.0364982 -0.0207811 0.029467)
(-0.0164803 -0.0232951 0.00386547)
(-0.00735087 -0.0217554 -0.0232201)
(-0.0118975 -0.0173029 -0.0453253)
(-0.0311962 -0.0116978 -0.0547537)
(-0.0633814 -0.00665022 -0.0480405)
(-0.0884306 -0.00331991 -0.0285063)
(-0.153327 0.0529046 -0.027553)
(-0.16591 0.0453799 0.00379565)
(-0.178921 0.0371951 0.03437)
(-0.176802 0.0281023 0.0598491)
(-0.16308 0.0182672 0.078077)
(-0.14039 0.00779652 0.0882464)
(-0.111375 -0.00277957 0.0903975)
(-0.0792554 -0.0120401 0.0850106)
(-0.047784 -0.0177508 0.0724228)
(-0.0211961 -0.0176979 0.0522437)
(-0.00383171 -0.010807 0.0238331)
(0.000617916 0.00214134 -0.0107904)
(-0.00978055 0.0181012 -0.0440399)
(-0.0347447 0.0327362 -0.0652867)
(-0.0711178 0.0424687 -0.0678505)
(-0.0967286 0.0451436 -0.0525077)
(-0.144443 0.101166 -0.0626281)
(-0.151463 0.0795922 -0.0293362)
(-0.158268 0.0587021 0.00541459)
(-0.151294 0.0378191 0.03655)
(-0.13464 0.0182561 0.0609426)
(-0.111108 0.00110216 0.0771249)
(-0.0829262 -0.0127421 0.084832)
(-0.0527291 -0.0217895 0.0845292)
(-0.0240318 -0.0238031 0.0765407)
(-0.00126723 -0.0166966 0.0599742)
(0.0110985 0.000186469 0.0329269)
(0.00989431 0.0251233 -0.00413257)
(-0.00553581 0.0531641 -0.0441237)
(-0.0334753 0.0771294 -0.0748193)
(-0.0699591 0.0915053 -0.0865476)
(-0.094273 0.0933785 -0.0768358)
(-0.116597 0.140767 -0.0941674)
(-0.116933 0.106547 -0.0606139)
(-0.115727 0.0730278 -0.0234771)
(-0.103983 0.0407621 0.0111294)
(-0.0859412 0.0123313 0.0389125)
(-0.0642525 -0.0105493 0.0578843)
(-0.0402884 -0.026929 0.0679753)
(-0.0156676 -0.0353073 0.0703903)
(0.00669041 -0.0333129 0.0661739)
(0.0225964 -0.0189312 0.0543942)
(0.027978 0.00788883 0.0319138)
(0.0206703 0.0443016 -0.00287255)
(0.00138707 0.0836612 -0.0447158)
(-0.026909 0.116319 -0.0814742)
(-0.0597351 0.134914 -0.101296)
(-0.0810564 0.136152 -0.0985185)
(-0.0720009 0.163493 -0.110629)
(-0.0641689 0.120356 -0.0791213)
(-0.054371 0.0759566 -0.0418739)
(-0.0389912 0.0344793 -0.00669902)
(-0.0219844 -0.00016628 0.0209146)
(-0.00525723 -0.0264019 0.0386078)
(0.0111903 -0.04376 0.0470604)
(0.0269902 -0.0507432 0.0489011)
(0.0400213 -0.0446066 0.0465206)
(0.0467872 -0.0233583 0.0393121)
(0.044183 0.0122614 0.0231295)
(0.0313556 0.0581887 -0.00570082)
(0.0102429 0.10648 -0.0444585)
(-0.0154189 0.145931 -0.082623)
(-0.0411279 0.167428 -0.107522)
(-0.0570284 0.167554 -0.11127)
(-0.0152332 0.162069 -0.102331)
(0.00201926 0.115418 -0.0753051)
(0.018706 0.0644653 -0.0411069)
(0.0350258 0.0185898 -0.00921589)
(0.0478015 -0.0174922 0.0138534)
(0.0564725 -0.0433655 0.0256287)
(0.0626596 -0.0595024 0.0279037)
(0.067215 -0.0642284 0.0253237)
(0.068895 -0.0541915 0.0220813)
(0.0653294 -0.0274414 0.0181086)
(0.0549488 0.0143678 0.00853134)
(0.0384003 0.0660739 -0.0118925)
(0.0185897 0.119061 -0.0428007)
(-0.000604717 0.161702 -0.0762451)
(-0.0154713 0.18353 -0.100548)
(-0.0212748 0.180541 -0.107273)
(0.0437962 0.134702 -0.0715295)
(0.0705444 0.0897589 -0.0496478)
(0.0904785 0.0390632 -0.0210967)
(0.104552 -0.00418821 0.00420913)
(0.110589 -0.0357113 0.0190313)
(0.10943 -0.0571166 0.0208926)
(0.104082 -0.0698119 0.0129998)
(0.0963738 -0.0715892 0.0025234)
(0.0860645 -0.0584122 -0.00424703)
(0.072349 -0.028545 -0.00681995)
(0.0555732 0.0154395 -0.0105049)
(0.0378721 0.0674746 -0.0214117)
(0.0228449 0.118898 -0.0407701)
(0.0140086 0.158833 -0.0632902)
(0.0133752 0.176755 -0.0798736)
(0.0245667 0.16751 -0.0832198)
(0.0913236 0.0882218 -0.03087)
(0.125147 0.0480425 -0.0125863)
(0.144225 0.00470945 0.00994443)
(0.154154 -0.0288383 0.0274763)
(0.153237 -0.0504273 0.0323835)
(0.142932 -0.063974 0.0222294)
(0.126939 -0.0714937 0.00187735)
(0.107867 -0.0700804 -0.0186187)
(0.0867507 -0.0552051 -0.0307993)
(0.0647786 -0.0255339 -0.0335715)
(0.0442441 0.0156196 -0.0324161)
(0.0284073 0.0616905 -0.0337296)
(0.0209845 0.104419 -0.039804)
(0.0244254 0.134526 -0.0477386)
(0.0383507 0.143232 -0.0513652)
(0.0700764 0.125572 -0.0449654)
(0.117873 0.0345486 0.00816645)
(0.153243 0.000343607 0.0247235)
(0.168023 -0.0307103 0.0423048)
(0.173108 -0.0499728 0.0524544)
(0.16685 -0.0585279 0.0476294)
(0.150128 -0.0622806 0.0255415)
(0.126379 -0.0636794 -0.00725311)
(0.0988634 -0.059462 -0.0378868)
(0.0703069 -0.0450943 -0.0559697)
(0.043986 -0.0196146 -0.0598149)
(0.0236805 0.0134562 -0.0547376)
(0.012955 0.0478812 -0.047141)
(0.0146915 0.0764623 -0.0402378)
(0.0294686 0.0920811 -0.0333831)
(0.0541402 0.0887045 -0.0229968)
(0.100489 0.064073 -0.00405316)
(0.121885 -0.0159986 0.0397509)
(0.152032 -0.0426621 0.0557255)
(0.160142 -0.0594573 0.0691973)
(0.159816 -0.0634378 0.0727363)
(0.149832 -0.0587699 0.0593874)
(0.129982 -0.0526279 0.0272778)
(0.102609 -0.0480549 -0.0156676)
(0.0713799 -0.0422023 -0.0545426)
(0.0406741 -0.0310433 -0.0776722)
(0.0153298 -0.0137026 -0.0827639)
(-0.000319137 0.00702906 -0.0746206)
(-0.00339247 0.0263347 -0.0595066)
(0.00731266 0.0389791 -0.0415597)
(0.0301764 0.0402555 -0.0222582)
(0.0597904 0.02685 -0.000227758)
(0.108339 0.00018743 0.0293089)
(0.106368 -0.0575228 0.0612411)
(0.125953 -0.0741076 0.0771565)
(0.126142 -0.0768039 0.0871044)
(0.120007 -0.0673199 0.0850199)
(0.107388 -0.0517011 0.0651175)
(0.0873874 -0.0375374 0.0263099)
(0.0610341 -0.0285718 -0.022702)
(0.0319012 -0.0230222 -0.0664199)
(0.0051647 -0.0175971 -0.092827)
(-0.013957 -0.0109835 -0.0990548)
(-0.0216954 -0.00436603 -0.0890953)
(-0.0165335 -0.000349404 -0.0688824)
(0.000872736 -0.00180211 -0.0432642)
(0.0271696 -0.0111688 -0.0153605)
(0.0559155 -0.0295302 0.0143311)
(0.095598 -0.0529024 0.049547)
(0.0753165 -0.0873765 0.0721437)
(0.0820226 -0.0916615 0.0881719)
(0.0743603 -0.0818096 0.0953818)
(0.062963 -0.062088 0.0893933)
(0.0489401 -0.0392521 0.0660013)
(0.031514 -0.0206069 0.0250835)
(0.0107731 -0.0101537 -0.024857)
(-0.0105862 -0.00712777 -0.0694461)
(-0.0280838 -0.00875159 -0.0972519)
(-0.0374907 -0.0129158 -0.104884)
(-0.0363843 -0.0189751 -0.0952399)
(-0.0246941 -0.0273478 -0.0735349)
(-0.00443976 -0.0388419 -0.0447429)
(0.020231 -0.0541065 -0.01281)
(0.0432308 -0.0726144 0.0202362)
(0.0684232 -0.0896708 0.0559978)
(0.0346514 -0.0969434 0.0731004)
(0.0301241 -0.0903264 0.0888748)
(0.0159174 -0.0725851 0.0946786)
(0.00030201 -0.0476717 0.0878904)
(-0.0142369 -0.0220779 0.0658006)
(-0.0271947 -0.00291934 0.0285713)
(-0.0387714 0.00566712 -0.0168899)
(-0.0481291 0.00413696 -0.0587009)
(-0.0531289 -0.00447479 -0.0866957)
(-0.0516653 -0.0170007 -0.0968844)
(-0.0429415 -0.0313427 -0.0906586)
(-0.0279271 -0.0464636 -0.071896)
(-0.00915584 -0.0619429 -0.0448786)
(0.00947632 -0.0774496 -0.0135164)
(0.0233481 -0.0918662 0.0190637)
(0.0340876 -0.101566 0.0516742)
(-0.070476 -0.0806155 0.0773283)
(-0.0824747 -0.0676217 0.0944138)
(-0.0963591 -0.0534104 0.0980378)
(-0.103453 -0.0383322 0.0867593)
(-0.103436 -0.0254472 0.0618528)
(-0.0975384 -0.0179214 0.0272053)
(-0.0880374 -0.017172 -0.0109329)
(-0.0771835 -0.0224199 -0.0455067)
(-0.0662737 -0.0313466 -0.0710264)
(-0.0558828 -0.0413328 -0.0849013)
(-0.0465718 -0.050586 -0.0867171)
(-0.0392165 -0.0585733 -0.0770521)
(-0.0350136 -0.0655565 -0.0569461)
(-0.0356339 -0.0717259 -0.0282721)
(-0.0426309 -0.0766717 0.00545268)
(-0.0497286 -0.0786606 0.0381133)
(-0.104046 -0.0508494 0.0495807)
(-0.118928 -0.0390647 0.0691003)
(-0.134109 -0.0289501 0.078722)
(-0.138749 -0.0198791 0.0761177)
(-0.133539 -0.0134931 0.061687)
(-0.120061 -0.0116791 0.038097)
(-0.100934 -0.0151483 0.00969966)
(-0.0793466 -0.0228494 -0.0185345)
(-0.0582325 -0.032344 -0.0425983)
(-0.0401316 -0.0410241 -0.0602164)
(-0.0272714 -0.0473604 -0.0702167)
(-0.0214095 -0.0512941 -0.0714973)
(-0.0235579 -0.0534688 -0.0628167)
(-0.0342369 -0.0543264 -0.0439932)
(-0.0531448 -0.0540132 -0.0173769)
(-0.0689567 -0.0520424 0.0112368)
(-0.127687 -0.0129284 0.0198367)
(-0.142774 -0.00642904 0.0423248)
(-0.15743 -0.00283678 0.0590038)
(-0.158571 -0.0016154 0.066422)
(-0.147953 -0.00340813 0.0639157)
(-0.127705 -0.00882876 0.0526323)
(-0.10084 -0.0174882 0.0351132)
(-0.0711559 -0.0275775 0.0143447)
(-0.0426642 -0.0362918 -0.00715323)
(-0.0193193 -0.0410305 -0.0277209)
(-0.00472219 -0.0408755 -0.0460012)
(-0.00142682 -0.0370158 -0.0595159)
(-0.0101805 -0.0315227 -0.0643705)
(-0.0302354 -0.0259492 -0.0575393)
(-0.0594008 -0.0211476 -0.0393768)
(-0.0816566 -0.0174653 -0.0143804)
(-0.138031 0.0341403 -0.0124176)
(-0.151738 0.031471 0.012889)
(-0.164166 0.0258696 0.0364676)
(-0.161273 0.0172664 0.0537798)
(-0.145781 0.00593319 0.0629321)
(-0.120368 -0.00753304 0.0637495)
(-0.088311 -0.0216794 0.0571068)
(-0.053711 -0.0339578 0.0444402)
(-0.0211544 -0.0410719 0.0271204)
(0.00451055 -0.040243 0.00591466)
(0.0187468 -0.0311228 -0.0184711)
(0.0185396 -0.016527 -0.043123)
(0.00359278 -0.000760947 -0.0617963)
(-0.0240469 0.0127284 -0.0681809)
(-0.0605093 0.0221149 -0.0598991)
(-0.0868244 0.0263222 -0.0393222)
(-0.134385 0.0840215 -0.0465564)
(-0.145618 0.0704221 -0.0194108)
(-0.154045 0.0542445 0.00974156)
(-0.146657 0.0347658 0.0355032)
(-0.126947 0.0131903 0.0547352)
(-0.0981132 -0.00864792 0.065963)
(-0.0636068 -0.0283331 0.0688456)
(-0.0274978 -0.0426463 0.0639412)
(0.00554645 -0.047765 0.0520383)
(0.0302984 -0.0405991 0.0331089)
(0.0417866 -0.0212317 0.00648716)
(0.0370477 0.00578034 -0.0258148)
(0.0166036 0.0334233 -0.0563361)
(-0.0162568 0.0557685 -0.0756655)
(-0.0564414 0.0698158 -0.0782272)
(-0.0845142 0.0740063 -0.0636883)
(-0.117892 0.129749 -0.079464)
(-0.125393 0.105324 -0.0518381)
(-0.127967 0.0781126 -0.0189555)
(-0.115542 0.0474266 0.0131065)
(-0.0922407 0.0156001 0.039877)
(-0.0618116 -0.0143135 0.0586669)
(-0.0277035 -0.0390805 0.068427)
(0.00643139 -0.0549401 0.0696496)
(0.0363096 -0.0576216 0.063323)
(0.0568562 -0.0437395 0.0490187)
(0.0632528 -0.013739 0.024379)
(0.053122 0.0261601 -0.0107226)
(0.0280664 0.0661365 -0.0491958)
(-0.00750871 0.0975151 -0.079549)
(-0.0478172 0.116049 -0.0929742)
(-0.0754669 0.120101 -0.0862379)
(-0.0910028 0.16456 -0.104551)
(-0.092896 0.130672 -0.0776186)
(-0.0879041 0.0926784 -0.0427001)
(-0.0701371 0.0513248 -0.00683926)
(-0.0442587 0.0103593 0.0241149)
(-0.0144516 -0.0261786 0.046472)
(0.0161895 -0.0545438 0.0591425)
(0.0448353 -0.0707302 0.063469)
(0.0679971 -0.0702298 0.0614361)
(0.0813476 -0.049548 0.052686)
(0.0809148 -0.0094835 0.0332885)
(0.0652991 0.0424041 0.000346639)
(0.0370551 0.0938092 -0.0410947)
(0.0013359 0.133416 -0.0789531)
(-0.0358246 0.1557 -0.101824)
(-0.0609369 0.159363 -0.10365)
(-0.055988 0.182592 -0.112217)
(-0.0499041 0.141385 -0.0868841)
(-0.0365218 0.0937892 -0.0518619)
(-0.0141848 0.04369 -0.0154667)
(0.012077 -0.00362739 0.0151916)
(0.0382164 -0.0437025 0.0359096)
(0.0620492 -0.0729736 0.0464288)
(0.0818268 -0.0875592 0.0498117)
(0.0951317 -0.0829678 0.0495908)
(0.0989503 -0.0559242 0.0457361)
(0.0908953 -0.00764658 0.0331621)
(0.070869 0.0536026 0.00645715)
(0.0419511 0.113996 -0.0323402)
(0.00925027 0.160031 -0.07244)
(-0.0216052 0.18462 -0.101042)
(-0.0417275 0.186868 -0.109869)
(-0.0141279 0.179957 -0.0949397)
(0.00167973 0.134229 -0.072248)
(0.0221742 0.0798182 -0.0399117)
(0.0463173 0.0248697 -0.00727688)
(0.0693607 -0.024188 0.0177534)
(0.0882109 -0.0634759 0.0311725)
(0.102009 -0.0903402 0.0343)
(0.110155 -0.101266 0.0325915)
(0.111377 -0.0919992 0.0312906)
(0.104381 -0.0598599 0.0306291)
(0.0889053 -0.00661754 0.0248335)
(0.0664608 0.0594562 0.00699865)
(0.0404199 0.124572 -0.0235661)
(0.0149908 0.174142 -0.0588378)
(-0.00563714 0.199091 -0.08662)
(-0.0166417 0.198069 -0.0976789)
(0.0308289 0.155617 -0.0556079)
(0.0560778 0.108798 -0.036221)
(0.0799689 0.0526056 -0.00929006)
(0.101689 -0.00123307 0.0156754)
(0.117602 -0.0462892 0.0305946)
(0.126242 -0.080316 0.032178)
(0.128058 -0.101816 0.0239074)
(0.123299 -0.107682 0.0139876)
(0.111835 -0.0940895 0.00922926)
(0.0943332 -0.0591728 0.00987787)
(0.0727655 -0.0053644 0.00985861)
(0.0502746 0.0595097 0.00191284)
(0.0305909 0.12297 -0.0161791)
(0.0167616 0.171121 -0.0394655)
(0.0106958 0.193677 -0.0584011)
(0.0152781 0.187614 -0.0645949)
(0.0690311 0.112713 -0.00780813)
(0.100657 0.0681424 0.00891034)
(0.12314 0.0169513 0.0295864)
(0.138896 -0.028854 0.0451839)
(0.145733 -0.0644424 0.0479522)
(0.143721 -0.0895847 0.0356714)
(0.134032 -0.103798 0.0143219)
(0.117396 -0.104342 -0.00513348)
(0.0949648 -0.0879698 -0.014659)
(0.0694023 -0.0536712 -0.0140983)
(0.0445847 -0.00439694 -0.0095087)
(0.0247417 0.0526901 -0.00776635)
(0.0136516 0.106992 -0.0117892)
(0.0133086 0.146811 -0.0191727)
(0.0232312 0.162722 -0.0237135)
(0.0475788 0.150884 -0.0186892)
(0.0894833 0.0593909 0.0349839)
(0.121754 0.0200376 0.050445)
(0.138964 -0.0200754 0.0656512)
(0.147226 -0.0523592 0.0722312)
(0.145872 -0.0748247 0.0632033)
(0.135679 -0.0890687 0.0377297)
(0.117676 -0.0954328 0.00420822)
(0.0928448 -0.0916591 -0.0241352)
(0.0636649 -0.0751556 -0.0384988)
(0.0345385 -0.0455596 -0.0387684)
(0.0105442 -0.00583788 -0.0306291)
(-0.00386487 0.0378787 -0.0203658)
(-0.00558435 0.0772359 -0.0113536)
(0.00595698 0.103357 -0.00333883)
(0.0280936 0.1092 0.0070099)
(0.0672443 0.0926009 0.0252247)
(0.0878675 0.00577869 0.0663733)
(0.114103 -0.0251512 0.0817078)
(0.123681 -0.0508392 0.0922825)
(0.124624 -0.0675051 0.0908669)
(0.117608 -0.0760606 0.0718406)
(0.103313 -0.0794878 0.0359285)
(0.0819801 -0.0789641 -0.00675631)
(0.0546254 -0.0729755 -0.041833)
(0.024708 -0.0595332 -0.0602609)
(-0.00241428 -0.0383797 -0.0617354)
(-0.0214352 -0.0117692 -0.0512487)
(-0.0285515 0.0158067 -0.0344671)
(-0.0219954 0.0384627 -0.0151844)
(-0.00280702 0.0501617 0.00508521)
(0.024767 0.0465892 0.0273314)
(0.0666525 0.0282588 0.0558363)
(0.066486 -0.0397883 0.084741)
(0.0820133 -0.0591421 0.100261)
(0.0832696 -0.0699855 0.106857)
(0.0781149 -0.0723384 0.0989577)
(0.0682917 -0.0690407 0.0727784)
(0.0540915 -0.0639121 0.0305308)
(0.0348447 -0.0589094 -0.0170984)
(0.0112263 -0.0533343 -0.0559954)
(-0.013257 -0.0455621 -0.0773702)
(-0.033477 -0.034863 -0.0804517)
(-0.0448739 -0.0221817 -0.0692435)
(-0.0448201 -0.0100482 -0.0487022)
(-0.0329561 -0.00196675 -0.0228418)
(-0.0115312 -0.00147931 0.00559869)
(0.0146268 -0.010588 0.0356352)
(0.0484323 -0.0270164 0.0694316)
(0.0310641 -0.071689 0.0904731)
(0.0347928 -0.0778871 0.106019)
(0.0285761 -0.0759101 0.109707)
(0.0193958 -0.0674917 0.0977982)
(0.0095438 -0.0562969 0.0683669)
(-0.000968432 -0.0464275 0.0246114)
(-0.0134838 -0.0401975 -0.0234493)
(-0.0281597 -0.0373687 -0.0632093)
(-0.0426025 -0.0363239 -0.0864896)
(-0.0530594 -0.0355762 -0.0918384)
(-0.0563779 -0.0346917 -0.0820269)
(-0.0511615 -0.0344729 -0.0610691)
(-0.0380147 -0.0365489 -0.0327654)
(-0.0196438 -0.0425766 -0.000429845)
(-0.000436157 -0.0529733 0.0334068)
(0.0202101 -0.0650504 0.0679242)
(-0.0100304 -0.0826599 0.0849998)
(-0.0155085 -0.0778584 0.1001)
(-0.0271852 -0.0677333 0.102583)
(-0.0381987 -0.0537394 0.0902272)
(-0.0461218 -0.0395708 0.062396)
(-0.0507937 -0.0292207 0.0223114)
(-0.0538395 -0.0248573 -0.021796)
(-0.0566645 -0.0260988 -0.0596088)
(-0.0589206 -0.0309653 -0.0838311)
(-0.0590162 -0.037279 -0.0922749)
(-0.0555129 -0.0436806 -0.0862806)
(-0.0480444 -0.0499316 -0.0685444)
(-0.037546 -0.056578 -0.0420666)
(-0.0263247 -0.0641953 -0.0100662)
(-0.017497 -0.0724956 0.0239072)
(-0.00993513 -0.079392 0.0562089)
(-0.0960442 -0.0550653 0.0716521)
(-0.102614 -0.0468944 0.0834245)
(-0.111139 -0.0398661 0.0828615)
(-0.112427 -0.0330414 0.0682344)
(-0.106795 -0.027787 0.0413295)
(-0.0956714 -0.025917 0.00669946)
(-0.0815689 -0.0283392 -0.0292827)
(-0.0673261 -0.0344195 -0.0602886)
(-0.0551704 -0.0420149 -0.0819617)
(-0.046616 -0.0483884 -0.0924862)
(-0.0426142 -0.0517849 -0.091668)
(-0.0433027 -0.0524064 -0.0799589)
(-0.0479617 -0.0517541 -0.0583859)
(-0.0559397 -0.051209 -0.0291436)
(-0.0671573 -0.0513473 0.00394726)
(-0.0738163 -0.0514586 0.0344244)
(-0.113065 -0.024806 0.0378348)
(-0.12265 -0.0187108 0.0523645)
(-0.132306 -0.0150556 0.0580218)
(-0.131324 -0.0133118 0.0523815)
(-0.120801 -0.0141156 0.0363107)
(-0.102438 -0.018283 0.0129038)
(-0.0789979 -0.0258357 -0.0134674)
(-0.0541587 -0.0353961 -0.038434)
(-0.0317685 -0.044204 -0.058852)
(-0.0154269 -0.0492337 -0.0731275)
(-0.00801932 -0.0490893 -0.0804048)
(-0.01069 -0.0449925 -0.0795269)
(-0.0222842 -0.0393996 -0.0692297)
(-0.0406188 -0.0341053 -0.0496314)
(-0.0635752 -0.0298631 -0.0232532)
(-0.0793404 -0.0265251 0.00458892)
(-0.118715 0.0140384 0.00263547)
(-0.130141 0.0146672 0.0202605)
(-0.139603 0.0121783 0.0330326)
(-0.135802 0.00639295 0.0375883)
(-0.120482 -0.00271741 0.0336044)
(-0.0957756 -0.01487 0.0226564)
(-0.0648222 -0.0289197 0.00722728)
(-0.0318844 -0.0423798 -0.0100963)
(-0.00184245 -0.051543 -0.0274071)
(0.0202022 -0.0528196 -0.0437671)
(0.0296942 -0.0452933 -0.0584673)
(0.0244458 -0.0320954 -0.0693363)
(0.00602705 -0.0179339 -0.0725793)
(-0.021747 -0.00596231 -0.0654044)
(-0.0546141 0.00270525 -0.0480878)
(-0.0779207 0.00785634 -0.0240332)
(-0.113694 0.0595331 -0.0328707)
(-0.125912 0.052414 -0.0127849)
(-0.133672 0.0416048 0.00670031)
(-0.126483 0.0263767 0.021292)
(-0.106677 0.00738784 0.0293305)
(-0.0769332 -0.013926 0.0308571)
(-0.0408121 -0.0351691 0.0266964)
(-0.0029428 -0.0526741 0.018004)
(0.0313011 -0.0616831 0.00574783)
(0.0560505 -0.0578067 -0.00994517)
(0.0656984 -0.0404543 -0.0294592)
(0.0573176 -0.0150427 -0.0508842)
(0.0328624 0.0104678 -0.0682963)
(-0.00240228 0.0307719 -0.0753704)
(-0.0423023 0.0441589 -0.0693357)
(-0.0709158 0.0502578 -0.0511836)
(-0.100416 0.105769 -0.067121)
(-0.111989 0.0901534 -0.0458701)
(-0.116326 0.069896 -0.0209849)
(-0.105015 0.0441854 0.00239651)
(-0.080983 0.0145442 0.0212054)
(-0.0475572 -0.0163344 0.033898)
(-0.00874832 -0.0447852 0.0398852)
(0.0306549 -0.066058 0.0394663)
(0.0652862 -0.0744501 0.0333175)
(0.0892304 -0.0647858 0.0210589)
(0.0966589 -0.0365616 0.000588447)
(0.0844326 0.00262701 -0.0280141)
(0.054969 0.0411142 -0.057972)
(0.0146927 0.0707732 -0.0794971)
(-0.0289041 0.089058 -0.0861671)
(-0.0602289 0.0956898 -0.0762743)
(-0.0818248 0.146727 -0.0968724)
(-0.0907785 0.122755 -0.0757455)
(-0.0898949 0.0925279 -0.046993)
(-0.0736393 0.0559516 -0.0166483)
(-0.0456242 0.0157187 0.010656)
(-0.00996816 -0.0241169 0.0317889)
(0.0289127 -0.0587447 0.0451607)
(0.066354 -0.0825926 0.0510099)
(0.0974638 -0.0893875 0.0505588)
(0.117 -0.0735217 0.0434733)
(0.119831 -0.034505 0.0258942)
(0.103259 0.0183969 -0.00512302)
(0.0700904 0.0700429 -0.0438645)
(0.0274492 0.109145 -0.0780377)
(-0.0165176 0.132067 -0.0974196)
(-0.0478799 0.138953 -0.0975217)
(-0.0606284 0.176902 -0.116355)
(-0.0644214 0.144951 -0.0958752)
(-0.0566757 0.10466 -0.0645343)
(-0.0349604 0.0576239 -0.0295301)
(-0.00368911 0.00805878 0.00282508)
(0.0322247 -0.0387412 0.0280485)
(0.0682126 -0.077154 0.0443444)
(0.100101 -0.101285 0.0529065)
(0.123898 -0.10486 0.0562642)
(0.13571 -0.0824508 0.0545284)
(0.132063 -0.0337609 0.0424851)
(0.111351 0.0311277 0.0139336)
(0.076434 0.0945137 -0.0282564)
(0.0342969 0.142027 -0.0711873)
(-0.00687675 0.168659 -0.101377)
(-0.0356919 0.175054 -0.111296)
(-0.037921 0.191965 -0.117268)
(-0.033818 0.152495 -0.0972566)
(-0.0183043 0.102728 -0.0648987)
(0.00829577 0.0468858 -0.028679)
(0.0408121 -0.00914856 0.00364849)
(0.0739861 -0.0592876 0.027025)
(0.103648 -0.0978616 0.0405418)
(0.126438 -0.119287 0.0473785)
(0.1396 -0.117858 0.0517553)
(0.141108 -0.0889672 0.0541782)
(0.129869 -0.0328521 0.0485828)
(0.106039 0.0405158 0.0264337)
(0.0722881 0.112616 -0.0129861)
(0.0343003 0.166522 -0.0585258)
(-0.000766313 0.195287 -0.0949092)
(-0.0243879 0.199634 -0.111775)
(-0.0123726 0.189318 -0.0924321)
(0.00138265 0.143443 -0.0732452)
(0.023717 0.0861887 -0.0427566)
(0.05256 0.0250061 -0.0102978)
(0.0826358 -0.0329293 0.0157024)
(0.109203 -0.081674 0.0306559)
(0.129015 -0.116399 0.0356924)
(0.139741 -0.13237 0.0366434)
(0.140025 -0.124852 0.0392785)
(0.129962 -0.0904841 0.044063)
(0.111063 -0.0303219 0.044436)
(0.0856199 0.046404 0.031074)
(0.0564172 0.12241 0.00060815)
(0.0271476 0.179714 -0.0392443)
(0.0025356 0.208735 -0.0740491)
(-0.0120164 0.209219 -0.0919232)
(0.0164418 0.167913 -0.0440734)
(0.0391698 0.118315 -0.0269518)
(0.0648714 0.0578528 -0.001922)
(0.09145 -0.00317294 0.0217009)
(0.114602 -0.0573307 0.0357825)
(0.131033 -0.0999439 0.0371528)
(0.138612 -0.127554 0.0297163)
(0.135889 -0.13654 0.0220815)
(0.122932 -0.123309 0.021053)
(0.101965 -0.0858238 0.0266186)
(0.0767956 -0.025993 0.0319977)
(0.0515857 0.047902 0.0283983)
(0.0296729 0.121116 0.0115363)
(0.0132292 0.176963 -0.0143167)
(0.00388629 0.203973 -0.0382508)
(0.00418381 0.199708 -0.0495136)
(0.0422138 0.128604 0.0129409)
(0.0704514 0.0795859 0.0274092)
(0.0947353 0.0226131 0.0450686)
(0.11483 -0.031385 0.0571807)
(0.128214 -0.0761796 0.0566854)
(0.133326 -0.108949 0.0424586)
(0.128803 -0.127684 0.0214122)
(0.113814 -0.12985 0.00455994)
(0.0898193 -0.112945 -0.000847476)
(0.0609247 -0.0760463 0.00454219)
(0.0325774 -0.0216377 0.0141053)
(0.00999071 0.043006 0.0201289)
(-0.0031338 0.105964 0.0184771)
(-0.00549114 0.153537 0.0108387)
(0.00203615 0.174866 0.00378633)
(0.0209057 0.166196 0.005207)
(0.0540634 0.0768239 0.0614962)
(0.0823378 0.0332897 0.0741606)
(0.101403 -0.013199 0.0848015)
(0.113275 -0.0540944 0.0856833)
(0.117349 -0.0855374 0.0713121)
(0.113249 -0.106567 0.0428773)
(0.0998088 -0.116419 0.00993026)
(0.0766323 -0.113515 -0.0149428)
(0.0463816 -0.0962196 -0.0245163)
(0.0144961 -0.064284 -0.0198098)
(-0.0127915 -0.02022 -0.0069312)
(-0.0301974 0.029953 0.0074951)
(-0.0344529 0.0770994 0.019479)
(-0.0251803 0.110946 0.0287078)
(-0.00494224 0.123199 0.0381947)
(0.0279719 0.111128 0.0532221)
(0.0460371 0.0226952 0.0930699)
(0.0686934 -0.0108558 0.104923)
(0.080587 -0.0425458 0.109763)
(0.0850048 -0.0675593 0.101273)
(0.0827624 -0.0845881 0.0759269)
(0.0738293 -0.0942425 0.0370566)
(0.0568208 -0.0968373 -0.00419119)
(0.0315755 -0.091619 -0.0348125)
(0.00140328 -0.0774822 -0.0478923)
(-0.0278512 -0.0542328 -0.0443798)
(-0.0501402 -0.0237144 -0.0295478)
(-0.0609278 0.00969818 -0.00909726)
(-0.058012 0.0395615 0.0129487)
(-0.0420923 0.0588194 0.0347378)
(-0.0167083 0.0621231 0.056603)
(0.0192152 0.048766 0.0812894)
(0.0204675 -0.0233849 0.10681)
(0.0341303 -0.0438753 0.118191)
(0.0386196 -0.0602146 0.118523)
(0.0376783 -0.0704647 0.103282)
(0.0328404 -0.0751408 0.0710193)
(0.0239027 -0.0759685 0.0265722)
(0.00915024 -0.0741205 -0.0187115)
(-0.0117364 -0.0694681 -0.0525547)
(-0.0357677 -0.0610511 -0.0684741)
(-0.0578165 -0.0481798 -0.0669116)
(-0.0728812 -0.0315293 -0.0520465)
(-0.0775993 -0.0136605 -0.0286714)
(-0.0708555 0.00136847 -0.000742222)
(-0.0540903 0.00916083 0.0288786)
(-0.0309272 0.00676747 0.0584847)
(-0.00168181 -0.00515381 0.0877509)
(-0.0150218 -0.0539545 0.104937)
(-0.0105014 -0.0610777 0.115827)
(-0.0123794 -0.0646551 0.113415)
(-0.0161607 -0.063981 0.0948322)
(-0.0202771 -0.0604686 0.0603085)
(-0.0252157 -0.0563976 0.015258)
(-0.0329626 -0.053355 -0.029994)
(-0.0444904 -0.0514556 -0.0647002)
(-0.0581404 -0.0495549 -0.0828619)
(-0.0704906 -0.0462243 -0.0841554)
(-0.0781452 -0.0409356 -0.0714707)
(-0.0789307 -0.0347132 -0.0485246)
(-0.0723754 -0.0298441 -0.0188637)
(-0.0599583 -0.0288362 0.0142171)
(-0.0446792 -0.0330935 0.0475999)
(-0.0266765 -0.0415735 0.0779159)
(-0.0506558 -0.0636996 0.0907544)
(-0.0529416 -0.0607127 0.101213)
(-0.0592861 -0.0562979 0.098362)
(-0.0636441 -0.0498057 0.0804104)
(-0.064843 -0.0429184 0.0484576)
(-0.0634715 -0.0379575 0.00752763)
(-0.0616462 -0.0363899 -0.0338806)
(-0.0613306 -0.0381232 -0.0669985)
(-0.0628421 -0.0416405 -0.0865026)
(-0.0650486 -0.0449123 -0.0913663)
(-0.0664482 -0.0466167 -0.0831176)
(-0.0659416 -0.0468615 -0.0640858)
(-0.0631644 -0.0469286 -0.0368479)
(-0.0588751 -0.0482774 -0.00446963)
(-0.0547918 -0.051597 0.0292139)
(-0.0484987 -0.0560409 0.0587443)
(-0.101837 -0.0285786 0.0611535)
(-0.103089 -0.0237102 0.0672891)
(-0.106396 -0.0199001 0.062206)
(-0.103377 -0.0164495 0.044147)
(-0.0946723 -0.0141741 0.0156086)
(-0.0815836 -0.0146183 -0.0179975)
(-0.0663187 -0.0189295 -0.0500755)
(-0.0515812 -0.0268263 -0.0750448)
(-0.0398723 -0.0360045 -0.089915)
(-0.0333361 -0.0429026 -0.0942604)
(-0.0334944 -0.0449127 -0.0889186)
(-0.0402296 -0.042269 -0.074843)
(-0.051358 -0.0373863 -0.0531581)
(-0.0642315 -0.0326773 -0.0258897)
(-0.0773716 -0.0294455 0.00373262)
(-0.0829307 -0.0275134 0.0303794)
(-0.1017 -0.000590398 0.0221763)
(-0.107696 0.00246584 0.0315355)
(-0.112909 0.00370211 0.0330445)
(-0.108641 0.00286266 0.0244698)
(-0.0958067 -0.000593082 0.00719159)
(-0.0757685 -0.00738056 -0.0150978)
(-0.0509603 -0.01769 -0.0378796)
(-0.0250099 -0.0301854 -0.0572555)
(-0.00215349 -0.0415585 -0.0710279)
(0.0131804 -0.0475278 -0.078813)
(0.0171726 -0.0456487 -0.0809943)
(0.00861348 -0.0375492 -0.0772866)
(-0.00976752 -0.0272497 -0.0667302)
(-0.0333916 -0.0178655 -0.0492856)
(-0.0583411 -0.0105987 -0.026689)
(-0.0742577 -0.00537544 -0.0025024)
(-0.0917999 0.0349719 -0.0164488)
(-0.101945 0.0337625 -0.00417094)
(-0.107882 0.0296296 0.00427875)
(-0.101763 0.0216982 0.00598454)
(-0.0847189 0.00983478 0.00101067)
(-0.0584477 -0.00565843 -0.00865841)
(-0.0258394 -0.0236673 -0.0204212)
(0.00881303 -0.0414735 -0.0320061)
(0.0401767 -0.0544402 -0.0422013)
(0.0622851 -0.0572097 -0.0511281)
(0.0693787 -0.0474278 -0.0596043)
(0.0587415 -0.0290107 -0.066912)
(0.0334401 -0.00914034 -0.0698486)
(8.96886e-05 0.00733385 -0.065397)
(-0.0348696 0.0191119 -0.052887)
(-0.0596635 0.026447 -0.0337897)
(-0.0762798 0.0748519 -0.0527324)
(-0.0891268 0.0680208 -0.0387889)
(-0.0941724 0.0565652 -0.0241323)
(-0.0852783 0.0395848 -0.0124966)
(-0.0639633 0.0175943 -0.00523921)
(-0.032473 -0.00796226 -0.00210312)
(0.00571021 -0.034479 -0.0022716)
(0.0457208 -0.0577647 -0.004895)
(0.0817209 -0.0718231 -0.00948093)
(0.107199 -0.0700877 -0.016664)
(0.115453 -0.0500211 -0.0285429)
(0.102567 -0.0180491 -0.0454719)
(0.0715524 0.0143886 -0.062626)
(0.0305909 0.0397639 -0.0732887)
(-0.0116597 0.0564306 -0.0734879)
(-0.0428298 0.06519 -0.0624391)
(-0.059229 0.114332 -0.0847663)
(-0.072599 0.10116 -0.0706646)
(-0.0748849 0.0811004 -0.0510992)
(-0.0620807 0.0538542 -0.0306957)
(-0.0363231 0.020882 -0.0123328)
(-0.000661601 -0.014996 0.0024366)
(0.0406885 -0.0496838 0.0127726)
(0.0824211 -0.0776445 0.0185591)
(0.118683 -0.0918362 0.0202013)
(0.143356 -0.084811 0.0170395)
(0.150089 -0.0536887 0.00542739)
(0.134563 -0.00688286 -0.0176744)
(0.0994095 0.0396595 -0.0473997)
(0.0536165 0.0749574 -0.0734229)
(0.00731402 0.0967145 -0.0877604)
(-0.0271882 0.106399 -0.0871095)
(-0.0437773 0.14873 -0.109745)
(-0.0550147 0.128488 -0.0963923)
(-0.0526359 0.0988889 -0.0731086)
(-0.0348371 0.0608147 -0.0455377)
(-0.00461414 0.0170245 -0.0182507)
(0.0339482 -0.028162 0.0053567)
(0.0758464 -0.0692663 0.0231819)
(0.115563 -0.0997874 0.0349549)
(0.147697 -0.112244 0.0417799)
(0.167307 -0.0990768 0.0435229)
(0.169658 -0.0573461 0.0353039)
(0.15111 0.00347487 0.0106388)
(0.113691 0.0638308 -0.0276915)
(0.0661939 0.10895 -0.0669742)
(0.0192011 0.135394 -0.0950163)
(-0.0155165 0.145382 -0.105618)
(-0.0316945 0.173802 -0.123029)
(-0.0378324 0.145514 -0.110078)
(-0.0291114 0.105787 -0.0838821)
(-0.00571113 0.0571682 -0.0512913)
(0.0283269 0.004019 -0.0186573)
(0.0678366 -0.0479468 0.00908461)
(0.107219 -0.0922741 0.0295102)
(0.141103 -0.122124 0.0433274)
(0.165026 -0.130326 0.0530186)
(0.175848 -0.110105 0.0590982)
(0.171373 -0.0591014 0.0559167)
(0.149803 0.0130565 0.0340816)
(0.112498 0.085048 -0.00722796)