/*--------------------------------*- C++ -*----------------------------------*\
| =========                 |                                                 |
| \\      /  F ield         | OpenFOAM: The Open Source CFD Toolbox           |
|  \\    /   O peration     | Version:  3.0.0                                 |
|   \\  /    A nd           | Web:      www.OpenFOAM.org                      |
|    \\/     M anipulation  |                                                 |
\*---------------------------------------------------------------------------*/
FoamFile
{
    version     2.0;
    format      ascii;
    class       volScalarField;
    location    "1";
    object      k;
}
// * * * * * * * * * * * * * * * * * * * * * * * * * * * * * * * * * * * * * //

dimensions      [0 2 -2 0 0 0 0];

internalField   nonuniform List<scalar> 
400
(
5.03194e-07
5.04812e-06
1.13737e-05
1.62004e-05
1.99978e-05
2.35214e-05
2.71787e-05
3.11365e-05
3.53757e-05
3.97192e-05
4.38082e-05
4.70533e-05
4.879e-05
4.95006e-05
4.87917e-05
4.40166e-05
3.46562e-05
2.10118e-05
6.727e-06
9.37975e-07
5.2456e-06
0.000103266
0.000221431
0.000287925
0.000326264
0.000353861
0.000378832
0.000404835
0.000432964
0.000462696
0.000492002
0.000516359
0.000526971
0.000523316
0.000494466
0.000438498
0.000349608
0.000217456
6.24685e-05
6.11728e-06
1.50259e-05
0.000266126
0.000557216
0.00073044
0.000839534
0.000914253
0.000969918
0.00101407
0.00104951
0.00107635
0.00108963
0.00109153
0.00107198
0.00102553
0.000943725
0.000815695
0.000621532
0.00034036
8.65924e-05
1.26142e-05
2.71001e-05
0.000410833
0.000817938
0.00105617
0.00120804
0.00131072
0.00138236
0.00143246
0.00146397
0.00147693
0.00147534
0.00145171
0.00140048
0.00131368
0.00117969
0.000980254
0.000690841
0.000325096
7.60051e-05
1.97498e-05
4.02345e-05
0.000533473
0.00102
0.00129635
0.00147047
0.00158651
0.00166477
0.00171556
0.00174092
0.00174652
0.00173122
0.00168859
0.00161137
0.00148776
0.00129965
0.00102165
0.000639092
0.000218945
5.99347e-05
3.26935e-05
5.35884e-05
0.000636317
0.001179
0.00147848
0.00166351
0.00178465
0.00186443
0.00191303
0.00193378
0.00193411
0.00190883
0.0018517
0.00175177
0.00159057
0.00133932
0.000962761
0.000450702
0.000139258
7.15021e-05
7.20966e-05
6.67384e-05
0.000721764
0.00130439
0.0016179
0.00180758
0.00192934
0.0020077
0.00205299
0.00207036
0.00206596
0.0020332
0.00196395
0.00184196
0.00163811
0.00130435
0.000780255
0.000270679
0.000150683
0.000172091
0.0002041
7.94424e-05
0.000791981
0.00140258
0.00172405
0.00191468
0.00203462
0.00211003
0.00215162
0.00216595
0.00215707
0.00211786
0.00203724
0.00189198
0.00163671
0.00120027
0.000533252
0.000256855
0.000282455
0.000456258
0.000527428
9.15764e-05
0.000848849
0.00147818
0.00180318
0.00199239
0.00210917
0.00218097
0.00221874
0.00223003
0.0022168
0.00217142
0.00207963
0.00191026
0.0015999
0.00102545
0.000432924
0.000333636
0.000573049
0.000851559
0.000991979
0.000103088
0.000893904
0.00153451
0.00185964
0.00204579
0.00215876
0.0022268
0.00226093
0.00226927
0.0022519
0.00220068
0.00209857
0.00190738
0.00154752
0.000892261
0.000444929
0.000441538
0.000855945
0.00115235
0.00136547
0.000113974
0.000928515
0.00157396
0.00189647
0.00207848
0.00218749
0.002252
0.0022831
0.00228894
0.00226807
0.00221199
0.00210221
0.00189856
0.0015138
0.000842257
0.000468933
0.000513397
0.00103074
0.00138926
0.0016011
0.000124243
0.000953617
0.00159788
0.00191567
0.00209292
0.00219829
0.00226011
0.00228929
0.00229356
0.00227042
0.00221154
0.00209861
0.00189195
0.0015154
0.00087442
0.000489991
0.000540255
0.00118198
0.00169164
0.00181198
0.000133928
0.00097025
0.00160718
0.00191816
0.00209122
0.00219442
0.00225531
0.00228436
0.00228861
0.002265
0.00220494
0.00209145
0.00189176
0.00154158
0.00096174
0.000527929
0.000548392
0.00129718
0.00204055
0.00202002
0.000143066
0.000976973
0.00160349
0.00190796
0.00207681
0.00217828
0.00223971
0.00227064
0.00227686
0.00225539
0.00219774
0.00208863
0.0019005
0.00158822
0.00110682
0.000617815
0.000622001
0.00135409
0.00230513
0.00224581
0.000151591
0.000975345
0.00158742
0.00188119
0.00204652
0.00214995
0.00221613
0.00225369
0.00226645
0.00225235
0.00220211
0.00210118
0.00192744
0.00165
0.0012489
0.000786826
0.000804845
0.00148623
0.00247321
0.00254492
0.000160935
0.000965696
0.00155259
0.00183708
0.00200584
0.00211827
0.00219635
0.00224767
0.00227319
0.00227176
0.0022359
0.00215326
0.0020035
0.00176332
0.00141681
0.00101719
0.00107216
0.0016921
0.00263036
0.00293011
0.000170809
0.000945156
0.00149798
0.00178943
0.00197889
0.00211525
0.00221423
0.00228613
0.00233513
0.0023611
0.00235647
0.0023128
0.00220907
0.0020266
0.00174905
0.00139949
0.00142248
0.00192533
0.00283857
0.00346707
0.00019359
0.000935842
0.00151038
0.00183548
0.00206732
0.00224781
0.0023952
0.00251712
0.00261703
0.00269757
0.0027529
0.00277889
0.00275757
0.00268554
0.0025218
0.0022663
0.00217092
0.00248783
0.00333391
0.00428815
0.000232708
0.00109032
0.00192565
0.00247261
0.00286814
0.00317658
0.00343174
0.00365019
0.00383454
0.00399897
0.00412735
0.00425072
0.00432104
0.00438199
0.00435897
0.00430057
0.00416926
0.00434354
0.005121
0.00576153
0.00253568
0.00505849
0.00665861
0.0074391
0.00795668
0.00830288
0.00853374
0.00868356
0.00876975
0.00881801
0.0088189
0.00880724
0.00878082
0.00873392
0.0086879
0.00864478
0.00865115
0.00869098
0.00896477
0.00753861
)
;

boundaryField
{
    movingWall
    {
        type            kqRWallFunction;
        value           nonuniform List<scalar> 
20
(
0.00253568
0.00505849
0.00665861
0.0074391
0.00795668
0.00830288
0.00853374
0.00868356
0.00876975
0.00881801
0.0088189
0.00880724
0.00878082
0.00873392
0.0086879
0.00864478
0.00865115
0.00869098
0.00896477
0.00753861
)
;
    }
    fixedWalls
    {
        type            kqRWallFunction;
        value           nonuniform List<scalar> 
60
(
5.03194e-07
5.2456e-06
1.50259e-05
2.71001e-05
4.02345e-05
5.35884e-05
6.67384e-05
7.94424e-05
9.15764e-05
0.000103088
0.000113974
0.000124243
0.000133928
0.000143066
0.000151591
0.000160935
0.000170809
0.00019359
0.000232708
0.00253568
9.37975e-07
6.11728e-06
1.26142e-05
1.97498e-05
3.26935e-05
7.20966e-05
0.0002041
0.000527428
0.000991979
0.00136547
0.0016011
0.00181198
0.00202002
0.00224581
0.00254492
0.00293011
0.00346707
0.00428815
0.00576153
0.00753861
5.03194e-07
5.04812e-06
1.13737e-05
1.62004e-05
1.99978e-05
2.35214e-05
2.71787e-05
3.11365e-05
3.53757e-05
3.97192e-05
4.38082e-05
4.70533e-05
4.879e-05
4.95006e-05
4.87917e-05
4.40166e-05
3.46562e-05
2.10118e-05
6.727e-06
9.37975e-07
)
;
    }
    frontAndBack
    {
        type            empty;
    }
}


// ************************************************************************* //
