/*--------------------------------*- C++ -*----------------------------------*\
| =========                 |                                                 |
| \\      /  F ield         | OpenFOAM: The Open Source CFD Toolbox           |
|  \\    /   O peration     | Version:  3.0.0                                 |
|   \\  /    A nd           | Web:      www.OpenFOAM.org                      |
|    \\/     M anipulation  |                                                 |
\*---------------------------------------------------------------------------*/
FoamFile
{
    version     2.0;
    format      ascii;
    class       volScalarField;
    location    "1";
    object      nut;
}
// * * * * * * * * * * * * * * * * * * * * * * * * * * * * * * * * * * * * * //

dimensions      [0 2 -1 0 0 0 0];

internalField   nonuniform List<scalar> 
400
(
3.931e-09
3.94189e-08
8.87582e-08
1.26365e-07
1.55927e-07
1.83339e-07
2.11772e-07
2.42518e-07
2.75424e-07
3.09113e-07
3.40803e-07
3.65935e-07
3.7938e-07
3.84879e-07
3.79394e-07
3.42421e-07
2.69846e-07
1.6382e-07
5.25202e-08
7.32727e-09
4.09601e-08
3.1023e-06
7.84987e-06
9.88191e-06
1.08309e-05
1.1539e-05
1.22805e-05
1.31752e-05
1.42839e-05
1.56247e-05
1.71875e-05
1.88665e-05
2.02192e-05
2.08552e-05
2.0089e-05
1.8007e-05
1.42122e-05
7.94313e-06
1.45769e-06
4.77628e-08
1.17218e-07
1.03062e-05
3.48792e-05
4.98924e-05
5.80948e-05
6.34692e-05
6.77819e-05
7.1759e-05
7.56394e-05
7.94162e-05
8.26316e-05
8.518e-05
8.52844e-05
8.2066e-05
7.40864e-05
6.01049e-05
3.92062e-05
1.55074e-05
2.01617e-06
9.84274e-08
2.11162e-07
1.66749e-05
6.19027e-05
9.75976e-05
0.000120315
0.000135281
0.000146067
0.00015436
0.000160578
0.000164573
0.000166003
0.000163642
0.0001554
0.000139548
0.000114589
8.10038e-05
4.37332e-05
1.34009e-05
1.59447e-06
1.54002e-07
3.13108e-07
2.20718e-05
8.4297e-05
0.000140889
0.000181229
0.000208834
0.000227926
0.000240843
0.000247847
0.000249676
0.000245387
0.000232891
0.000210239
0.000176102
0.000131199
8.07382e-05
3.54073e-05
7.59485e-06
1.12845e-06
2.54627e-07
4.16494e-07
2.66368e-05
0.000102679
0.000177796
0.000235573
0.000276583
0.000304532
0.000321266
0.000327736
0.000325418
0.000312023
0.000285871
0.000245567
0.000191462
0.000128259
6.63398e-05
2.01431e-05
3.82913e-06
1.16332e-06
5.59513e-07
5.18044e-07
3.04504e-05
0.000117649
0.00020832
0.00028165
0.00033517
0.000371107
0.00039056
0.000395734
0.000387226
0.000362822
0.000321334
0.000262514
0.000189655
0.000111301
4.36295e-05
9.07002e-06
3.10273e-06
2.33477e-06
1.56531e-06
6.15909e-07
3.35822e-05
0.000129613
0.000232792
0.000318986
0.000383049
0.000425382
0.000446415
0.000449466
0.000433762
0.000397812
0.000341136
0.000265136
0.000175645
8.73348e-05
2.3149e-05
6.49001e-06
4.90006e-06
5.54028e-06
3.93163e-06
7.09162e-07
3.60989e-05
0.000138883
0.000251587
0.000347612
0.000419669
0.000466472
0.000488134
0.000488374
0.000465596
0.00041901
0.000348949
0.000258682
0.000157014
6.36074e-05
1.54326e-05
7.47936e-06
9.74836e-06
1.01027e-05
7.10944e-06
7.97431e-07
3.80609e-05
0.000145711
0.000265068
0.000367779
0.000444989
0.000494293
0.000515766
0.00051306
0.000484372
0.00042955
0.000349897
0.000249793
0.000141881
5.01176e-05
1.46905e-05
9.93399e-06
1.5526e-05
1.42784e-05
9.49386e-06
8.80726e-07
3.95244e-05
0.000150295
0.00027352
0.000379716
0.000459166
0.000508998
0.000529582
0.000524406
0.000491863
0.000432359
0.000347983
0.000244683
0.000136162
4.71479e-05
1.60898e-05
1.2767e-05
2.21987e-05
1.94755e-05
1.09316e-05
9.59144e-07
4.0538e-05
0.000152704
0.000277024
0.000383397
0.000462072
0.00051056
0.000529859
0.000523326
0.000489752
0.000429898
0.000346157
0.00024517
0.000139909
5.19581e-05
1.86115e-05
1.57332e-05
3.12245e-05
2.71773e-05
1.21816e-05
1.03296e-06
4.11593e-05
0.000153211
0.000276048
0.000379668
0.000454871
0.000500048
0.000517269
0.000509964
0.000477665
0.000421214
0.000343023
0.000249074
0.000150256
6.39403e-05
2.35209e-05
1.8803e-05
3.97145e-05
3.64166e-05
1.33797e-05
1.10248e-06
4.13144e-05
0.000151805
0.000270381
0.000367125
0.000434635
0.000473561
0.0004876
0.000480203
0.000451853
0.000403209
0.000335759
0.000253511
0.000165204
8.38114e-05
3.29754e-05
2.5248e-05
4.48298e-05
4.2965e-05
1.46468e-05
1.16724e-06
4.11542e-05
0.000148204
0.000257886
0.000342262
0.000397556
0.000427393
0.000437229
0.00043036
0.000408219
0.000370903
0.00031853
0.000252584
0.00017849
0.00010629
5.03447e-05
3.92645e-05
5.17761e-05
4.63781e-05
1.62727e-05
1.23809e-06
4.05321e-05
0.000140861
0.000235446
0.000301144
0.000339667
0.000358234
0.00036287
0.000356673
0.000341333
0.000316899
0.00028274
0.000238168
0.000183734
0.000125428
7.47801e-05
6.02393e-05
6.01688e-05
4.64847e-05
1.82837e-05
1.31283e-06
3.94427e-05
0.000126994
0.000197616
0.000238407
0.000258228
0.000265076
0.000264591
0.000259562
0.000251067
0.000238856
0.000222323
0.000200058
0.000170893
0.000135142
9.67805e-05
7.91059e-05
6.5468e-05
4.61341e-05
2.09511e-05
1.48475e-06
3.71495e-05
0.000102163
0.000138391
0.000153355
0.000158649
0.00015954
0.000158524
0.00015658
0.000154056
0.000150797
0.000146312
0.000140109
0.000131244
0.000118898
0.000100622
8.31437e-05
6.37178e-05
4.49923e-05
2.47615e-05
1.77832e-06
3.06554e-05
5.90203e-05
7.05853e-05
7.53593e-05
7.78745e-05
7.93499e-05
8.03735e-05
8.11181e-05
8.17769e-05
8.22093e-05
8.25795e-05
8.2579e-05
8.18856e-05
8.04464e-05
7.71042e-05
6.86793e-05
5.57325e-05
4.43992e-05
3.09446e-05
1.62234e-05
2.80882e-05
3.43802e-05
3.72012e-05
3.89963e-05
4.01661e-05
4.09331e-05
4.14255e-05
4.17068e-05
4.18637e-05
4.18662e-05
4.18283e-05
4.1742e-05
4.15898e-05
4.14387e-05
4.12982e-05
4.13193e-05
4.14502e-05
4.23404e-05
3.75504e-05
)
;

boundaryField
{
    movingWall
    {
        type            nutkWallFunction;
        Cmu             0.09;
        kappa           0.41;
        E               9.8;
        value           nonuniform List<scalar> 
20
(
0
0
0
1.91247e-07
4.65736e-07
6.43631e-07
7.59887e-07
8.34367e-07
8.76884e-07
9.00581e-07
9.01015e-07
8.95297e-07
8.82326e-07
8.5924e-07
8.36514e-07
8.15161e-07
8.18319e-07
8.3804e-07
9.72193e-07
2.44855e-07
)
;
    }
    fixedWalls
    {
        type            nutkWallFunction;
        Cmu             0.09;
        kappa           0.41;
        E               9.8;
        value           nonuniform List<scalar> 
60
(
0
0
0
0
0
0
0
0
0
0
0
0
0
0
0
0
0
0
0
0
0
0
0
0
0
0
0
0
0
0
0
0
0
0
0
0
0
0
0
2.44855e-07
0
0
0
0
0
0
0
0
0
0
0
0
0
0
0
0
0
0
0
0
)
;
    }
    frontAndBack
    {
        type            empty;
    }
}


// ************************************************************************* //
