/*--------------------------------*- C++ -*----------------------------------*\
| =========                 |                                                 |
| \\      /  F ield         | OpenFOAM: The Open Source CFD Toolbox           |
|  \\    /   O peration     | Version:  3.0.0                                 |
|   \\  /    A nd           | Web:      www.OpenFOAM.org                      |
|    \\/     M anipulation  |                                                 |
\*---------------------------------------------------------------------------*/
FoamFile
{
    version     2.0;
    format      ascii;
    class       volScalarField;
    location    "1";
    object      omega;
}
// * * * * * * * * * * * * * * * * * * * * * * * * * * * * * * * * * * * * * //

dimensions      [0 0 -1 0 0 0 0];

internalField   nonuniform List<scalar> 
400
(
128.006
128.063
128.143
128.203
128.25
128.294
128.34
128.388
128.441
128.494
128.544
128.584
128.605
128.614
128.604
128.545
128.43
128.261
128.084
128.012
128.066
33.2869
28.2083
29.1366
30.1234
30.6664
30.8483
30.7271
30.3114
29.6131
28.6256
27.3692
26.0628
25.0928
24.6138
24.3515
24.5992
27.3766
42.8544
128.076
128.188
25.822
15.9756
14.6403
14.4511
14.4047
14.3094
14.1317
13.8752
13.5533
13.1866
12.8143
12.5695
12.4964
12.7382
13.5712
15.8529
21.9482
42.949
128.157
128.338
24.6378
13.2133
10.8217
10.0406
9.68885
9.46392
9.27997
9.1169
8.97432
8.88742
8.87122
9.01209
9.41386
10.2949
12.1013
15.7967
24.2592
47.6679
128.244
128.501
24.1699
12.1001
9.20121
8.11384
7.59698
7.30399
7.12313
7.02414
6.99514
7.05506
7.25054
7.66449
8.44825
9.90596
12.6539
18.0498
28.828
53.1123
128.398
128.666
23.8887
11.4824
8.31559
7.06154
6.45249
6.12229
5.95465
5.90041
5.94347
6.11759
6.4774
7.13359
8.30746
10.4423
14.5126
22.3751
36.368
61.4639
128.856
128.828
23.7029
11.0871
7.76638
6.41783
5.75631
5.41003
5.25652
5.23169
5.33529
5.60385
6.11185
7.01661
8.63732
11.7191
17.8837
29.8433
48.5647
73.7081
130.389
128.984
23.5834
10.8213
7.40596
6.0024
5.31163
4.96031
4.81976
4.81894
4.97294
5.32377
5.97194
7.13588
9.31831
13.7433
23.0357
39.5769
57.6432
82.3529
134.15
129.133
23.5146
10.6433
7.16723
5.73163
5.0258
4.67545
4.54536
4.56623
4.76121
5.18226
5.9597
7.3846
10.1896
16.1216
28.0525
44.6076
58.7842
84.2902
139.53
129.275
23.4861
10.5312
7.01569
5.56255
4.85126
4.50502
4.38364
4.423
4.64911
5.12324
5.99768
7.63583
10.9071
17.8033
30.2868
44.4472
55.1297
80.7059
143.827
129.409
23.4922
10.4725
6.93355
5.47377
4.76404
4.42437
4.31114
4.36483
4.61119
5.1161
6.04112
7.75927
11.1176
17.8641
29.1447
40.2128
46.4325
71.3338
146.466
129.535
23.524
10.4639
6.91519
5.45889
4.75746
4.42674
4.32058
4.38265
4.63586
5.14434
6.06259
7.71686
10.8313
16.8293
26.3273
34.3385
37.8542
62.2448
148.748
129.655
23.5731
10.49
6.94865
5.50802
4.82426
4.51019
4.4162
4.48778
4.74182
5.23473
6.09712
7.59516
10.2597
15.0412
22.445
29.1652
32.6627
56.0334
150.977
129.767
23.6473
10.5629
7.05656
5.65695
5.01174
4.7295
4.65677
4.74145
4.99142
5.45063
6.22062
7.49669
9.61365
13.2061
18.7356
24.6356
30.2051
53.6514
153.331
129.872
23.6998
10.7111
7.29465
5.97938
5.40792
5.18523
5.15448
5.2664
5.51751
5.93715
6.59649
7.63088
9.2442
11.7499
15.6288
20.4981
28.705
53.327
156.392
129.987
23.8255
11.0222
7.80252
6.66072
6.23633
6.13107
6.19413
6.37331
6.65553
7.05556
7.61569
8.41211
9.59717
11.2959
13.6024
17.7983
28.1226
56.5854
160.258
130.108
23.9628
11.7957
9.05511
8.30049
8.19142
8.35322
8.64025
8.99644
9.40423
9.86564
10.4029
11.0422
11.8589
12.9423
14.4604
17.982
29.4087
61.5287
165.484
130.386
25.1913
14.7841
13.263
13.4806
14.1684
15.0132
15.8785
16.7137
17.5104
18.2556
18.9929
19.6816
20.4621
21.2097
22.523
26.1105
39.0445
74.0996
173.178
130.859
35.5669
32.6269
35.0301
38.0596
40.7909
43.2482
45.4154
47.271
48.901
50.2054
51.4743
52.3261
53.5135
54.1848
55.7761
60.7062
77.9354
115.34
186.189
156.298
180.093
193.676
199.969
204.037
206.713
208.48
209.618
210.272
210.636
210.645
210.557
210.36
210.002
209.657
209.326
209.373
209.673
211.731
200.76
)
;

boundaryField
{
    movingWall
    {
        Cmu             0.09;
        kappa           0.41;
        E               9.8;
        beta1           0.075;
        type            omegaWallFunction;
        value           nonuniform List<scalar> 
20
(
156.298
180.093
193.676
199.969
204.037
206.713
208.48
209.618
210.272
210.636
210.645
210.557
210.36
210.002
209.657
209.326
209.373
209.673
211.731
200.76
)
;
    }
    fixedWalls
    {
        Cmu             0.09;
        kappa           0.41;
        E               9.8;
        beta1           0.075;
        type            omegaWallFunction;
        value           nonuniform List<scalar> 
60
(
128.006
128.066
128.188
128.338
128.501
128.666
128.828
128.984
129.133
129.275
129.409
129.535
129.655
129.767
129.872
129.987
130.108
130.386
130.859
156.298
128.012
128.076
128.157
128.244
128.398
128.856
130.389
134.15
139.53
143.827
146.466
148.748
150.977
153.331
156.392
160.258
165.484
173.178
186.189
200.76
128.006
128.063
128.143
128.203
128.25
128.294
128.34
128.388
128.441
128.494
128.544
128.584
128.605
128.614
128.604
128.545
128.43
128.261
128.084
128.012
)
;
    }
    frontAndBack
    {
        type            empty;
    }
}


// ************************************************************************* //
