/*--------------------------------*- C++ -*----------------------------------*\
| =========                 |                                                 |
| \\      /  F ield         | OpenFOAM: The Open Source CFD Toolbox           |
|  \\    /   O peration     | Version:  3.0.0                                 |
|   \\  /    A nd           | Web:      www.OpenFOAM.org                      |
|    \\/     M anipulation  |                                                 |
\*---------------------------------------------------------------------------*/
FoamFile
{
    version     2.0;
    format      ascii;
    class       volScalarField;
    location    "1";
    object      p;
}
// * * * * * * * * * * * * * * * * * * * * * * * * * * * * * * * * * * * * * //

dimensions      [0 2 -2 0 0 0 0];

internalField   nonuniform List<scalar> 
400
(
1.39169e-07
-9.77332e-07
-2.39811e-06
7.48472e-06
3.13995e-05
7.25533e-05
0.000133446
0.00021658
0.000324628
0.000460377
0.000626312
0.000823605
0.00105331
0.00131358
0.00159551
0.00188301
0.00215461
0.00238254
0.00254051
0.00261467
6.52121e-07
-2.20153e-06
-3.67999e-06
5.63911e-06
2.88821e-05
6.88264e-05
0.000127882
0.000208618
0.000313798
0.00044621
0.000608361
0.000802072
0.00102853
0.00128662
0.00156839
0.00186287
0.00215057
0.00240267
0.00258101
0.00266058
3.89723e-06
-2.40536e-06
-7.31922e-06
2.44637e-07
2.33896e-05
6.25844e-05
0.000119312
0.000196068
0.000295651
0.000420868
0.000574409
0.000758972
0.000977139
0.00123021
0.00151814
0.00183583
0.00216525
0.00246635
0.00267496
0.0027593
4.31799e-06
-7.24423e-06
-2.0511e-05
-1.90675e-05
2.39855e-06
4.07198e-05
9.481e-05
0.000166385
0.000258132
0.000372984
0.000514305
0.000686526
0.000895584
0.00114868
0.00145307
0.00181166
0.00220383
0.00257021
0.00280661
0.00289624
-3.8912e-06
-2.18675e-05
-4.92232e-05
-6.16374e-05
-4.82845e-05
-1.49606e-05
3.38212e-05
9.80513e-05
0.000179753
0.000281983
0.00040924
0.0005685
0.000770105
0.00102754
0.0013543
0.00176023
0.00222666
0.00267004
0.00292983
0.00304511
-2.61083e-05
-5.13147e-05
-9.58397e-05
-0.000127725
-0.00012916
-0.00010663
-6.75791e-05
-1.42844e-05
5.39704e-05
0.000140059
0.000249496
0.00039162
0.000580555
0.000834552
0.00117255
0.0016104
0.00214401
0.0026713
0.00298919
0.00317534
-6.67844e-05
-9.94082e-05
-0.000161498
-0.000214704
-0.000234797
-0.000227726
-0.000202922
-0.000165015
-0.000115025
-5.09123e-05
3.29843e-05
0.000147014
0.000307253
0.000533701
0.000844507
0.00125671
0.00179055
0.00237268
0.00287913
0.00320394
-0.000128638
-0.000168334
-0.000246659
-0.000320132
-0.000359623
-0.000370322
-0.00036305
-0.00034467
-0.000318307
-0.000283645
-0.000236472
-0.000167764
-6.2066e-05
9.64755e-05
0.000304742
0.000548976
0.000856937
0.00144392
0.00232533
0.00281025
-0.000212706
-0.000258622
-0.000350751
-0.000441453
-0.000498476
-0.000526714
-0.000538261
-0.000542119
-0.000543857
-0.000545861
-0.000547484
-0.000544249
-0.000525889
-0.000491912
-0.000511405
-0.000672213
-0.000812489
-0.000411155
0.000752244
0.00155989
-0.000318543
-0.000369373
-0.000472125
-0.000575659
-0.000646329
-0.000689548
-0.000718885
-0.000745381
-0.000777115
-0.000819786
-0.000877817
-0.000954153
-0.00104938
-0.00118704
-0.0014965
-0.00213695
-0.00288083
-0.00279258
-0.00181204
-0.000466549
-0.000444514
-0.000498996
-0.000608362
-0.000719402
-0.000798322
-0.000852032
-0.00089588
-0.000942706
-0.00100257
-0.00108414
-0.00119657
-0.00135088
-0.00156088
-0.00187058
-0.00241022
-0.00337357
-0.00457159
-0.00473536
-0.00411484
-0.0026015
-0.000588041
-0.000644985
-0.000756579
-0.000869019
-0.000949638
-0.00100792
-0.0010613
-0.00112383
-0.00120634
-0.00131903
-0.00147326
-0.001685
-0.00197777
-0.00239299
-0.00302894
-0.00401066
-0.00535807
-0.00559044
-0.00534803
-0.0038425
-0.000747552
-0.000805438
-0.000914007
-0.00102062
-0.00109539
-0.00115157
-0.00120882
-0.00128126
-0.00137927
-0.0015124
-0.00169054
-0.00192826
-0.00224894
-0.00269139
-0.00331517
-0.00405302
-0.00534959
-0.00538007
-0.00556583
-0.00398078
-0.000921009
-0.000976598
-0.00107619
-0.00116912
-0.00123013
-0.00127771
-0.00133315
-0.00141011
-0.00151756
-0.00166176
-0.00184872
-0.00208688
-0.0023915
-0.00278766
-0.00330258
-0.00384871
-0.00467153
-0.00468097
-0.0050706
-0.00345202
-0.00111024
-0.00115925
-0.00124016
-0.00130876
-0.00134696
-0.00137964
-0.00142875
-0.00150622
-0.00161844
-0.00176832
-0.00195717
-0.00218582
-0.00245803
-0.00277994
-0.00316104
-0.0035179
-0.00404471
-0.00391873
-0.00446153
-0.0026986
-0.00131809
-0.00134039
-0.00139237
-0.00142371
-0.00143068
-0.00144425
-0.0014843
-0.00155975
-0.00167432
-0.00182846
-0.00202052
-0.00224545
-0.00249676
-0.00276521
-0.00304148
-0.00327084
-0.0035918
-0.00321296
-0.00384216
-0.00165907
-0.00155254
-0.00151608
-0.00151703
-0.0014832
-0.00145256
-0.00144872
-0.00148172
-0.00155547
-0.00167187
-0.00183028
-0.00202928
-0.00226195
-0.00251831
-0.00277372
-0.00300292
-0.00313412
-0.00323189
-0.00248026
-0.00291837
0.000624351
-0.00179842
-0.00161327
-0.00153983
-0.0014263
-0.00137856
-0.00137808
-0.0014167
-0.00149425
-0.00161333
-0.00177387
-0.00197867
-0.00222029
-0.00249315
-0.00275995
-0.00298887
-0.00302372
-0.00281121
-0.00156675
-0.000840376
0.00659522
-0.00282464
-0.00237705
-0.00204168
-0.00169992
-0.00150676
-0.00142383
-0.00141465
-0.00146099
-0.00155867
-0.00170216
-0.0018977
-0.00213091
-0.00240795
-0.00266828
-0.00289556
-0.00285408
-0.00226042
-0.000116514
0.00361159
0.0173223
-0.000486709
0.00148443
0.000773892
0.000110148
-0.000284494
-0.000515928
-0.000700934
-0.000884516
-0.00108585
-0.00130709
-0.00155877
-0.00183897
-0.00212872
-0.00238661
-0.00247608
-0.00224677
-0.000950574
0.00283631
0.010955
0.0274655
)
;

boundaryField
{
    movingWall
    {
        type            zeroGradient;
    }
    fixedWalls
    {
        type            zeroGradient;
    }
    frontAndBack
    {
        type            empty;
    }
}


// ************************************************************************* //
