/*--------------------------------*- C++ -*----------------------------------*\
| =========                 |                                                 |
| \\      /  F ield         | OpenFOAM: The Open Source CFD Toolbox           |
|  \\    /   O peration     | Version:  3.0.0                                 |
|   \\  /    A nd           | Web:      www.OpenFOAM.org                      |
|    \\/     M anipulation  |                                                 |
\*---------------------------------------------------------------------------*/
FoamFile
{
    version     2.0;
    format      ascii;
    class       surfaceScalarField;
    location    "1";
    object      phi;
}
// * * * * * * * * * * * * * * * * * * * * * * * * * * * * * * * * * * * * * //

dimensions      [0 3 -1 0 0 0 0];

internalField   nonuniform List<scalar> 
760
(
9.72163e-09
-9.73505e-09
3.9353e-09
5.78644e-09
-3.17536e-08
3.5689e-08
-9.4852e-08
6.30986e-08
-1.77321e-07
8.24692e-08
-2.71929e-07
9.46087e-08
-3.7308e-07
1.0115e-07
-4.75975e-07
1.02896e-07
-5.75994e-07
1.00019e-07
-6.68081e-07
9.20873e-08
-7.4618e-07
7.80991e-08
-8.02615e-07
5.6435e-08
-8.3062e-07
2.8005e-08
-8.22067e-07
-8.55272e-09
-7.68626e-07
-5.34413e-08
-6.67193e-07
-1.01433e-07
-5.22236e-07
-1.44957e-07
-3.48334e-07
-1.73902e-07
-1.64965e-07
-1.83369e-07
-1.64965e-07
-5.05796e-10
-9.22883e-09
-2.68688e-08
3.21497e-08
-9.1147e-08
9.99675e-08
-1.85667e-07
1.57619e-07
-3.00062e-07
1.96864e-07
-4.25532e-07
2.20078e-07
-5.55294e-07
2.30913e-07
-6.83888e-07
2.3149e-07
-8.06252e-07
2.22383e-07
-9.17158e-07
2.02994e-07
-1.01077e-06
1.71709e-07
-1.08066e-06
1.26333e-07
-1.11769e-06
6.50312e-08
-1.11202e-06
-1.4226e-08
-1.05467e-06
-1.10793e-07
-9.37435e-07
-2.18665e-07
-7.57254e-07
-3.25137e-07
-5.18133e-07
-4.13024e-07
-2.39547e-07
-4.61955e-07
-4.04513e-07
-2.76712e-08
1.8443e-08
-8.7294e-08
9.1773e-08
-1.73997e-07
1.8667e-07
-2.7904e-07
2.62663e-07
-3.97021e-07
3.14846e-07
-5.22851e-07
3.45909e-07
-6.51998e-07
3.6006e-07
-7.80522e-07
3.60015e-07
-9.04741e-07
3.46602e-07
-1.02085e-06
3.19102e-07
-1.12433e-06
2.75195e-07
-1.20937e-06
2.11364e-07
-1.268e-06
1.23661e-07
-1.29093e-06
8.7106e-09
-1.265e-06
-1.3672e-07
-1.17387e-06
-3.09798e-07
-9.94263e-07
-5.04745e-07
-7.01358e-07
-7.05929e-07
-3.1745e-07
-8.45863e-07
-7.21963e-07
-5.79118e-08
7.63556e-08
-1.46702e-07
1.80564e-07
-2.48512e-07
2.88481e-07
-3.578e-07
3.71951e-07
-4.73158e-07
4.30205e-07
-5.93098e-07
4.65849e-07
-7.15746e-07
4.82709e-07
-8.39199e-07
4.83469e-07
-9.61641e-07
4.69045e-07
-1.08106e-06
4.38523e-07
-1.19465e-06
3.88783e-07
-1.2982e-06
3.14916e-07
-1.38522e-06
2.10682e-07
-1.44551e-06
6.90009e-08
-1.46308e-06
-1.19148e-07
-1.40797e-06
-3.64905e-07
-1.22991e-06
-6.82805e-07
-8.71041e-07
-1.0648e-06
-3.82686e-07
-1.33422e-06
-1.10465e-06
-8.45999e-08
1.60956e-07
-1.94987e-07
2.90951e-07
-3.07541e-07
4.01036e-07
-4.19302e-07
4.83713e-07
-5.31288e-07
5.42191e-07
-6.44602e-07
5.79164e-07
-7.59756e-07
5.97864e-07
-8.76984e-07
6.00698e-07
-9.96534e-07
5.88595e-07
-1.11839e-06
5.60382e-07
-1.24198e-06
5.12374e-07
-1.3656e-06
4.38531e-07
-1.48499e-06
3.30078e-07
-1.59059e-06
1.74601e-07
-1.66326e-06
-4.64795e-08
-1.65806e-06
-3.70097e-07
-1.48907e-06
-8.51797e-07
-1.05215e-06
-1.50172e-06
-4.66404e-07
-1.91997e-06
-1.57105e-06
-1.05758e-07
2.66715e-07
-2.31177e-07
4.1637e-07
-3.50838e-07
5.20698e-07
-4.63735e-07
5.9661e-07
-5.72251e-07
6.50709e-07
-6.79119e-07
6.86032e-07
-7.8668e-07
7.05425e-07
-8.97081e-07
7.111e-07
-1.01249e-06
7.04006e-07
-1.13501e-06
6.82906e-07
-1.26681e-06
6.4417e-07
-1.40954e-06
5.81262e-07
-1.56287e-06
4.83414e-07
-1.72098e-06
3.32706e-07
-1.86494e-06
9.74892e-08
-1.93992e-06
-2.95118e-07
-1.81766e-06
-9.74063e-07
-1.33358e-06
-1.9858e-06
-6.53722e-07
-2.59982e-06
-2.22477e-06
-1.21619e-07
3.88334e-07
-2.56834e-07
5.51586e-07
-3.8035e-07
6.44215e-07
-4.92712e-07
7.08972e-07
-5.97133e-07
7.5513e-07
-6.97306e-07
7.86206e-07
-7.96814e-07
8.04934e-07
-8.9923e-07
8.13516e-07
-1.00828e-06
8.13055e-07
-1.12811e-06
8.02739e-07
-1.26374e-06
7.79801e-07
-1.42098e-06
7.38502e-07
-1.60559e-06
6.68027e-07
-1.82063e-06
5.47747e-07
-2.05652e-06
3.33381e-07
-2.27034e-06
-8.12946e-08
-2.29016e-06
-9.54245e-07
-1.84315e-06
-2.4328e-06
-1.01976e-06
-3.42321e-06
-3.24454e-06
-1.32837e-07
5.21172e-07
-2.73747e-07
6.92496e-07
-3.98287e-07
7.68756e-07
-5.08255e-07
8.1894e-07
-6.0742e-07
8.54297e-07
-7.00009e-07
8.78796e-07
-7.90324e-07
8.95249e-07
-8.82788e-07
9.05981e-07
-9.82141e-07
9.1241e-07
-1.09406e-06
9.14662e-07
-1.22596e-06
9.11696e-07
-1.38786e-06
9.00404e-07
-1.59335e-06
8.73522e-07
-1.86038e-06
8.14777e-07
-2.20931e-06
6.82318e-07
-2.61034e-06
3.19734e-07
-2.81852e-06
-7.46064e-07
-2.45332e-06
-2.79799e-06
-1.44126e-06
-4.43527e-06
-4.6858e-06
-1.40255e-07
6.61427e-07
-2.83606e-07
8.35848e-07
-4.06721e-07
8.91872e-07
-5.12415e-07
9.24634e-07
-6.04846e-07
9.46728e-07
-6.88493e-07
9.62444e-07
-7.67943e-07
9.74699e-07
-8.47901e-07
9.8594e-07
-9.33425e-07
9.97934e-07
-1.0307e-06
1.01194e-06
-1.14811e-06
1.02911e-06
-1.2981e-06
1.0504e-06
-1.50035e-06
1.07578e-06
-1.78623e-06
1.10066e-06
-2.19467e-06
1.09076e-06
-2.66652e-06
7.91583e-07
-2.88414e-06
-5.2844e-07
-2.57357e-06
-3.10855e-06
-1.61498e-06
-5.39385e-06
-6.30078e-06
-1.44725e-07
8.06152e-07
-2.87967e-07
9.79091e-07
-4.07569e-07
1.01147e-06
-5.07192e-07
1.02426e-06
-5.91287e-07
1.03082e-06
-6.64425e-07
1.03558e-06
-7.31162e-07
1.04144e-06
-7.96001e-07
1.05078e-06
-8.63584e-07
1.06552e-06
-9.39345e-07
1.0877e-06
-1.03054e-06
1.1203e-06
-1.14837e-06
1.16822e-06
-1.31215e-06
1.23957e-06
-1.55446e-06
1.34297e-06
-1.90424e-06
1.44054e-06
-2.2856e-06
1.17294e-06
-2.41733e-06
-3.96702e-07
-2.17498e-06
-3.3509e-06
-1.41856e-06
-6.15026e-06
-7.71934e-06
-1.47212e-07
9.53364e-07
-2.88276e-07
1.12016e-06
-4.02591e-07
1.12579e-06
-4.9444e-07
1.11611e-06
-5.68578e-07
1.10496e-06
-6.29633e-07
1.09664e-06
-6.81979e-07
1.09378e-06
-7.29625e-07
1.09843e-06
-7.76247e-07
1.11214e-06
-8.25542e-07
1.13699e-06
-8.81708e-07
1.17647e-06
-9.5062e-07
1.23714e-06
-1.04237e-06
1.33132e-06
-1.17355e-06
1.47415e-06
-1.3437e-06
1.61069e-06
-1.51321e-06
1.34245e-06
-1.57646e-06
-3.33451e-07
-1.4762e-06
-3.45116e-06
-1.10525e-06
-6.52121e-06
-8.82459e-06
-1.47612e-07
1.10098e-06
-2.85686e-07
1.25823e-06
-3.93262e-07
1.23337e-06
-4.75627e-07
1.19847e-06
-5.38111e-07
1.16745e-06
-5.85545e-07
1.14407e-06
-6.2215e-07
1.13039e-06
-6.51416e-07
1.12769e-06
-6.75895e-07
1.13662e-06
-6.97298e-07
1.1584e-06
-7.1617e-07
1.19534e-06
-7.31412e-07
1.25238e-06
-7.39169e-07
1.33908e-06
-7.31804e-07
1.46679e-06
-7.01078e-07
1.57996e-06
-6.45422e-07
1.28679e-06
-6.72448e-07
-3.06425e-07
-6.82708e-07
-3.4409e-06
-7.55902e-07
-6.44801e-06
-9.58049e-06
-1.492e-07
1.25018e-06
-2.82285e-07
1.39131e-06
-3.80858e-07
1.33194e-06
-4.51444e-07
1.26906e-06
-5.00188e-07
1.21619e-06
-5.32326e-07
1.17621e-06
-5.52012e-07
1.15007e-06
-5.6236e-07
1.13804e-06
-5.65099e-07
1.13936e-06
-5.60428e-07
1.15373e-06
-5.46264e-07
1.18118e-06
-5.16599e-07
1.22271e-06
-4.58188e-07
1.28067e-06
-3.46287e-07
1.35488e-06
-1.65211e-07
1.39889e-06
1.18836e-08
1.10969e-06
1.07041e-07
-4.01583e-07
-1.3304e-07
-3.20082e-06
-3.87698e-07
-6.19336e-06
-9.96819e-06
-1.47838e-07
1.39801e-06
-2.77503e-07
1.52098e-06
-3.64876e-07
1.41931e-06
-4.20691e-07
1.32487e-06
-4.52928e-07
1.24843e-06
-4.67584e-07
1.19086e-06
-4.68946e-07
1.15144e-06
-4.59741e-07
1.12884e-06
-4.41324e-07
1.12094e-06
-4.13349e-07
1.12575e-06
-3.72985e-07
1.14081e-06
-3.1319e-07
1.16292e-06
-2.19274e-07
1.18675e-06
-6.23617e-08
1.19797e-06
1.89893e-07
1.14663e-06
4.65608e-07
8.33979e-07
4.93712e-07
-4.29689e-07
1.84308e-07
-2.89141e-06
-1.29756e-07
-5.87929e-06
-1.00979e-05
-1.57612e-07
1.55563e-06
-2.74787e-07
1.63815e-06
-3.44183e-07
1.48871e-06
-3.79656e-07
1.36034e-06
-3.90908e-07
1.25968e-06
-3.84572e-07
1.18453e-06
-3.6481e-07
1.13167e-06
-3.34032e-07
1.09806e-06
-2.93517e-07
1.08042e-06
-2.43087e-07
1.07532e-06
-1.80842e-07
1.07857e-06
-1.01953e-07
1.08403e-06
3.26261e-09
1.08153e-06
1.5133e-07
1.0499e-06
3.62407e-07
9.35553e-07
6.01215e-07
5.95169e-07
6.2726e-07
-4.55736e-07
3.41769e-07
-2.60593e-06
5.77194e-08
-5.59525e-06
-1.00402e-05
-1.63293e-07
1.71892e-06
-2.6716e-07
1.74202e-06
-3.11359e-07
1.5329e-06
-3.17422e-07
1.36641e-06
-3.00079e-07
1.24234e-06
-2.66432e-07
1.15088e-06
-2.20048e-07
1.08529e-06
-1.62798e-07
1.04081e-06
-9.56737e-08
1.0133e-06
-1.88203e-08
9.98465e-07
6.8103e-08
9.91643e-07
1.66443e-07
9.85687e-07
2.78485e-07
9.69487e-07
4.09159e-07
9.19227e-07
5.57392e-07
7.87318e-07
7.08428e-07
4.44131e-07
7.07855e-07
-4.55165e-07
4.46686e-07
-2.34476e-06
1.65495e-07
-5.31406e-06
-9.87474e-06
-2.30475e-07
1.94939e-06
-2.73268e-07
1.78481e-06
-2.51609e-07
1.51124e-06
-2.0393e-07
1.31873e-06
-1.41724e-07
1.18013e-06
-6.76552e-08
1.07681e-06
1.70952e-08
1.00054e-06
1.11972e-07
9.45929e-07
2.16704e-07
9.08566e-07
3.31448e-07
8.8372e-07
4.55305e-07
8.67785e-07
5.87334e-07
8.53657e-07
7.23422e-07
8.33397e-07
8.59399e-07
7.83249e-07
9.79077e-07
6.67639e-07
1.07319e-06
3.50012e-07
1.01449e-06
-3.96463e-07
6.92482e-07
-2.02275e-06
3.20815e-07
-4.94239e-06
-9.55392e-06
-2.78647e-07
2.22804e-06
-1.80688e-07
1.68685e-06
-5.53111e-08
1.38587e-06
7.64603e-08
1.18695e-06
2.15965e-07
1.04062e-06
3.62977e-07
9.29796e-07
5.17167e-07
8.46347e-07
6.78663e-07
7.84431e-07
8.47421e-07
7.39807e-07
1.02459e-06
7.06551e-07
1.20867e-06
6.83701e-07
1.39989e-06
6.62433e-07
1.58965e-06
6.43638e-07
1.77358e-06
5.99316e-07
1.91323e-06
5.27989e-07
1.99417e-06
2.69064e-07
1.87498e-06
-2.77274e-07
1.44706e-06
-1.59483e-06
7.21162e-07
-4.2165e-06
-8.83276e-06
-1.29416e-07
2.35745e-06
1.44599e-07
1.41284e-06
5.34445e-07
9.96019e-07
9.26406e-07
7.94992e-07
1.28349e-06
6.83543e-07
1.61191e-06
6.01375e-07
1.92174e-06
5.3651e-07
2.21938e-06
4.86795e-07
2.50907e-06
4.5011e-07
2.79524e-06
4.20386e-07
3.07751e-06
4.01425e-07
3.36202e-06
3.77926e-07
3.63423e-06
3.71416e-07
3.90951e-06
3.24043e-07
4.1399e-06
2.97591e-07
4.28629e-06
1.22673e-07
4.19051e-06
-1.81499e-07
3.65748e-06
-1.0618e-06
2.16741e-06
-2.72644e-06
-6.66535e-06
2.35745e-06
3.77029e-06
4.76631e-06
5.5613e-06
6.24484e-06
6.84621e-06
7.38272e-06
7.86952e-06
8.31963e-06
8.74001e-06
9.14144e-06
9.51936e-06
9.89078e-06
1.02148e-05
1.05124e-05
1.06351e-05
1.04536e-05
9.39179e-06
6.66535e-06
)
;

boundaryField
{
    movingWall
    {
        type            calculated;
        value           uniform 0;
    }
    fixedWalls
    {
        type            calculated;
        value           uniform 0;
    }
    frontAndBack
    {
        type            empty;
        value           nonuniform 0();
    }
}


// ************************************************************************* //
