/*--------------------------------*- C++ -*----------------------------------*\
| =========                 |                                                 |
| \\      /  F ield         | OpenFOAM: The Open Source CFD Toolbox           |
|  \\    /   O peration     | Version:  3.0.0                                 |
|   \\  /    A nd           | Web:      www.OpenFOAM.org                      |
|    \\/     M anipulation  |                                                 |
\*---------------------------------------------------------------------------*/
FoamFile
{
    version     2.0;
    format      ascii;
    class       volVectorField;
    location    "1";
    object      U;
}
// * * * * * * * * * * * * * * * * * * * * * * * * * * * * * * * * * * * * * //

dimensions      [0 1 -1 0 0 0 0];

internalField   nonuniform List<vector> 
400
(
(0.000119518 -0.000115085 0)
(0.000256865 -1.45011e-05 0)
(-0.000130671 0.000192416 0)
(-0.00117466 0.000384158 0)
(-0.00267235 0.000528256 0)
(-0.00447326 0.000625849 0)
(-0.00645268 0.000690868 0)
(-0.00851062 0.000730172 0)
(-0.010555 0.000741636 0)
(-0.0124901 0.000716586 0)
(-0.0142077 0.000640323 0)
(-0.0156076 0.000491449 0)
(-0.0164071 0.000302083 0)
(-0.0166469 2.70459e-05 0)
(-0.0160104 -0.000356184 0)
(-0.0144397 -0.00076659 0)
(-0.0119367 -0.00115261 0)
(-0.00870139 -0.00140694 0)
(-0.00511983 -0.0014652 0)
(-0.00152207 -0.00140261 0)
(8.37776e-05 -0.000288454 0)
(-0.000110019 0.000233764 0)
(-0.00102447 0.00125646 0)
(-0.00266953 0.00217415 0)
(-0.00480358 0.00279327 0)
(-0.00723875 0.00315704 0)
(-0.0098187 0.00333095 0)
(-0.0124255 0.00335002 0)
(-0.0149561 0.00322167 0)
(-0.0173099 0.00293454 0)
(-0.0193784 0.00246133 0)
(-0.0210416 0.00176617 0)
(-0.0221327 0.000830236 0)
(-0.0224766 -0.000372512 0)
(-0.0218647 -0.00183343 0)
(-0.0201165 -0.00341481 0)
(-0.0171094 -0.00484524 0)
(-0.0128593 -0.00578057 0)
(-0.00761358 -0.00606317 0)
(-0.00203029 -0.00533855 0)
(-0.000113876 -5.03986e-05 0)
(-0.00104757 0.00110084 0)
(-0.00253629 0.00281627 0)
(-0.00445416 0.00422615 0)
(-0.00671251 0.00518998 0)
(-0.00917951 0.00575625 0)
(-0.0117509 0.00601042 0)
(-0.0143456 0.00600636 0)
(-0.0168902 0.00576052 0)
(-0.019312 0.00526029 0)
(-0.0215326 0.00446692 0)
(-0.0234486 0.003324 0)
(-0.0249237 0.00177352 0)
(-0.0257882 -0.000231095 0)
(-0.0258085 -0.00268001 0)
(-0.0246779 -0.00545065 0)
(-0.0220169 -0.0082898 0)
(-0.0173117 -0.0108578 0)
(-0.0103892 -0.0124683 0)
(-0.00251992 -0.0108613 0)
(-0.000361519 0.00082859 0)
(-0.00203758 0.00262992 0)
(-0.00395155 0.00469961 0)
(-0.00602062 0.00633549 0)
(-0.00827556 0.00747434 0)
(-0.0106458 0.00816205 0)
(-0.0130843 0.00847843 0)
(-0.0155548 0.0084796 0)
(-0.0180227 0.00818426 0)
(-0.0204534 0.00757719 0)
(-0.0228023 0.00660477 0)
(-0.0250008 0.00518312 0)
(-0.0269481 0.00321548 0)
(-0.0284822 0.000602413 0)
(-0.0293439 -0.00272493 0)
(-0.029081 -0.00681827 0)
(-0.0269145 -0.0117001 0)
(-0.0216172 -0.0171273 0)
(-0.0128784 -0.0210574 0)
(-0.00283888 -0.0178294 0)
(-0.000601612 0.0022948 0)
(-0.00286678 0.00465405 0)
(-0.00508875 0.00685521 0)
(-0.00726082 0.00854122 0)
(-0.00948967 0.0097314 0)
(-0.0117479 0.0104735 0)
(-0.0140357 0.0108354 0)
(-0.0163593 0.0108677 0)
(-0.018727 0.0105886 0)
(-0.0211445 0.00997791 0)
(-0.0236069 0.00896596 0)
(-0.0260963 0.00744338 0)
(-0.0285611 0.00526294 0)
(-0.0308759 0.00223635 0)
(-0.0327773 -0.0018842 0)
(-0.033668 -0.00748628 0)
(-0.0322213 -0.0151495 0)
(-0.0262646 -0.0248645 0)
(-0.015768 -0.0317602 0)
(-0.00332314 -0.026029 0)
(-0.000798808 0.00422548 0)
(-0.00350106 0.0070334 0)
(-0.00593138 0.00919319 0)
(-0.00816774 0.0107971 0)
(-0.0103613 0.0119394 0)
(-0.0125108 0.0126747 0)
(-0.014649 0.0130617 0)
(-0.0168194 0.013145 0)
(-0.019069 0.012943 0)
(-0.0214407 0.0124298 0)
(-0.0239773 0.0115297 0)
(-0.0267231 0.0101138 0)
(-0.0296993 0.00798452 0)
(-0.0328659 0.00484043 0)
(-0.0360294 0.000183129 0)
(-0.0385346 -0.00691273 0)
(-0.0384817 -0.0180878 0)
(-0.0325748 -0.0339223 0)
(-0.0213376 -0.0441558 0)
(-0.00491641 -0.0361641 0)
(-0.000950295 0.00651777 0)
(-0.00396335 0.00965362 0)
(-0.00651732 0.0116379 0)
(-0.00877572 0.0130597 0)
(-0.0109157 0.0140755 0)
(-0.0129503 0.01475 0)
(-0.0149338 0.0151377 0)
(-0.0169371 0.0152815 0)
(-0.0190353 0.0152009 0)
(-0.0213048 0.0148727 0)
(-0.0238367 0.0142292 0)
(-0.0267421 0.0131408 0)
(-0.0301409 0.0113808 0)
(-0.0341381 0.00855151 0)
(-0.0387575 0.00388938 0)
(-0.0435824 -0.00431034 0)
(-0.0466036 -0.0192944 0)
(-0.0431203 -0.0430509 0)
(-0.0308412 -0.0577935 0)
(-0.00945295 -0.0508576 0)
(-0.00106136 0.0090739 0)
(-0.00428286 0.012425 0)
(-0.00689069 0.0141292 0)
(-0.00912828 0.0152923 0)
(-0.0111876 0.0161191 0)
(-0.0130894 0.0166849 0)
(-0.0149005 0.0170445 0)
(-0.0167083 0.0172426 0)
(-0.018604 0.0173038 0)
(-0.020688 0.0172188 0)
(-0.0230886 0.0169456 0)
(-0.0259766 0.0163865 0)
(-0.0295758 0.015343 0)
(-0.0341812 0.0134142 0)
(-0.0402504 0.00971272 0)
(-0.0482246 0.00161208 0)
(-0.0564409 -0.0171322 0)
(-0.0554194 -0.0514203 0)
(-0.0394064 -0.0752403 0)
(-0.0178117 -0.0752418 0)
(-0.00114098 0.0118108 0)
(-0.00448849 0.0152757 0)
(-0.00709226 0.0166152 0)
(-0.00926821 0.017458 0)
(-0.0112154 0.0180435 0)
(-0.0129581 0.0184558 0)
(-0.0145691 0.0187523 0)
(-0.0161418 0.0189812 0)
(-0.0177718 0.0191742 0)
(-0.0195668 0.0193447 0)
(-0.0216684 0.019492 0)
(-0.0242743 0.0195873 0)
(-0.0276624 0.0195386 0)
(-0.0322301 0.0190948 0)
(-0.0389303 0.0173993 0)
(-0.0493892 0.0104747 0)
(-0.05993 -0.0133956 0)
(-0.0567472 -0.060124 0)
(-0.0402232 -0.0983932 0)
(-0.0236124 -0.109349 0)
(-0.00119809 0.0146667 0)
(-0.00460708 0.0181508 0)
(-0.00715902 0.019051 0)
(-0.00923597 0.0195197 0)
(-0.0110383 0.0198173 0)
(-0.0125918 0.0200324 0)
(-0.0139708 0.0202243 0)
(-0.0152663 0.0204424 0)
(-0.0165676 0.0207249 0)
(-0.0179711 0.0211065 0)
(-0.0195997 0.0216309 0)
(-0.0216232 0.0223564 0)
(-0.024279 0.0233562 0)
(-0.0278987 0.0246318 0)
(-0.0336081 0.0253378 0)
(-0.0435554 0.0192593 0)
(-0.0527289 -0.0101579 0)
(-0.046319 -0.0688753 0)
(-0.0363176 -0.121704 0)
(-0.0147863 -0.144479 0)
(-0.00125573 0.0175772 0)
(-0.00465924 0.0209967 0)
(-0.00712578 0.0213974 0)
(-0.00906859 0.0214424 0)
(-0.0106932 0.0214078 0)
(-0.0120266 0.0213824 0)
(-0.0131425 0.0214235 0)
(-0.0141252 0.0215769 0)
(-0.0150503 0.0218797 0)
(-0.015989 0.0223769 0)
(-0.0170182 0.023139 0)
(-0.0182289 0.0242897 0)
(-0.0197199 0.0260414 0)
(-0.021602 0.0286166 0)
(-0.0243889 0.0310741 0)
(-0.03032 0.0251975 0)
(-0.0357939 -0.00758593 0)
(-0.0281775 -0.0709452 0)
(-0.0303028 -0.131398 0)
(-0.00714707 -0.171176 0)
(-0.00129737 0.0205751 0)
(-0.00466202 0.0237968 0)
(-0.00702132 0.0236241 0)
(-0.00879614 0.0231933 0)
(-0.0102086 0.0227828 0)
(-0.0112898 0.0224754 0)
(-0.0121144 0.02232 0)
(-0.0127592 0.0223513 0)
(-0.0132859 0.0225948 0)
(-0.0137361 0.0230871 0)
(-0.0141338 0.0238935 0)
(-0.0144739 0.0251432 0)
(-0.0146929 0.0270812 0)
(-0.0145883 0.0300231 0)
(-0.013925 0.0326737 0)
(-0.0139893 0.0271392 0)
(-0.0162425 -0.00581497 0)
(-0.0087254 -0.0700482 0)
(-0.0215934 -0.132273 0)
(-0.00243644 -0.18784 0)
(-0.00139744 0.0234458 0)
(-0.00466664 0.0264994 0)
(-0.0068771 0.025694 0)
(-0.00843703 0.0247343 0)
(-0.00959339 0.0239061 0)
(-0.0103847 0.0232801 0)
(-0.0108902 0.0228889 0)
(-0.0111783 0.0227502 0)
(-0.0113048 0.0228645 0)
(-0.0112863 0.0232439 0)
(-0.0111093 0.023917 0)
(-0.0107 0.0249533 0)
(-0.00987983 0.0264922 0)
(-0.00824613 0.0286741 0)
(-0.00548776 0.030536 0)
(0.000166471 0.0252889 0)
(-0.000578531 -0.00642193 0)
(0.00630143 -0.0656372 0)
(-0.0139475 -0.125808 0)
(0.0034525 -0.19618 0)
(-0.00138353 0.0266547 0)
(-0.004658 0.0291602 0)
(-0.00668922 0.0275719 0)
(-0.00797407 0.0260149 0)
(-0.00881566 0.0247299 0)
(-0.0092685 0.0237585 0)
(-0.0094166 0.0231063 0)
(-0.00933 0.0227655 0)
(-0.00905128 0.0227052 0)
(-0.00859276 0.0229047 0)
(-0.00792695 0.0233405 0)
(-0.00696258 0.0239928 0)
(-0.00550038 0.0248387 0)
(-0.00315349 0.0257502 0)
(0.000420891 0.025852 0)
(0.00782741 0.0203122 0)
(0.00803859 -0.00757057 0)
(0.0147163 -0.0594052 0)
(-0.0100828 -0.118964 0)
(0.00792918 -0.199799 0)
(-0.0017155 0.0293061 0)
(-0.00475291 0.0315515 0)
(-0.00646544 0.0291477 0)
(-0.00735182 0.026943 0)
(-0.00778183 0.0251801 0)
(-0.00781795 0.0238557 0)
(-0.00754749 0.0229343 0)
(-0.00703554 0.0223734 0)
(-0.0063211 0.0221204 0)
(-0.00541638 0.0221181 0)
(-0.00430354 0.022297 0)
(-0.00291959 0.0225591 0)
(-0.00113249 0.022744 0)
(0.00130304 0.0224986 0)
(0.00453341 0.020815 0)
(0.0107253 0.0143255 0)
(0.0107166 -0.00880974 0)
(0.017897 -0.0541535 0)
(-0.00843699 -0.113794 0)
(0.0128655 -0.203921 0)
(-0.00161228 0.0331106 0)
(-0.00486983 0.0339347 0)
(-0.00607679 0.0303322 0)
(-0.00638456 0.027393 0)
(-0.00624142 0.02515 0)
(-0.00572407 0.0234849 0)
(-0.00491783 0.0223016 0)
(-0.00387735 0.0215223 0)
(-0.00263283 0.0210725 0)
(-0.00119543 0.0208721 0)
(0.000435927 0.0208267 0)
(0.00227894 0.0207943 0)
(0.00436499 0.0205468 0)
(0.00676111 0.019624 0)
(0.00939978 0.0170149 0)
(0.0135349 0.00996051 0)
(0.012243 -0.00971247 0)
(0.0202401 -0.0497956 0)
(-0.00781857 -0.1112 0)
(0.0183948 -0.207112 0)
(-0.0028873 0.0353309 0)
(-0.00591601 0.0351375 0)
(-0.00534547 0.0306754 0)
(-0.00459151 0.0270899 0)
(-0.00350249 0.0244599 0)
(-0.00214298 0.0225126 0)
(-0.000554212 0.0210942 0)
(0.00124256 0.0201043 0)
(0.00323685 0.0194568 0)
(0.00543025 0.0190602 0)
(0.00781452 0.0188232 0)
(0.0103763 0.0185956 0)
(0.013055 0.0181587 0)
(0.0158061 0.0170178 0)
(0.018295 0.0143003 0)
(0.0212197 0.0074867 0)
(0.0188928 -0.00916864 0)
(0.0268711 -0.0448801 0)
(-0.00694146 -0.107169 0)
(0.0264977 -0.205495 0)
(-0.00452978 0.0467844 0)
(-0.00561227 0.0396489 0)
(-0.0021104 0.031792 0)
(0.000138309 0.0269798 0)
(0.00285923 0.0235656 0)
(0.00575003 0.0210724 0)
(0.00877013 0.0192599 0)
(0.0119266 0.0179574 0)
(0.0152243 0.0170431 0)
(0.0186856 0.016401 0)
(0.0222814 0.0159649 0)
(0.0260508 0.0155767 0)
(0.0298162 0.0151275 0)
(0.0336414 0.0141016 0)
(0.0366301 0.011967 0)
(0.0396339 0.00610788 0)
(0.0369651 -0.00705826 0)
(0.0433155 -0.0379948 0)
(0.00168204 -0.0976979 0)
(0.040888 -0.186534 0)
(-0.00214568 0.0310106 0)
(-0.00198631 0.0165063 0)
(0.00735345 0.015572 0)
(0.0147068 0.0149299 0)
(0.0221313 0.0141452 0)
(0.0289946 0.0132133 0)
(0.0353811 0.0123461 0)
(0.04146 0.01165 0)
(0.0473032 0.011152 0)
(0.053093 0.0107653 0)
(0.0586753 0.0105214 0)
(0.0644595 0.0102809 0)
(0.0697231 0.0100564 0)
(0.0755377 0.00937649 0)
(0.0794794 0.00820117 0)
(0.0845018 0.00359581 0)
(0.0823278 -0.00548759 0)
(0.084961 -0.0294306 0)
(0.041462 -0.0738919 0)
(0.0750067 -0.141446 0)
(0.0506552 0.0769565 0)
(0.0557086 0.0537634 0)
(0.0842596 0.0341964 0)
(0.104274 0.0238328 0)
(0.119329 0.0183515 0)
(0.131713 0.0148964 0)
(0.142685 0.012426 0)
(0.152853 0.0105861 0)
(0.161988 0.00919206 0)
(0.170992 0.00805552 0)
(0.17862 0.00729527 0)
(0.187029 0.00637495 0)
(0.193254 0.00628525 0)
(0.201061 0.00500329 0)
(0.205543 0.00550569 0)
(0.211389 0.00266388 0)
(0.210258 0.000482307 0)
(0.202467 -0.00548868 0)
(0.16108 -0.0165135 0)
(0.151828 -0.0961445 0)
)
;

boundaryField
{
    movingWall
    {
        type            fixedValue;
        value           uniform (1 0 0);
    }
    fixedWalls
    {
        type            fixedValue;
        value           uniform (0 0 0);
    }
    frontAndBack
    {
        type            empty;
    }
}


// ************************************************************************* //
